<event>
12    1  0.8416569E-002  0.1727162E+03  0.7818608E-02  0.1175121E+00
         21   -1    0    0  501  502  0.00000000000E+00  0.00000000000E+00  0.27479396866E+03  0.27479396866E+03  0.00000000000E+00 0.  1.
         21   -1    0    0  502  503 -0.00000000000E+00 -0.00000000000E+00 -0.24768611192E+03  0.24768611192E+03  0.00000000000E+00 0.  1.
         -6    2    1    2    0  503 -0.47515666145E+01 -0.34948912346E+01 -0.18236634370E+03  0.25117399911E+03  0.17261547689E+03 0.  0.
        -24    2    3    3    0    0 -0.76222655452E+01 -0.68138563610E+02 -0.98097952353E+02  0.14482411866E+03  0.81546638851E+02 0.  0.
          6    2    1    2  501    0  0.47515666145E+01  0.34948912346E+01  0.20947420043E+03  0.27130608147E+03  0.17231586563E+03 0.  0.
         24    2    5    5    0    0  0.65505944557E+02 -0.14784631016E+02  0.15899192720E+03  0.19009164136E+03  0.79666712697E+02 0.  0.
          5    1    5    5  501    0 -0.60754377943E+02  0.18279522250E+02  0.50482273233E+02  0.81214440118E+02  0.47000000000E+01 0. -1.
        -13    1    6    6    0    0  0.68793060309E+02  0.17972002169E+02  0.10351390382E+03  0.12558107458E+03  0.00000000000E+00 0.  1.
         14    1    6    6    0    0 -0.32871157518E+01 -0.32756633184E+02  0.55478023382E+02  0.64510566777E+02  0.00000000000E+00 0. -1.
         -5    1    3    3    0  503  0.28706989306E+01  0.64643672375E+02 -0.84268391343E+02  0.10634988044E+03  0.47000000000E+01 0.  1.
         11    1    4    4    0    0  0.16904753667E+02 -0.26010898126E+02  0.43928388540E+01  0.31331047717E+02  0.00000000000E+00 0. -1.
        -12    1    4    4    0    0 -0.24527019212E+02 -0.42127665484E+02 -0.10249079121E+03  0.11349307095E+03  0.00000000000E+00 0.  1.
</event>
<event>
12    1  0.8416569E-002  0.2781468E+03  0.7818608E-02  0.1096799E+00
         21   -1    0    0  501  502  0.00000000000E+00  0.00000000000E+00  0.70737298212E+02  0.70737298212E+02  0.00000000000E+00 0.  1.
         21   -1    0    0  502  503 -0.00000000000E+00 -0.00000000000E+00 -0.12889286709E+04  0.12889286709E+04  0.00000000000E+00 0. -1.
         -6    2    1    2    0  503 -0.11302617420E+03  0.18715048258E+03 -0.87484463525E+03  0.91779196537E+03  0.17084711495E+03 0.  0.
        -24    2    3    3    0    0 -0.45913334912E+02  0.18773785288E+03 -0.64517018078E+03  0.67846598843E+03  0.81963403795E+02 0.  0.
          6    2    1    2  501    0  0.11302617420E+03 -0.18715048258E+03 -0.34334673744E+03  0.44187400374E+03  0.17194602029E+03 0.  0.
         24    2    5    5    0    0  0.14549142410E+03 -0.17855927780E+03 -0.28768749590E+03  0.37669852968E+03  0.78016131629E+02 0.  0.
          5    1    5    5  501    0 -0.32465249899E+02 -0.85912047812E+01 -0.55659241534E+02  0.65175474058E+02  0.47000000000E+01 0. -1.
        -11    1    6    6    0    0  0.13766218971E+03 -0.11567346740E+03 -0.21200647024E+03  0.27798915979E+03  0.00000000000E+00 0.  1.
         12    1    6    6    0    0  0.78292343903E+01 -0.62885810394E+02 -0.75681025663E+02  0.98709369897E+02  0.00000000000E+00 0. -1.
         -5    1    3    3    0  503 -0.67112839285E+02 -0.58737030744E+00 -0.22967445447E+03  0.23932597694E+03  0.47000000000E+01 0.  1.
         13    1    4    4    0    0 -0.61185709939E+02  0.82075642620E+02 -0.34544186464E+03  0.36029180404E+03  0.00000000000E+00 0. -1.
        -14    1    4    4    0    0  0.15272375027E+02  0.10566221026E+03 -0.29972831614E+03  0.31817418439E+03  0.00000000000E+00 0.  1.
</event>
<event>
12    1  0.8416569E-002  0.1766372E+03  0.7818608E-02  0.1173436E+00
         21   -1    0    0  503  502  0.00000000000E+00  0.00000000000E+00  0.22798702319E+03  0.22798702319E+03  0.00000000000E+00 0.  1.
         21   -1    0    0  501  503 -0.00000000000E+00 -0.00000000000E+00 -0.17017941363E+03  0.17017941363E+03  0.00000000000E+00 0.  1.
          6    2    1    2  501    0 -0.11131155895E+02 -0.39037607434E+02 -0.67403987936E+02  0.18906086624E+03  0.17190949982E+03 0.  0.
         24    2    3    3    0    0 -0.56477509865E+02 -0.33603363081E+02  0.43791802234E+01  0.10385091341E+03  0.80292838202E+02 0.  0.
         -6    2    1    2    0  502  0.11131155895E+02  0.39037607434E+02  0.12521159750E+03  0.20910557058E+03  0.16247879269E+03 0.  0.
        -24    2    5    5    0    0 -0.51203625731E+02 -0.11170068159E+01  0.73252090792E+02  0.11844191533E+03  0.77714602939E+02 0.  0.
          5    1    3    3  501    0  0.45346353969E+02 -0.54342443530E+01 -0.71783168160E+02  0.85209952828E+02  0.47000000000E+01 0. -1.
        -13    1    4    4    0    0 -0.18982599066E+02 -0.41253143801E+02 -0.28318076137E+02  0.53517047535E+02  0.00000000000E+00 0.  1.
         14    1    4    4    0    0 -0.37494910798E+02  0.76497807197E+01  0.32697256360E+02  0.50333865879E+02  0.00000000000E+00 0. -1.
         -5    1    5    5    0  502  0.62334781626E+02  0.40154614250E+02  0.51959506705E+02  0.90663655249E+02  0.47000000000E+01 0.  1.
         11    1    6    6    0    0 -0.81554072544E+01 -0.10967356450E+02 -0.14671552623E+02  0.20051135413E+02  0.00000000000E+00 0. -1.
        -12    1    6    6    0    0 -0.43048218476E+02  0.98503496340E+01  0.87923643415E+02  0.98390779920E+02  0.00000000000E+00 0.  1.
</event>
<event>
12    1  0.8416569E-002  0.1900355E+03  0.7818608E-02  0.1158460E+00
         21   -1    0    0  501  502  0.00000000000E+00  0.00000000000E+00  0.32521742232E+03  0.32521742232E+03  0.00000000000E+00 0. -1.
         21   -1    0    0  502  503 -0.00000000000E+00 -0.00000000000E+00 -0.12191228807E+03  0.12191228807E+03  0.00000000000E+00 0.  1.
         -6    2    1    2    0  503  0.53318645778E+02  0.61715113760E+02  0.34693306580E+02  0.19317634563E+03  0.17164452143E+03 0.  0.
        -24    2    3    3    0    0  0.57800069407E+02  0.31900122243E+02  0.84822257951E+02  0.13449058379E+03  0.80835857529E+02 0.  0.
          6    2    1    2  501    0 -0.53318645778E+02 -0.61715113760E+02  0.16861182767E+03  0.25395336476E+03  0.17149556783E+03 0.  0.
         24    2    5    5    0    0 -0.39576219927E+02 -0.26145927130E+02  0.11888026766E+02  0.92588991125E+02  0.78622575690E+02 0.  0.
          5    1    5    5  501    0 -0.13742425851E+02 -0.35569186631E+02  0.15672380091E+03  0.16136437363E+03  0.47000000000E+01 0. -1.
        -13    1    6    6    0    0 -0.11574969455E+02  0.25819653630E+02 -0.94337444194E+01  0.29826665339E+02  0.00000000000E+00 0.  1.
         14    1    6    6    0    0 -0.28001250472E+02 -0.51965580760E+02  0.21321771185E+02  0.62762325787E+02  0.00000000000E+00 0. -1.
         -5    1    3    3    0  503 -0.44814236290E+01  0.29814991517E+02 -0.50128951371E+02  0.58685761838E+02  0.47000000000E+01 0.  1.
         11    1    4    4    0    0  0.55210212864E+02  0.56244740119E+02  0.72474547640E+02  0.10707099725E+03  0.00000000000E+00 0. -1.
        -12    1    4    4    0    0  0.25898565428E+01 -0.24344617876E+02  0.12347710311E+02  0.27419586546E+02  0.00000000000E+00 0.  1.
</event>
<event>
12    1  0.8416569E-002  0.3983004E+03  0.7818608E-02  0.1044923E+00
         21   -1    0    0  503  502  0.00000000000E+00  0.00000000000E+00  0.16152906276E+04  0.16152906276E+04  0.00000000000E+00 0. -1.
         21   -1    0    0  501  503 -0.00000000000E+00 -0.00000000000E+00 -0.98479080867E+02  0.98479080867E+02  0.00000000000E+00 0.  1.
          6    2    1    2  501    0  0.26237169086E+03 -0.23447635846E+03  0.88064023365E+03  0.96652492538E+03  0.18661496031E+03 0.  0.
         24    2    3    3    0    0  0.69342658169E+02 -0.17664624772E+02  0.23766014857E+03  0.26103714013E+03  0.80855420953E+02 0.  0.
         -6    2    1    2    0  502 -0.26237169086E+03  0.23447635846E+03  0.63617131304E+03  0.74724478305E+03  0.17275056995E+03 0.  0.
        -24    2    5    5    0    0 -0.22473914889E+03  0.22654003367E+03  0.62630162284E+03  0.70726110825E+03  0.78335691484E+02 0.  0.
          5    1    3    3  501    0  0.19302903269E+03 -0.21681173369E+03  0.64298008508E+03  0.70548778525E+03  0.47000000000E+01 0. -1.
        -13    1    4    4    0    0  0.75068870870E+02  0.12916159225E+02  0.18147525195E+03  0.19681318455E+03  0.00000000000E+00 0.  1.
         14    1    4    4    0    0 -0.57262127009E+01 -0.30580783997E+02  0.56184896627E+02  0.64223955583E+02  0.00000000000E+00 0. -1.
         -5    1    5    5    0  502 -0.37632541967E+02  0.79363247863E+01  0.98696901956E+01  0.39983674801E+02  0.47000000000E+01 0.  1.
         11    1    6    6    0    0 -0.95694741828E+02  0.14245369457E+03  0.28258814891E+03  0.33061548756E+03  0.00000000000E+00 0. -1.
        -12    1    6    6    0    0 -0.12904440707E+03  0.84086339098E+02  0.34371347393E+03  0.37664562068E+03  0.00000000000E+00 0.  1.
</event>
<event>
12    1  0.8416569E-002  0.1736615E+03  0.7818608E-02  0.1174272E+00
         21   -1    0    0  503  502  0.00000000000E+00  0.00000000000E+00  0.39394857431E+03  0.39394857431E+03  0.00000000000E+00 0.  1.
         21   -1    0    0  501  503 -0.00000000000E+00 -0.00000000000E+00 -0.16811050827E+03  0.16811050827E+03  0.00000000000E+00 0.  1.
          6    2    1    2  501    0  0.11807090998E+02  0.94033304429E+01 -0.94738153554E+02  0.19782224526E+03  0.17300431486E+03 0.  0.
         24    2    3    3    0    0  0.69533582456E+02  0.33401930376E+02 -0.50347598441E+02  0.12100498159E+03  0.78464749147E+02 0.  0.
         -6    2    1    2    0  502 -0.11807090998E+02 -0.94033304429E+01  0.32057621960E+03  0.36423683732E+03  0.17225426284E+03 0.  0.
        -24    2    5    5    0    0 -0.46395453680E+02  0.39262578608E+02  0.26222289567E+03  0.28061910026E+03  0.79323037124E+02 0.  0.
          5    1    3    3  501    0 -0.57726491458E+02 -0.23998599933E+02 -0.44390555113E+02  0.76817263672E+02  0.47000000000E+01 0. -1.
        -11    1    4    4    0    0  0.22464637899E+02  0.25450350881E+02 -0.63050119117E+02  0.71607945345E+02  0.00000000000E+00 0.  1.
         12    1    4    4    0    0  0.47068944557E+02  0.79515794950E+01  0.12702520676E+02  0.49397036244E+02  0.00000000000E+00 0. -1.
         -5    1    5    5    0  502  0.34588362682E+02 -0.48665909051E+02  0.58353323933E+02  0.83617737059E+02  0.47000000000E+01 0.  1.
         11    1    6    6    0    0  0.14111836186E+02 -0.15004595254E+01  0.83381741081E+01  0.16459661199E+02  0.00000000000E+00 0. -1.
        -12    1    6    6    0    0 -0.60507289867E+02  0.40763038134E+02  0.25388472156E+03  0.26415943906E+03  0.00000000000E+00 0.  1.
</event>
<event>
12    1  0.8416569E-002  0.1768637E+03  0.7818608E-02  0.1171723E+00
         21   -1    0    0  503  502  0.00000000000E+00  0.00000000000E+00  0.39300471820E+03  0.39300471820E+03  0.00000000000E+00 0. -1.
         21   -1    0    0  501  503 -0.00000000000E+00 -0.00000000000E+00 -0.90171426508E+02  0.90171426508E+02  0.00000000000E+00 0. -1.
          6    2    1    2  501    0  0.61655832253E+01 -0.76342122934E+01  0.61659308727E+02  0.18410146681E+03  0.17319117794E+03 0.  0.
         24    2    3    3    0    0  0.37672613241E+02  0.52885833401E+02  0.46932985370E+02  0.11414202520E+03  0.81299198257E+02 0.  0.
         -6    2    1    2    0  502 -0.61655832253E+01  0.76342122934E+01  0.24117398296E+03  0.29907467790E+03  0.17659127183E+03 0.  0.
        -24    2    5    5    0    0 -0.39261308290E+02  0.60381106763E+02  0.11944833794E+03  0.16226537795E+03  0.82914528668E+02 0.  0.
          5    1    3    3  501    0 -0.31507030016E+02 -0.60520045694E+02  0.14726323357E+02  0.69959441613E+02  0.47000000000E+01 0. -1.
        -11    1    4    4    0    0  0.46875447142E+02  0.40252898500E+02  0.65385142953E+02  0.89960103943E+02  0.00000000000E+00 0.  1.
         12    1    4    4    0    0 -0.92028339012E+01  0.12632934901E+02 -0.18452157583E+02  0.24181921253E+02  0.00000000000E+00 0. -1.
         -5    1    5    5    0  502  0.33095725064E+02 -0.52746894469E+02  0.12172564503E+03  0.13680929994E+03  0.47000000000E+01 0.  1.
         11    1    6    6    0    0  0.87487633594E+01  0.20388551112E+02 -0.52398313218E+01  0.22796703907E+02  0.00000000000E+00 0. -1.
        -12    1    6    6    0    0 -0.48010071649E+02  0.39992555651E+02  0.12468816926E+03  0.13946867405E+03  0.00000000000E+00 0.  1.
</event>
<event>
12    1  0.8416569E-002  0.1993458E+03  0.7818608E-02  0.1150508E+00
         21   -1    0    0  503  502  0.00000000000E+00  0.00000000000E+00  0.41929222612E+02  0.41929222612E+02  0.00000000000E+00 0. -1.
         21   -1    0    0  501  503 -0.00000000000E+00 -0.00000000000E+00 -0.94802150881E+03  0.94802150881E+03  0.00000000000E+00 0. -1.
          6    2    1    2  501    0  0.68028749642E+01  0.10001503009E+03 -0.48818108633E+03  0.52692964301E+03  0.17112799385E+03 0.  0.
         24    2    3    3    0    0 -0.17664718628E+02 -0.14143012826E+02 -0.19691305343E+03  0.21309867116E+03  0.78257433801E+02 0.  0.
         -6    2    1    2    0  502 -0.68028749642E+01 -0.10001503009E+03 -0.41791119986E+03  0.46302108841E+03  0.17230633182E+03 0.  0.
        -24    2    5    5    0    0 -0.60814119970E+02 -0.38712825707E+02 -0.16221558654E+03  0.19454853576E+03  0.79612789110E+02 0.  0.
          5    1    3    3  501    0  0.24467593592E+02  0.11415804292E+03 -0.29126803291E+03  0.31383097185E+03  0.47000000000E+01 0. -1.
        -13    1    4    4    0    0 -0.12144491059E+02 -0.27473530466E+02 -0.21132374106E+02  0.36726839977E+02  0.00000000000E+00 0.  1.
         14    1    4    4    0    0 -0.55202275687E+01  0.13330517640E+02 -0.17578067932E+03  0.17637183118E+03  0.00000000000E+00 0. -1.
         -5    1    5    5    0  502  0.54011245006E+02 -0.61302204386E+02 -0.25569561332E+03  0.26847255264E+03  0.47000000000E+01 0.  1.
         13    1    6    6    0    0 -0.24092354666E+02 -0.41025900671E+01 -0.13504217791E+03  0.13723579203E+03  0.00000000000E+00 0. -1.
        -14    1    6    6    0    0 -0.36721765304E+02 -0.34610235640E+02 -0.27173408628E+02  0.57312743736E+02  0.00000000000E+00 0.  1.
</event>
<event>
12    1  0.8416569E-002  0.1923355E+03  0.7818608E-02  0.1156959E+00
         21   -1    0    0  501  502  0.00000000000E+00  0.00000000000E+00  0.35892902315E+03  0.35892902315E+03  0.00000000000E+00 0.  1.
         21   -1    0    0  502  503 -0.00000000000E+00 -0.00000000000E+00 -0.11202103122E+03  0.11202103122E+03  0.00000000000E+00 0.  1.
         -6    2    1    2    0  503  0.74557826498E+02 -0.14351661910E+02  0.51077952800E+02  0.19646445899E+03  0.17385191024E+03 0.  0.
        -24    2    3    3    0    0  0.91706853583E+02  0.25973347434E+02  0.78618815588E+02  0.14449538519E+03  0.74921534996E+02 0.  0.
          6    2    1    2  501    0 -0.74557826498E+02  0.14351661910E+02  0.19583003913E+03  0.27448559538E+03  0.17671473666E+03 0.  0.
         24    2    5    5    0    0 -0.88721207931E+02  0.52650034411E+02  0.19365267953E+03  0.23332496364E+03  0.79345444162E+02 0.  0.
          5    1    5    5  501    0  0.14163381433E+02 -0.38298372501E+02  0.21773595967E+01  0.41160631733E+02  0.47000000000E+01 0. -1.
        -13    1    6    6    0    0 -0.82601134868E+01 -0.19903941128E+02  0.26909513724E+02  0.34474893417E+02  0.00000000000E+00 0.  1.
         14    1    6    6    0    0 -0.80461094444E+02  0.72553975539E+02  0.16674316581E+03  0.19885007023E+03  0.00000000000E+00 0. -1.
         -5    1    3    3    0  503 -0.17149027085E+02 -0.40325009344E+02 -0.27540862788E+02  0.51969073800E+02  0.47000000000E+01 0.  1.
         11    1    4    4    0    0  0.83763384445E+02  0.18664201399E+01  0.83899122688E+02  0.11857002524E+03  0.00000000000E+00 0. -1.
        -12    1    4    4    0    0  0.79434691377E+01  0.24106927294E+02 -0.52803070999E+01  0.25925359950E+02  0.00000000000E+00 0.  1.
</event>
<event>
12    1  0.8416569E-002  0.1931962E+03  0.7818608E-02  0.1155642E+00
         21   -1    0    0  503  502  0.00000000000E+00  0.00000000000E+00  0.37152586667E+02  0.37152586667E+02  0.00000000000E+00 0. -1.
         21   -1    0    0  501  503 -0.00000000000E+00 -0.00000000000E+00 -0.13170465725E+04  0.13170465725E+04  0.00000000000E+00 0. -1.
          6    2    1    2  501    0  0.43743240813E+02  0.78566364149E+02 -0.96993686455E+03  0.98896197625E+03  0.17082776285E+03 0.  0.
         24    2    3    3    0    0 -0.38091579496E+02  0.42240729476E+02 -0.33364779618E+03  0.34638718833E+03  0.73674857885E+02 0.  0.
         -6    2    1    2    0  502 -0.43743240813E+02 -0.78566364149E+02 -0.30995712125E+03  0.36523718288E+03  0.17099309359E+03 0.  0.
        -24    2    5    5    0    0  0.22159789987E+02 -0.86748159669E+02 -0.24352842007E+03  0.27118925049E+03  0.78874702550E+02 0.  0.
          5    1    3    3  501    0  0.81834820309E+02  0.36325634673E+02 -0.63628906837E+03  0.64257478793E+03  0.47000000000E+01 0. -1.
        -13    1    4    4    0    0 -0.33822415705E+01 -0.17797040062E+02 -0.31084341740E+02  0.35977916760E+02  0.00000000000E+00 0.  1.
         14    1    4    4    0    0 -0.34709337926E+02  0.60037769537E+02 -0.30256345444E+03  0.31040927157E+03  0.00000000000E+00 0. -1.
         -5    1    5    5    0  502 -0.65903030800E+02  0.81817955197E+01 -0.66428701174E+02  0.94047932387E+02  0.47000000000E+01 0.  1.
         11    1    6    6    0    0 -0.24616136126E+01 -0.54384178837E+02 -0.21430820721E+03  0.22111468998E+03  0.00000000000E+00 0. -1.
        -12    1    6    6    0    0  0.24621403600E+02 -0.32363980832E+02 -0.29220212863E+02  0.50074560510E+02  0.00000000000E+00 0.  1.
</event>
<event>
12    1  0.8416569E-002  0.2453129E+03  0.7818608E-02  0.1116376E+00
         21   -1    0    0  503  502  0.00000000000E+00  0.00000000000E+00  0.13782448032E+04  0.13782448032E+04  0.00000000000E+00 0.  1.
         21   -1    0    0  501  503 -0.00000000000E+00 -0.00000000000E+00 -0.59575433589E+02  0.59575433589E+02  0.00000000000E+00 0. -1.
          6    2    1    2  501    0 -0.14174015483E+03 -0.10178731902E+03  0.28642834137E+03  0.37683015343E+03  0.17178137264E+03 0.  0.
         24    2    3    3    0    0 -0.10717478134E+03 -0.65721048729E+02  0.84607088442E+02  0.16886513466E+03  0.74507612281E+02 0.  0.
         -6    2    1    2    0  502  0.14174015483E+03  0.10178731902E+03  0.10322410282E+04  0.10609900833E+04  0.17241660825E+03 0.  0.
        -24    2    5    5    0    0  0.13194986760E+03  0.79367749984E+02  0.10182553671E+04  0.10324212976E+04  0.73073496034E+02 0.  0.
          5    1    3    3  501    0 -0.34565373496E+02 -0.36066270293E+02  0.20182125293E+03  0.20796501877E+03  0.47000000000E+01 0. -1.
        -13    1    4    4    0    0 -0.10226890634E+02 -0.37084183613E+02  0.23540945639E+01  0.38540468699E+02  0.00000000000E+00 0.  1.
         14    1    4    4    0    0 -0.96947890705E+02 -0.28636865116E+02  0.82252993878E+02  0.13032466596E+03  0.00000000000E+00 0. -1.
         -5    1    5    5    0  502  0.97902872386E+01  0.22419569039E+02  0.13985661072E+02  0.28568785688E+02  0.47000000000E+01 0.  1.
         13    1    6    6    0    0  0.50408098218E+02  0.40940182388E+02  0.65241719447E+03  0.65564111413E+03  0.00000000000E+00 0. -1.
        -14    1    6    6    0    0  0.81541769378E+02  0.38427567596E+02  0.36583817267E+03  0.37678018351E+03  0.00000000000E+00 0.  1.
</event>
<event>
12    1  0.8416569E-002  0.2128944E+03  0.7818608E-02  0.1139321E+00
         21   -1    0    0  501  502  0.00000000000E+00  0.00000000000E+00  0.11875059547E+04  0.11875059547E+04  0.00000000000E+00 0.  1.
         21   -1    0    0  502  503 -0.00000000000E+00 -0.00000000000E+00 -0.62371798451E+02  0.62371798451E+02  0.00000000000E+00 0.  1.
         -6    2    1    2    0  503 -0.12360787272E+03 -0.21667327450E+02  0.17317540947E+03  0.27443353803E+03  0.17197576886E+03 0.  0.
        -24    2    3    3    0    0 -0.93789785661E+02 -0.17154940521E+02  0.19869560965E+03  0.23464848345E+03  0.80555258116E+02 0.  0.
          6    2    1    2  501    0  0.12360787272E+03  0.21667327450E+02  0.95195874678E+03  0.97544421512E+03  0.17180681583E+03 0.  0.
         24    2    5    5    0    0  0.11950111690E+03  0.23884707270E+02  0.95642776030E+03  0.96745395240E+03  0.79762730444E+02 0.  0.
          5    1    5    5  501    0  0.41067558199E+01 -0.22173798203E+01 -0.44690135123E+01  0.79902627244E+01  0.47000000000E+01 0. -1.
        -13    1    6    6    0    0  0.71150558539E+02  0.43287229613E+02  0.39914429293E+03  0.40774054594E+03  0.00000000000E+00 0.  1.
         14    1    6    6    0    0  0.48350558356E+02 -0.19402522343E+02  0.55728346737E+03  0.55971340646E+03  0.00000000000E+00 0. -1.
         -5    1    3    3    0  503 -0.29818087054E+02 -0.45123869288E+01 -0.25520200179E+02  0.39785054588E+02  0.47000000000E+01 0.  1.
         13    1    4    4    0    0 -0.18354925957E+02 -0.41307920058E+02  0.63226663976E+02  0.77722960597E+02  0.00000000000E+00 0. -1.
        -14    1    4    4    0    0 -0.75434859704E+02  0.24152979537E+02  0.13546894568E+03  0.15692552285E+03  0.00000000000E+00 0.  1.
</event>
<event>
12    1  0.8416569E-002  0.2419057E+03  0.7818608E-02  0.1118733E+00
         21   -1    0    0  503  502  0.00000000000E+00  0.00000000000E+00  0.90683958539E+03  0.90683958539E+03  0.00000000000E+00 0. -1.
         21   -1    0    0  501  503 -0.00000000000E+00 -0.00000000000E+00 -0.67402865369E+02  0.67402865369E+02  0.00000000000E+00 0. -1.
          6    2    1    2  501    0  0.16113023997E+03 -0.51121720935E+02  0.52485166622E+03  0.57740225697E+03  0.17131173411E+03 0.  0.
         24    2    3    3    0    0  0.16625835670E+02 -0.47541454773E+01  0.15011668667E+03  0.17307581731E+03  0.84387194586E+02 0.  0.
         -6    2    1    2    0  502 -0.16113023997E+03  0.51121720935E+02  0.31458505381E+03  0.39684019379E+03  0.17303756454E+03 0.  0.
        -24    2    5    5    0    0 -0.62566916178E+02  0.89714234635E+02  0.19176229075E+03  0.23463158725E+03  0.79472905352E+02 0.  0.
          5    1    3    3  501    0  0.14450440430E+03 -0.46367575458E+02  0.37473497954E+03  0.40432643966E+03  0.47000000000E+01 0. -1.
        -13    1    4    4    0    0 -0.79584412704E+01 -0.24530794599E+02  0.13615030781E+03  0.13857129208E+03  0.00000000000E+00 0.  1.
         14    1    4    4    0    0  0.24584276940E+02  0.19776649121E+02  0.13966378861E+02  0.34504525234E+02  0.00000000000E+00 0. -1.
         -5    1    5    5    0  502 -0.98563323791E+02 -0.38592513699E+02  0.12282276306E+03  0.16220860654E+03  0.47000000000E+01 0.  1.
         11    1    6    6    0    0 -0.28661904051E+02  0.33127591998E+02  0.15067965512E+03  0.15691813331E+03  0.00000000000E+00 0. -1.
        -12    1    6    6    0    0 -0.33905012128E+02  0.56586642637E+02  0.41082635630E+02  0.77713453935E+02  0.00000000000E+00 0.  1.
</event>
<event>
12    1  0.8416569E-002  0.2113829E+03  0.7818608E-02  0.1140678E+00
         21   -1    0    0  501  502  0.00000000000E+00  0.00000000000E+00  0.48065454958E+03  0.48065454958E+03  0.00000000000E+00 0.  1.
         21   -1    0    0  502  503 -0.00000000000E+00 -0.00000000000E+00 -0.12882435741E+03  0.12882435741E+03  0.00000000000E+00 0.  1.
         -6    2    1    2    0  503  0.15133893607E+02 -0.12202414126E+03  0.14426928446E+02  0.21187461964E+03  0.17194124693E+03 0.  0.
        -24    2    3    3    0    0  0.61205087677E+02 -0.25856458061E+02 -0.34070785903E+01  0.10365761533E+03  0.79490086488E+02 0.  0.
          6    2    1    2  501    0 -0.15133893607E+02  0.12202414126E+03  0.33740326372E+03  0.39760428735E+03  0.17067302411E+03 0.  0.
         24    2    5    5    0    0  0.17862567917E+02  0.13990661070E+03  0.21254459581E+03  0.26714231534E+03  0.79352885198E+02 0.  0.
          5    1    5    5  501    0 -0.32996461524E+02 -0.17882469437E+02  0.12485866792E+03  0.13046197201E+03  0.47000000000E+01 0. -1.
        -11    1    6    6    0    0 -0.13708069850E+02  0.12506334525E+03  0.17862324955E+03  0.21848344739E+03  0.00000000000E+00 0.  1.
         12    1    6    6    0    0  0.31570637767E+02  0.14843265444E+02  0.33921346258E+02  0.48658867948E+02  0.00000000000E+00 0. -1.
         -5    1    3    3    0  503 -0.46071194070E+02 -0.96167683199E+02  0.17834007036E+02  0.10821700431E+03  0.47000000000E+01 0.  1.
         11    1    4    4    0    0  0.24238711439E+02 -0.14753938711E+02  0.37755155250E+02  0.47229710857E+02  0.00000000000E+00 0. -1.
        -12    1    4    4    0    0  0.36966376239E+02 -0.11102519349E+02 -0.41162233841E+02  0.56427904470E+02  0.00000000000E+00 0.  1.
</event>
<event>
12    1  0.8416569E-002  0.1898325E+03  0.7818608E-02  0.1159038E+00
         21   -1    0    0  501  502  0.00000000000E+00  0.00000000000E+00  0.58851213303E+03  0.58851213303E+03  0.00000000000E+00 0. -1.
         21   -1    0    0  502  503 -0.00000000000E+00 -0.00000000000E+00 -0.90657911907E+02  0.90657911907E+02  0.00000000000E+00 0. -1.
         -6    2    1    2    0  503  0.65244921369E+02  0.45476046394E+02  0.52666851858E+02  0.19519880578E+03  0.17030503789E+03 0.  0.
        -24    2    3    3    0    0  0.97909019629E+02  0.69570086449E+02  0.24866275527E+02  0.14577787776E+03  0.78782516672E+02 0.  0.
          6    2    1    2  501    0 -0.65244921369E+02 -0.45476046394E+02  0.44518736926E+03  0.48397123916E+03  0.17236993944E+03 0.  0.
         24    2    5    5    0    0 -0.99229814888E+02 -0.49033393200E+02  0.41859297722E+03  0.44041691226E+03  0.80598673770E+02 0.  0.
          5    1    5    5  501    0  0.33984893519E+02  0.35573468061E+01  0.26594392046E+02  0.43554326904E+02  0.47000000000E+01 0. -1.
        -11    1    6    6    0    0 -0.53662406431E+02  0.14118748125E+02  0.12677819511E+03  0.13838968050E+03  0.00000000000E+00 0.  1.
         12    1    6    6    0    0 -0.45567408456E+02 -0.63152141326E+02  0.29181478211E+03  0.30202723176E+03  0.00000000000E+00 0. -1.
         -5    1    3    3    0  503 -0.32664098260E+02 -0.24094040054E+02  0.27800576331E+02  0.49420928013E+02  0.47000000000E+01 0.  1.
         11    1    4    4    0    0 -0.52802550664E+01  0.26896209033E+02  0.20139103205E+02  0.34012800999E+02  0.00000000000E+00 0. -1.
        -12    1    4    4    0    0  0.10318927470E+03  0.42673877416E+02  0.47271723228E+01  0.11176507676E+03  0.00000000000E+00 0.  1.
</event>
<event>
12    1  0.8416569E-002  0.2048189E+03  0.7818608E-02  0.1145791E+00
         21   -1    0    0  501  502  0.00000000000E+00  0.00000000000E+00  0.10206169120E+03  0.10206169120E+03  0.00000000000E+00 0.  1.
         21   -1    0    0  502  503 -0.00000000000E+00 -0.00000000000E+00 -0.58298039070E+03  0.58298039070E+03  0.00000000000E+00 0.  1.
         -6    2    1    2    0  503 -0.81775213749E+02 -0.75333720464E+02 -0.42687957884E+03  0.47347328307E+03  0.17201284814E+03 0.  0.
        -24    2    3    3    0    0 -0.99636355927E+02 -0.12209858712E+02 -0.21021064233E+03  0.24704192400E+03  0.82247881377E+02 0.  0.
          6    2    1    2  501    0  0.81775213749E+02  0.75333720464E+02 -0.54039120664E+02  0.21156879884E+03  0.17169384105E+03 0.  0.
         24    2    5    5    0    0  0.68200525142E+02  0.77157991584E+02 -0.99713165476E+02  0.16365420288E+03  0.78964013685E+02 0.  0.
          5    1    5    5  501    0  0.13574688607E+02 -0.18242711203E+01  0.45674044811E+02  0.47914595953E+02  0.47000000000E+01 0. -1.
        -11    1    6    6    0    0  0.84717372644E+02  0.59111340820E+02 -0.68300883141E+02  0.12383938985E+03  0.00000000000E+00 0.  1.
         12    1    6    6    0    0 -0.16516847502E+02  0.18046650764E+02 -0.31412282335E+02  0.39814813031E+02  0.00000000000E+00 0. -1.
         -5    1    3    3    0  503  0.17861142177E+02 -0.63123861752E+02 -0.21666893651E+03  0.22643135907E+03  0.47000000000E+01 0.  1.
         13    1    4    4    0    0 -0.43421670510E+01  0.23893537092E+02 -0.67083059197E+02  0.71343481557E+02  0.00000000000E+00 0. -1.
        -14    1    4    4    0    0 -0.95294188876E+02 -0.36103395804E+02 -0.14312758314E+03  0.17569844244E+03  0.00000000000E+00 0.  1.
</event>
<event>
12    1  0.8416569E-002  0.2261080E+03  0.7818608E-02  0.1129685E+00
         21   -1    0    0  501  502  0.00000000000E+00  0.00000000000E+00  0.19916102041E+03  0.19916102041E+03  0.00000000000E+00 0. -1.
         21   -1    0    0  502  503 -0.00000000000E+00 -0.00000000000E+00 -0.26135222503E+03  0.26135222503E+03  0.00000000000E+00 0.  1.
         -6    2    1    2    0  503  0.13421247521E+03 -0.58424011884E+02  0.47861195677E+01  0.22615860399E+03  0.17233239263E+03 0.  0.
        -24    2    3    3    0    0  0.96459682396E+02 -0.10599725785E+03  0.63503186919E+01  0.16522401762E+03  0.81968045299E+02 0.  0.
          6    2    1    2  501    0 -0.13421247521E+03  0.58424011884E+02 -0.66977324186E+02  0.23435464144E+03  0.17032258319E+03 0.  0.
         24    2    5    5    0    0 -0.12836872648E+03  0.57494414605E+01 -0.90328413199E+02  0.17625022572E+03  0.79958325516E+02 0.  0.
          5    1    5    5  501    0 -0.58437487292E+01  0.52674570424E+02  0.23351089013E+02  0.58104415724E+02  0.47000000000E+01 0. -1.
        -13    1    6    6    0    0 -0.18859020927E+01 -0.12776682391E+02 -0.34351317199E+02  0.36698954112E+02  0.00000000000E+00 0.  1.
         14    1    6    6    0    0 -0.12648282439E+03  0.18526123852E+02 -0.55977096000E+02  0.13955127161E+03  0.00000000000E+00 0. -1.
         -5    1    3    3    0  503  0.37752792816E+02  0.47573245968E+02 -0.15641991242E+01  0.60934586372E+02  0.47000000000E+01 0.  1.
         13    1    4    4    0    0 -0.24639941561E+01  0.11323271277E+02 -0.62880331483E+00  0.11605306252E+02  0.00000000000E+00 0. -1.
        -14    1    4    4    0    0  0.98923676552E+02 -0.11732052913E+03  0.69791220068E+01  0.15361871137E+03  0.00000000000E+00 0.  1.
</event>
<event>
12    1  0.8416569E-002  0.2028305E+03  0.7818608E-02  0.1147811E+00
         21   -1    0    0  503  502  0.00000000000E+00  0.00000000000E+00  0.25992046929E+03  0.25992046929E+03  0.00000000000E+00 0. -1.
         21   -1    0    0  501  503 -0.00000000000E+00 -0.00000000000E+00 -0.16773838265E+03  0.16773838265E+03  0.00000000000E+00 0. -1.
          6    2    1    2  501    0  0.98043022255E+02 -0.33142274126E+02 -0.86851930937E+01  0.20301632167E+03  0.17444010359E+03 0.  0.
         24    2    3    3    0    0  0.44667131951E+02 -0.37771952789E+02  0.60826050764E+02  0.11512819612E+03  0.78312323401E+02 0.  0.
         -6    2    1    2    0  502 -0.98043022255E+02  0.33142274126E+02  0.10086727973E+03  0.22464253026E+03  0.17198608587E+03 0.  0.
        -24    2    5    5    0    0 -0.11736703957E+03  0.48824956642E+02  0.12120290355E+03  0.19216189338E+03  0.77956084237E+02 0.  0.
          5    1    3    3  501    0  0.53375890304E+02  0.46296786629E+01 -0.69511243858E+02  0.87888125551E+02  0.47000000000E+01 0. -1.
        -11    1    4    4    0    0  0.61961897462E+02 -0.14387284016E+02  0.57690003033E+02  0.85874368285E+02  0.00000000000E+00 0.  1.
         12    1    4    4    0    0 -0.17294765511E+02 -0.23384668773E+02  0.31360477310E+01  0.29253827836E+02  0.00000000000E+00 0. -1.
         -5    1    5    5    0  502  0.19324017319E+02 -0.15682682516E+02 -0.20335623815E+02  0.32480636881E+02  0.47000000000E+01 0.  1.
         13    1    6    6    0    0 -0.51510021447E+02 -0.88256231918E+00  0.90477084547E+02  0.10411610852E+03  0.00000000000E+00 0. -1.
        -14    1    6    6    0    0 -0.65857018127E+02  0.49707518961E+02  0.30725819000E+02  0.88045784857E+02  0.00000000000E+00 0.  1.
</event>
<event>
12    1  0.8416569E-002  0.1784802E+03  0.7818608E-02  0.1169626E+00
         21   -1    0    0  501  502  0.00000000000E+00  0.00000000000E+00  0.89359682438E+02  0.89359682438E+02  0.00000000000E+00 0. -1.
         21   -1    0    0  502  503 -0.00000000000E+00 -0.00000000000E+00 -0.35734124324E+03  0.35734124324E+03  0.00000000000E+00 0. -1.
         -6    2    1    2    0  503 -0.33912855763E+02 -0.42807134442E+02 -0.11193481386E+03  0.21067653107E+03  0.16991958582E+03 0.  0.
        -24    2    3    3    0    0  0.37423643905E+02 -0.55890602838E+02 -0.80521883922E+02  0.13149992154E+03  0.79272737839E+02 0.  0.
          6    2    1    2  501    0  0.33912855763E+02  0.42807134442E+02 -0.15604674695E+03  0.23602439461E+03  0.16844700969E+03 0.  0.
         24    2    5    5    0    0  0.77460187019E+02  0.28260049954E+02 -0.15136260209E+03  0.18963453646E+03  0.79069014857E+02 0.  0.
          5    1    5    5  501    0 -0.43547331256E+02  0.14547084487E+02 -0.46841448621E+01  0.46389858155E+02  0.47000000000E+01 0. -1.
        -13    1    6    6    0    0 -0.96137033586E+01  0.60040976077E+01 -0.61523048384E+02  0.62558436384E+02  0.00000000000E+00 0.  1.
         14    1    6    6    0    0  0.87073890377E+02  0.22255952346E+02 -0.89839553705E+02  0.12707610007E+03  0.00000000000E+00 0. -1.
         -5    1    3    3    0  503 -0.71336499669E+02  0.13083468397E+02 -0.31412929933E+02  0.79176609533E+02  0.47000000000E+01 0.  1.
         13    1    4    4    0    0 -0.13833173863E+02 -0.12083153485E+02  0.81580315668E+01  0.20097581355E+02  0.00000000000E+00 0. -1.
        -14    1    4    4    0    0  0.51256817768E+02 -0.43807449353E+02 -0.88679915489E+02  0.11140234018E+03  0.00000000000E+00 0.  1.
</event>
<event>
12    1  0.8416569E-002  0.2124931E+03  0.7818608E-02  0.1140240E+00
         21   -1    0    0  503  502  0.00000000000E+00  0.00000000000E+00  0.14197404582E+03  0.14197404582E+03  0.00000000000E+00 0. -1.
         21   -1    0    0  501  503 -0.00000000000E+00 -0.00000000000E+00 -0.97506298758E+03  0.97506298758E+03  0.00000000000E+00 0. -1.
          6    2    1    2  501    0 -0.87352098181E+02  0.77697957957E+02 -0.87566205608E+03  0.90032109289E+03  0.17357036646E+03 0.  0.
         24    2    3    3    0    0 -0.11414385980E+03  0.60301383176E+02 -0.49039498625E+03  0.51370339490E+03  0.82090546632E+02 0.  0.
         -6    2    1    2    0  502  0.87352098181E+02 -0.77697957957E+02  0.42573114310E+02  0.21671594051E+03  0.17744285582E+03 0.  0.
        -24    2    5    5    0    0  0.24418382262E+02 -0.30748312397E+02 -0.39085538433E+02  0.10333539815E+03  0.87228487833E+02 0.  0.
          5    1    3    3  501    0  0.26791761620E+02  0.17396574781E+02 -0.38526706983E+03  0.38661769799E+03  0.47000000000E+01 0. -1.
        -11    1    4    4    0    0  0.62646899116E+01 -0.10500941588E+02 -0.59148091286E+02  0.60398781583E+02  0.00000000000E+00 0.  1.
         12    1    4    4    0    0 -0.12040854971E+03  0.70802324764E+02 -0.43124689497E+03  0.45330461332E+03  0.00000000000E+00 0. -1.
         -5    1    5    5    0  502  0.62933715919E+02 -0.46949645560E+02  0.81658652743E+02  0.11338054236E+03  0.47000000000E+01 0.  1.
         11    1    6    6    0    0 -0.32689069570E+01  0.26072782897E+02  0.43603079135E+01  0.26636216807E+02  0.00000000000E+00 0. -1.
        -12    1    6    6    0    0  0.27687289219E+02 -0.56821095294E+02 -0.43445846346E+02  0.76699181348E+02  0.00000000000E+00 0.  1.
</event>
<event>
12    1  0.8416569E-002  0.2053119E+03  0.7818608E-02  0.1147101E+00
         21   -1    0    0  503  502  0.00000000000E+00  0.00000000000E+00  0.11713266242E+03  0.11713266242E+03  0.00000000000E+00 0.  1.
         21   -1    0    0  501  503 -0.00000000000E+00 -0.00000000000E+00 -0.50512131567E+03  0.50512131567E+03  0.00000000000E+00 0. -1.
          6    2    1    2  501    0 -0.82446393066E+02 -0.48286261103E+02 -0.36625292054E+03  0.41579477728E+03  0.17209045374E+03 0.  0.
         24    2    3    3    0    0 -0.62260295678E+02  0.24387730151E+02 -0.10807446562E+03  0.14678326801E+03  0.73444753727E+02 0.  0.
         -6    2    1    2    0  502  0.82446393066E+02  0.48286261103E+02 -0.21735732711E+02  0.20645920081E+03  0.18172503619E+03 0.  0.
        -24    2    5    5    0    0  0.10808492352E+03 -0.15974883950E+02 -0.36246914826E+01  0.13478682941E+03  0.78846708135E+02 0.  0.
          5    1    3    3  501    0 -0.20186097388E+02 -0.72673991254E+02 -0.25817845492E+03  0.26901150927E+03  0.47000000000E+01 0. -1.
        -11    1    4    4    0    0 -0.12656559104E+02  0.34384343771E+02 -0.12630908881E+02  0.38755792393E+02  0.00000000000E+00 0.  1.
         12    1    4    4    0    0 -0.49603736574E+02 -0.99966136199E+01 -0.95443556738E+02  0.10802747562E+03  0.00000000000E+00 0. -1.
         -5    1    5    5    0  502 -0.25638530454E+02  0.64261145053E+02 -0.18111041229E+02  0.71672371398E+02  0.47000000000E+01 0.  1.
         13    1    6    6    0    0 -0.35792125380E+01 -0.21800500659E+02 -0.61840104820E+01  0.22941546962E+02  0.00000000000E+00 0. -1.
        -14    1    6    6    0    0  0.11166413606E+03  0.58256167085E+01  0.25593189994E+01  0.11184528245E+03  0.00000000000E+00 0.  1.
</event>
<event>
12    1  0.8416569E-002  0.1990468E+03  0.7818608E-02  0.1150715E+00
         21   -1    0    0  503  502  0.00000000000E+00  0.00000000000E+00  0.39438708984E+03  0.39438708984E+03  0.00000000000E+00 0. -1.
         21   -1    0    0  501  503 -0.00000000000E+00 -0.00000000000E+00 -0.13835658226E+03  0.13835658226E+03  0.00000000000E+00 0. -1.
          6    2    1    2  501    0 -0.49907540397E+02  0.85634803626E+02 -0.12315206156E+02  0.19863434825E+03  0.17169699421E+03 0.  0.
         24    2    3    3    0    0 -0.66390705962E+02  0.14307453594E+02  0.35349625591E+02  0.11115113961E+03  0.80576365887E+02 0.  0.
         -6    2    1    2    0  502  0.49907540397E+02 -0.85634803626E+02  0.26834571374E+03  0.33410932385E+03  0.17261383496E+03 0.  0.
        -24    2    5    5    0    0  0.34456773317E+02 -0.95193215987E+02  0.28302394210E+03  0.31028434037E+03  0.76972738544E+02 0.  0.
          5    1    3    3  501    0  0.16483165566E+02  0.71327350031E+02 -0.47664831748E+02  0.87483208646E+02  0.47000000000E+01 0. -1.
        -13    1    4    4    0    0 -0.30766088168E+01 -0.27906076223E+02  0.17183816807E+02  0.32916533415E+02  0.00000000000E+00 0.  1.
         14    1    4    4    0    0 -0.63314097145E+02  0.42213529817E+02  0.18165808784E+02  0.78234606190E+02  0.00000000000E+00 0. -1.
         -5    1    5    5    0  502  0.15450767080E+02  0.95584123611E+01 -0.14678228359E+02  0.23824983483E+02  0.47000000000E+01 0.  1.
         13    1    6    6    0    0  0.50673791940E+02 -0.52949788007E+02  0.22540848647E+03  0.23702425828E+03  0.00000000000E+00 0. -1.
        -14    1    6    6    0    0 -0.16217018623E+02 -0.42243427980E+02  0.57615455628E+02  0.73260082089E+02  0.00000000000E+00 0.  1.
</event>
<event>
12    1  0.8416569E-002  0.2750155E+03  0.7818608E-02  0.1098552E+00
         21   -1    0    0  501  502  0.00000000000E+00  0.00000000000E+00  0.20767061858E+03  0.20767061858E+03  0.00000000000E+00 0. -1.
         21   -1    0    0  502  503 -0.00000000000E+00 -0.00000000000E+00 -0.37504996911E+03  0.37504996911E+03  0.00000000000E+00 0. -1.
         -6    2    1    2    0  503 -0.80588885651E+02  0.19901571702E+03 -0.31941404865E+02  0.27686420428E+03  0.17184792740E+03 0.  0.
        -24    2    3    3    0    0 -0.80311910581E+02  0.17980825889E+03 -0.78110368922E+02  0.22663805168E+03  0.80514370063E+02 0.  0.
          6    2    1    2  501    0  0.80588885651E+02 -0.19901571702E+03 -0.13543794566E+03  0.30585638341E+03  0.17059562138E+03 0.  0.
         24    2    5    5    0    0  0.59017773749E+01 -0.62564431902E+02 -0.60633642615E+00  0.99946766823E+02  0.77716468262E+02 0.  0.
          5    1    5    5  501    0  0.74687108276E+02 -0.13645128512E+03 -0.13483160924E+03  0.20590961659E+03  0.47000000000E+01 0. -1.
        -13    1    6    6    0    0  0.50781041034E+01  0.18323364816E+02  0.97955428805E+00  0.19039232286E+02  0.00000000000E+00 0.  1.
         14    1    6    6    0    0  0.82367327145E+00 -0.80887796717E+02 -0.15858907142E+01  0.80907534537E+02  0.00000000000E+00 0. -1.
         -5    1    3    3    0  503 -0.27697506925E+00  0.19207458129E+02  0.46168964057E+02  0.50226152601E+02  0.47000000000E+01 0.  1.
         11    1    4    4    0    0 -0.11341935385E+02  0.88951398195E+02 -0.23505281071E+01  0.89702372998E+02  0.00000000000E+00 0. -1.
        -12    1    4    4    0    0 -0.68969975196E+02  0.90856860698E+02 -0.75759840815E+02  0.13693567868E+03  0.00000000000E+00 0.  1.
</event>
<event>
12    1  0.8416569E-002  0.2220596E+03  0.7818608E-02  0.1132510E+00
         21   -1    0    0  501  502  0.00000000000E+00  0.00000000000E+00  0.50176528496E+03  0.50176528496E+03  0.00000000000E+00 0.  1.
         21   -1    0    0  502  503 -0.00000000000E+00 -0.00000000000E+00 -0.10483213121E+03  0.10483213121E+03  0.00000000000E+00 0.  1.
         -6    2    1    2    0  503  0.13511412045E+03 -0.38341535052E+02  0.12085479317E+03  0.25281682803E+03  0.17200165304E+03 0.  0.
        -24    2    3    3    0    0  0.13906040997E+02  0.28952016114E+02  0.37486594777E+02  0.90976885318E+02  0.76419576425E+02 0.  0.
          6    2    1    2  501    0 -0.13511412045E+03  0.38341535052E+02  0.27607836058E+03  0.35378058815E+03  0.17092555255E+03 0.  0.
         24    2    5    5    0    0 -0.15840179816E+03  0.61123790680E+02  0.22817086237E+03  0.29565515920E+03  0.80763749793E+02 0.  0.
          5    1    5    5  501    0  0.23287677716E+02 -0.22782255628E+02  0.47907498218E+02  0.58125428948E+02  0.47000000000E+01 0. -1.
        -13    1    6    6    0    0 -0.35110240748E+02 -0.16119882815E+02  0.25968681251E+02  0.46550532041E+02  0.00000000000E+00 0.  1.
         14    1    6    6    0    0 -0.12329155742E+03  0.77243673494E+02  0.20220218111E+03  0.24910462716E+03  0.00000000000E+00 0. -1.
         -5    1    3    3    0  503  0.12120807945E+03 -0.67293551166E+02  0.83368198392E+02  0.16183994271E+03  0.47000000000E+01 0.  1.
         13    1    4    4    0    0 -0.16819469165E+02 -0.72469739970E+01 -0.12391816593E+02  0.22112672692E+02  0.00000000000E+00 0. -1.
        -14    1    4    4    0    0  0.30725510162E+02  0.36198990111E+02  0.49878411370E+02  0.68864212626E+02  0.00000000000E+00 0.  1.
</event>
<event>
12    1  0.8416569E-002  0.1974078E+03  0.7818608E-02  0.1152636E+00
         21   -1    0    0  501  502  0.00000000000E+00  0.00000000000E+00  0.48947235736E+03  0.48947235736E+03  0.00000000000E+00 0. -1.
         21   -1    0    0  502  503 -0.00000000000E+00 -0.00000000000E+00 -0.17999522818E+03  0.17999522818E+03  0.00000000000E+00 0.  1.
         -6    2    1    2    0  503 -0.72863026085E+02  0.56058302013E+02 -0.96272151004E+02  0.21963186670E+03  0.17469480821E+03 0.  0.
        -24    2    3    3    0    0 -0.91832992947E+02  0.78796595477E+02 -0.11444322908E+03  0.18457237853E+03  0.79545635853E+02 0.  0.
          6    2    1    2  501    0  0.72863026085E+02 -0.56058302013E+02  0.40574928018E+03  0.44983571884E+03  0.17107934352E+03 0.  0.
         24    2    5    5    0    0  0.50754652880E+01 -0.21822906273E+02  0.33678140649E+03  0.34714261624E+03  0.81143580543E+02 0.  0.
          5    1    5    5  501    0  0.67787560797E+02 -0.34235395741E+02  0.68967873693E+02  0.10269310260E+03  0.47000000000E+01 0. -1.
        -11    1    6    6    0    0  0.18131587660E+02  0.27516986454E+02  0.12096213985E+03  0.12537056389E+03  0.00000000000E+00 0.  1.
         12    1    6    6    0    0 -0.13056122372E+02 -0.49339892727E+02  0.21581926665E+03  0.22177205234E+03  0.00000000000E+00 0. -1.
         -5    1    3    3    0  503  0.18969966862E+02 -0.22738293464E+02  0.18171078073E+02  0.35059488170E+02  0.47000000000E+01 0.  1.
         11    1    4    4    0    0 -0.57528377072E+02  0.85028275907E+02 -0.57129553358E+02  0.11748662792E+03  0.00000000000E+00 0. -1.
        -12    1    4    4    0    0 -0.34304615875E+02 -0.62316804302E+01 -0.57313675719E+02  0.67085750616E+02  0.00000000000E+00 0.  1.
</event>
<event>
12    1  0.8416569E-002  0.1866382E+03  0.7818608E-02  0.1163421E+00
         21   -1    0    0  501  502  0.00000000000E+00  0.00000000000E+00  0.13155454095E+03  0.13155454095E+03  0.00000000000E+00 0. -1.
         21   -1    0    0  502  503 -0.00000000000E+00 -0.00000000000E+00 -0.40631134192E+03  0.40631134192E+03  0.00000000000E+00 0. -1.
         -6    2    1    2    0  503 -0.27859067146E+02 -0.38172767043E+02 -0.30413628445E+03  0.35683706631E+03  0.18055615361E+03 0.  0.
        -24    2    3    3    0    0  0.21832948310E+02 -0.55362172628E+02 -0.28223489133E+03  0.29968347426E+03  0.81314224253E+02 0.  0.
          6    2    1    2  501    0  0.27859067146E+02  0.38172767043E+02  0.29379483478E+02  0.18102881655E+03  0.17226430451E+03 0.  0.
         24    2    5    5    0    0  0.35518516863E+02 -0.47429756966E+02 -0.32093739089E+01  0.88993046808E+02  0.66319796541E+02 0.  0.
          5    1    5    5  501    0 -0.76594497170E+01  0.85602524009E+02  0.32588857387E+02  0.92035769745E+02  0.47000000000E+01 0. -1.
        -13    1    6    6    0    0  0.47851889885E+02 -0.18583368379E+02 -0.17881974162E+02  0.54359083379E+02  0.00000000000E+00 0.  1.
         14    1    6    6    0    0 -0.12333373022E+02 -0.28846388586E+02  0.14672600253E+02  0.34633963429E+02  0.00000000000E+00 0. -1.
         -5    1    3    3    0  503 -0.49692015456E+02  0.17189405585E+02 -0.21901393120E+02  0.57153592057E+02  0.47000000000E+01 0.  1.
         11    1    4    4    0    0  0.32277295558E+02 -0.44410271105E+01 -0.19827957581E+03  0.20093863918E+03  0.00000000000E+00 0. -1.
        -12    1    4    4    0    0 -0.10444347248E+02 -0.50921145518E+02 -0.83955315522E+02  0.98744835078E+02  0.00000000000E+00 0.  1.
</event>
<event>
12    1  0.8416569E-002  0.2855356E+03  0.7818608E-02  0.1092765E+00
         21   -1    0    0  501  502  0.00000000000E+00  0.00000000000E+00  0.31124395436E+03  0.31124395436E+03  0.00000000000E+00 0.  1.
         21   -1    0    0  502  503 -0.00000000000E+00 -0.00000000000E+00 -0.27142260067E+03  0.27142260067E+03  0.00000000000E+00 0. -1.
         -6    2    1    2    0  503  0.16142728473E+03 -0.15452560705E+03 -0.35708387012E+02  0.28775972545E+03  0.17774599630E+03 0.  0.
        -24    2    3    3    0    0  0.43705228335E+02 -0.74174221382E+02 -0.76132676254E+02  0.13953340896E+03  0.79129171114E+02 0.  0.
          6    2    1    2  501    0 -0.16142728473E+03  0.15452560705E+03  0.75529740704E+02  0.29490682957E+03  0.17699820594E+03 0.  0.
         24    2    5    5    0    0 -0.23882594371E+02  0.52325168609E+02 -0.17457114236E+02  0.99888582589E+02  0.79778922720E+02 0.  0.
          5    1    5    5  501    0 -0.13754469036E+03  0.10220043844E+03  0.92986854940E+02  0.19501824698E+03  0.47000000000E+01 0. -1.
        -11    1    6    6    0    0  0.23244312516E+02  0.14438612325E+02  0.15057905741E+02  0.31233189327E+02  0.00000000000E+00 0.  1.
         12    1    6    6    0    0 -0.47126906887E+02  0.37886556284E+02 -0.32515019977E+02  0.68655393262E+02  0.00000000000E+00 0. -1.
         -5    1    3    3    0  503  0.11772205640E+03 -0.80351385664E+02  0.40424289242E+02  0.14822631649E+03  0.47000000000E+01 0.  1.
         13    1    4    4    0    0  0.61185717484E+02 -0.32510727553E+02 -0.59690358851E+02  0.91452601767E+02  0.00000000000E+00 0. -1.
        -14    1    4    4    0    0 -0.17480489149E+02 -0.41663493829E+02 -0.16442317403E+02  0.48080807195E+02  0.00000000000E+00 0.  1.
</event>
<event>
12    1  0.8416569E-002  0.2541777E+03  0.7818608E-02  0.1111287E+00
         21   -1    0    0  503  502  0.00000000000E+00  0.00000000000E+00  0.13686041615E+04  0.13686041615E+04  0.00000000000E+00 0.  1.
         21   -1    0    0  501  503 -0.00000000000E+00 -0.00000000000E+00 -0.55888466424E+02  0.55888466424E+02  0.00000000000E+00 0. -1.
          6    2    1    2  501    0  0.16771242922E+03  0.73391277239E+02  0.36031671224E+03  0.43875933825E+03  0.17078608050E+03 0.  0.
         24    2    3    3    0    0  0.99944122271E+02 -0.25931171599E+02  0.23083547408E+03  0.26199686116E+03  0.68527993764E+02 0.  0.
         -6    2    1    2    0  502 -0.16771242922E+03 -0.73391277239E+02  0.95239898280E+03  0.98573328965E+03  0.17633081802E+03 0.  0.
        -24    2    5    5    0    0 -0.15685000465E+03 -0.11558820276E+03  0.81120362859E+03  0.83789286608E+03  0.77785418929E+02 0.  0.
          5    1    3    3  501    0  0.67768306944E+02  0.99322448837E+02  0.12948123817E+03  0.17676247709E+03  0.47000000000E+01 0. -1.
        -11    1    4    4    0    0  0.87503320888E+02 -0.26978414409E+02  0.23204022421E+03  0.24945406724E+03  0.00000000000E+00 0.  1.
         12    1    4    4    0    0  0.12440801383E+02  0.10472428104E+01 -0.12047501313E+01  0.12542793925E+02  0.00000000000E+00 0. -1.
         -5    1    5    5    0  502 -0.10862424563E+02  0.42196925526E+02  0.14119535421E+03  0.14784042357E+03  0.47000000000E+01 0.  1.
         13    1    6    6    0    0 -0.52745587348E+02 -0.31558167765E+02  0.13160979416E+03  0.14525547445E+03  0.00000000000E+00 0. -1.
        -14    1    6    6    0    0 -0.10410441730E+03 -0.84030035000E+02  0.67959383443E+03  0.69263739163E+03  0.00000000000E+00 0.  1.
</event>
<event>
12    1  0.8416569E-002  0.2106882E+03  0.7818608E-02  0.1141197E+00
         21   -1    0    0  501  502  0.00000000000E+00  0.00000000000E+00  0.12306744029E+03  0.12306744029E+03  0.00000000000E+00 0.  1.
         21   -1    0    0  502  503 -0.00000000000E+00 -0.00000000000E+00 -0.16303786739E+04  0.16303786739E+04  0.00000000000E+00 0.  1.
         -6    2    1    2    0  503 -0.10108996829E+03 -0.65037966802E+02 -0.15274553805E+04  0.15417970823E+04  0.17195692701E+03 0.  0.
        -24    2    3    3    0    0  0.13557302419E+02 -0.41416017967E+02 -0.68186717141E+03  0.68813233399E+03  0.81756850752E+02 0.  0.
          6    2    1    2  501    0  0.10108996829E+03  0.65037966802E+02  0.20144146866E+02  0.21164903193E+03  0.17303296578E+03 0.  0.
         24    2    5    5    0    0  0.10219990194E+03  0.69509602358E+02 -0.39554334469E+02  0.15158884419E+03  0.78346841231E+02 0.  0.
          5    1    5    5  501    0 -0.11099336539E+01 -0.44716355561E+01  0.59698481335E+02  0.60060187736E+02  0.47000000000E+01 0. -1.
        -11    1    6    6    0    0  0.25143259300E+02  0.29010018455E+02  0.22671376949E+02  0.44584257219E+02  0.00000000000E+00 0.  1.
         12    1    6    6    0    0  0.77056642640E+02  0.40499583904E+02 -0.62225711418E+02  0.10700458697E+03  0.00000000000E+00 0. -1.
         -5    1    3    3    0  503 -0.11464727071E+03 -0.23621948835E+02 -0.84558820911E+03  0.85366474832E+03  0.47000000000E+01 0.  1.
         11    1    4    4    0    0  0.12863998696E+02 -0.48984700904E+02 -0.20359185994E+03  0.20979663681E+03  0.00000000000E+00 0. -1.
        -12    1    4    4    0    0  0.69330372301E+00  0.75686829375E+01 -0.47827531147E+03  0.47833569718E+03  0.00000000000E+00 0.  1.
</event>
<event>
12    1  0.8416569E-002  0.1785108E+03  0.7818608E-02  0.1169485E+00
         21   -1    0    0  501  502  0.00000000000E+00  0.00000000000E+00  0.73591317703E+03  0.73591317703E+03  0.00000000000E+00 0. -1.
         21   -1    0    0  502  503 -0.00000000000E+00 -0.00000000000E+00 -0.49196053944E+02  0.49196053944E+02  0.00000000000E+00 0. -1.
         -6    2    1    2    0  503  0.26243545324E+02  0.37392705911E+02  0.20564992557E+03  0.27231968744E+03  0.17256645721E+03 0.  0.
        -24    2    3    3    0    0  0.61747744058E+02  0.66402058215E+02  0.99587307833E+02  0.15667601260E+03  0.80048259263E+02 0.  0.
          6    2    1    2  501    0 -0.26243545324E+02 -0.37392705911E+02  0.48106719751E+03  0.51278954353E+03  0.17158242716E+03 0.  0.
         24    2    5    5    0    0 -0.70822381049E+01 -0.30130282688E+02  0.48417186131E+03  0.49153801600E+03  0.78925520930E+02 0.  0.
          5    1    5    5  501    0 -0.19161307219E+02 -0.72624232233E+01 -0.31046637968E+01  0.21251527538E+02  0.47000000000E+01 0. -1.
        -11    1    6    6    0    0  0.21274973227E+02  0.18437383991E+02  0.18431780528E+03  0.18645539669E+03  0.00000000000E+00 0.  1.
         12    1    6    6    0    0 -0.28357211332E+02 -0.48567666678E+02  0.29985405603E+03  0.30508261930E+03  0.00000000000E+00 0. -1.
         -5    1    3    3    0  503 -0.35504198734E+02 -0.29009352305E+02  0.10606261774E+03  0.11564367484E+03  0.47000000000E+01 0.  1.
         11    1    4    4    0    0  0.13390034164E+02  0.47036387743E+02  0.56081640148E+01  0.49225666989E+02  0.00000000000E+00 0. -1.
        -12    1    4    4    0    0  0.48357709894E+02  0.19365670472E+02  0.93979143818E+02  0.10745034561E+03  0.00000000000E+00 0.  1.
</event>
<event>
12    1  0.8416569E-002  0.1778124E+03  0.7818608E-02  0.1171193E+00
         21   -1    0    0  503  502  0.00000000000E+00  0.00000000000E+00  0.36581389004E+02  0.36581389004E+02  0.00000000000E+00 0. -1.
         21   -1    0    0  501  503 -0.00000000000E+00 -0.00000000000E+00 -0.15980459591E+04  0.15980459591E+04  0.00000000000E+00 0. -1.
          6    2    1    2  501    0  0.20390986670E+02  0.40583348320E+02 -0.13377187533E+04  0.13488311764E+04  0.16670716532E+03 0.  0.
         24    2    3    3    0    0  0.69833180661E+02  0.48090712694E+02 -0.73597104036E+03  0.74499072470E+03  0.78539275991E+02 0.  0.
         -6    2    1    2    0  502 -0.20390986670E+02 -0.40583348320E+02 -0.22374581678E+03  0.28579617170E+03  0.17191410859E+03 0.  0.
        -24    2    5    5    0    0 -0.22878339296E+02  0.35479886972E+02 -0.17059269486E+03  0.19284915961E+03  0.79414671407E+02 0.  0.
          5    1    3    3  501    0 -0.49442193991E+02 -0.75073643744E+01 -0.60174771293E+03  0.60384045168E+03  0.47000000000E+01 0. -1.
        -11    1    4    4    0    0  0.62121631000E+01  0.49753193882E+02 -0.26073564941E+03  0.26551280599E+03  0.00000000000E+00 0.  1.
         12    1    4    4    0    0  0.63621017561E+02 -0.16624811878E+01 -0.47523539095E+03  0.47947791871E+03  0.00000000000E+00 0. -1.
         -5    1    5    5    0  502  0.24873526259E+01 -0.76063235292E+02 -0.53153121920E+02  0.92947012087E+02  0.47000000000E+01 0.  1.
         11    1    6    6    0    0 -0.40805245423E+02 -0.65118942691E+01 -0.56818838158E+02  0.70255627465E+02  0.00000000000E+00 0. -1.
        -12    1    6    6    0    0  0.17926906126E+02  0.41991781241E+02 -0.11377385670E+03  0.12259353215E+03  0.00000000000E+00 0.  1.
</event>
<event>
12    1  0.8416569E-002  0.2349956E+03  0.7818608E-02  0.1125462E+00
         21   -1    0    0  501  502  0.00000000000E+00  0.00000000000E+00  0.83107111952E+03  0.83107111952E+03  0.00000000000E+00 0. -1.
         21   -1    0    0  502  503 -0.00000000000E+00 -0.00000000000E+00 -0.75620958488E+02  0.75620958488E+02  0.00000000000E+00 0. -1.
         -6    2    1    2    0  503  0.12469821008E+03 -0.10018186742E+03  0.20023952186E+03  0.30873738986E+03  0.17215359312E+03 0.  0.
        -24    2    3    3    0    0  0.60481325472E+02 -0.34501219341E+01  0.15514509060E+03  0.18409214693E+03  0.78422097353E+02 0.  0.
          6    2    1    2  501    0 -0.12469821008E+03  0.10018186742E+03  0.55521063916E+03  0.59795468815E+03  0.15396397332E+03 0.  0.
         24    2    5    5    0    0 -0.10682207708E+03  0.30217794698E+02  0.44602823730E+03  0.46696837406E+03  0.82426953312E+02 0.  0.
          5    1    5    5  501    0 -0.17876132996E+02  0.69964072718E+02  0.10918240187E+03  0.13098631409E+03  0.47000000000E+01 0. -1.
        -13    1    6    6    0    0 -0.83263143314E+02 -0.64682729478E+00  0.18253352871E+03  0.20062815984E+03  0.00000000000E+00 0.  1.
         14    1    6    6    0    0 -0.23558933770E+02  0.30864621993E+02  0.26349470859E+03  0.26634021421E+03  0.00000000000E+00 0. -1.
         -5    1    3    3    0  503  0.64216884608E+02 -0.96731745482E+02  0.45094431269E+02  0.12464524293E+03  0.47000000000E+01 0.  1.
         11    1    4    4    0    0  0.45045254325E+02  0.11991062567E+02  0.26525694403E+02  0.53632760345E+02  0.00000000000E+00 0. -1.
        -12    1    4    4    0    0  0.15436071147E+02 -0.15441184501E+02  0.12861939619E+03  0.13045938658E+03  0.00000000000E+00 0.  1.
</event>
<event>
12    1  0.8416569E-002  0.2022585E+03  0.7818608E-02  0.1148020E+00
         21   -1    0    0  501  502  0.00000000000E+00  0.00000000000E+00  0.12930953177E+03  0.12930953177E+03  0.00000000000E+00 0. -1.
         21   -1    0    0  502  503 -0.00000000000E+00 -0.00000000000E+00 -0.31961281285E+03  0.31961281285E+03  0.00000000000E+00 0. -1.
         -6    2    1    2    0  503  0.10463652401E+03  0.35181865556E+02 -0.68191790082E+02  0.21266033499E+03  0.16848659300E+03 0.  0.
        -24    2    3    3    0    0  0.77140726470E+02 -0.14058309312E+01 -0.10506421950E+03  0.15369980185E+03  0.81439982979E+02 0.  0.
          6    2    1    2  501    0 -0.10463652401E+03 -0.35181865556E+02 -0.12211149100E+03  0.23626200963E+03  0.16947552962E+03 0.  0.
         24    2    5    5    0    0 -0.17274612545E+02  0.34151578390E+02 -0.71740735033E+02  0.11379351131E+03  0.79608338806E+02 0.  0.
          5    1    5    5  501    0 -0.87361911469E+02 -0.69333443946E+02 -0.50370755969E+02  0.12246849832E+03  0.47000000000E+01 0. -1.
        -11    1    6    6    0    0 -0.24665336644E+02  0.54491466316E+02 -0.30319025699E+02  0.67059242856E+02  0.00000000000E+00 0.  1.
         12    1    6    6    0    0  0.73907240997E+01 -0.20339887926E+02 -0.41421709334E+02  0.46734268452E+02  0.00000000000E+00 0. -1.
         -5    1    3    3    0  503  0.27495797543E+02  0.36587696487E+02  0.36872429419E+02  0.58960533139E+02  0.47000000000E+01 0.  1.
         13    1    4    4    0    0  0.35147832528E+02  0.39973167089E+02 -0.49520603492E+02  0.72701543235E+02  0.00000000000E+00 0. -1.
        -14    1    4    4    0    0  0.41992893943E+02 -0.41378998021E+02 -0.55543616010E+02  0.80998258613E+02  0.00000000000E+00 0.  1.
</event>
<event>
12    1  0.8416569E-002  0.1805974E+03  0.7818608E-02  0.1167318E+00
         21   -1    0    0  503  502  0.00000000000E+00  0.00000000000E+00  0.10984928652E+03  0.10984928652E+03  0.00000000000E+00 0.  1.
         21   -1    0    0  501  503 -0.00000000000E+00 -0.00000000000E+00 -0.56292537798E+03  0.56292537798E+03  0.00000000000E+00 0.  1.
          6    2    1    2  501    0 -0.14986726577E+02  0.52185515259E+02 -0.45792655965E+03  0.49211211448E+03  0.17184198906E+03 0.  0.
         24    2    3    3    0    0 -0.24450291126E+02 -0.38003440807E+01 -0.40752180275E+03  0.41604171932E+03  0.80027702413E+02 0.  0.
         -6    2    1    2    0  502  0.14986726577E+02 -0.52185515259E+02  0.48504681910E+01  0.18066255002E+03  0.17224256141E+03 0.  0.
        -24    2    5    5    0    0 -0.36015631235E+02 -0.81317493584E+02 -0.40448018699E+01  0.12107120423E+03  0.82050079926E+02 0.  0.
          5    1    3    3  501    0  0.94635645487E+01  0.55985859340E+02 -0.50404756905E+02  0.76070395152E+02  0.47000000000E+01 0. -1.
        -13    1    4    4    0    0 -0.35884498803E+02 -0.31359879577E+02 -0.16669113074E+03  0.17336975621E+03  0.00000000000E+00 0.  1.
         14    1    4    4    0    0  0.11434207678E+02  0.27559535496E+02 -0.24083067201E+03  0.24267196312E+03  0.00000000000E+00 0. -1.
         -5    1    5    5    0  502  0.51002357812E+02  0.29131978325E+02  0.88952700609E+01  0.59591345789E+02  0.47000000000E+01 0.  1.
         13    1    6    6    0    0  0.20534521392E+02 -0.11224917435E+02 -0.18534124950E+02  0.29852623468E+02  0.00000000000E+00 0. -1.
        -14    1    6    6    0    0 -0.56550152627E+02 -0.70092576149E+02  0.14489323080E+02  0.91218580764E+02  0.00000000000E+00 0.  1.
</event>
<event>
12    1  0.8416569E-002  0.2173767E+03  0.7818608E-02  0.1136344E+00
         21   -1    0    0  503  502  0.00000000000E+00  0.00000000000E+00  0.81876280161E+02  0.81876280161E+02  0.00000000000E+00 0. -1.
         21   -1    0    0  501  503 -0.00000000000E+00 -0.00000000000E+00 -0.78155962996E+03  0.78155962996E+03  0.00000000000E+00 0. -1.
          6    2    1    2  501    0 -0.13070903393E+03  0.25767866370E+02 -0.57276713379E+03  0.61172105561E+03  0.16849814787E+03 0.  0.
         24    2    3    3    0    0 -0.14839486699E+03  0.56091281180E+02 -0.50257631995E+03  0.53310083858E+03  0.80288718730E+02 0.  0.
         -6    2    1    2    0  502  0.13070903393E+03 -0.25767866370E+02 -0.12691621601E+03  0.25171485451E+03  0.17176672439E+03 0.  0.
        -24    2    5    5    0    0 -0.80770504729E+01  0.12891123798E+01 -0.16372155491E+02  0.72171721426E+02  0.69812673227E+02 0.  0.
          5    1    3    3  501    0  0.17685833057E+02 -0.30323414811E+02 -0.70190813844E+02  0.78620217024E+02  0.47000000000E+01 0. -1.
        -11    1    4    4    0    0 -0.84142244843E+02  0.46908886063E+02 -0.18100104046E+03  0.20504081937E+03  0.00000000000E+00 0.  1.
         12    1    4    4    0    0 -0.64252622144E+02  0.91823951179E+01 -0.32157527948E+03  0.32806001921E+03  0.00000000000E+00 0. -1.
         -5    1    5    5    0  502  0.13878608440E+03 -0.27056978749E+02 -0.11054406052E+03  0.17954313309E+03  0.47000000000E+01 0.  1.
         11    1    6    6    0    0  0.29293730962E+02 -0.81154630234E+01 -0.14265825514E+02  0.33578224959E+02  0.00000000000E+00 0. -1.
        -12    1    6    6    0    0 -0.37370781435E+02  0.94045754032E+01 -0.21063299767E+01  0.38593496467E+02  0.00000000000E+00 0.  1.
</event>
<event>
12    1  0.8416569E-002  0.1764415E+03  0.7818608E-02  0.1172043E+00
         21   -1    0    0  503  502  0.00000000000E+00  0.00000000000E+00  0.62476138423E+03  0.62476138423E+03  0.00000000000E+00 0.  1.
         21   -1    0    0  501  503 -0.00000000000E+00 -0.00000000000E+00 -0.97100713118E+02  0.97100713118E+02  0.00000000000E+00 0.  1.
          6    2    1    2  501    0 -0.80406350639E+01 -0.15656241691E+02  0.86291561242E+01  0.17366020541E+03  0.17255038363E+03 0.  0.
         24    2    3    3    0    0 -0.55995903516E+02  0.25682054214E+02  0.27175503478E+02  0.10751929915E+03  0.83825906385E+02 0.  0.
         -6    2    1    2    0  502  0.80406350639E+01  0.15656241691E+02  0.51903151499E+03  0.54820189194E+03  0.17556147373E+03 0.  0.
        -24    2    5    5    0    0  0.25878882503E+02  0.48750240193E+02  0.49184690973E+03  0.50157026564E+03  0.81320638714E+02 0.  0.
          5    1    3    3  501    0  0.47955268452E+02 -0.41338295905E+02 -0.18546347354E+02  0.66140906260E+02  0.47000000000E+01 0. -1.
        -13    1    4    4    0    0  0.18269283484E+02  0.14092937282E+02 -0.81468568904E+01  0.24469345668E+02  0.00000000000E+00 0.  1.
         14    1    4    4    0    0 -0.74265187000E+02  0.11589116932E+02  0.35322360368E+02  0.83049953482E+02  0.00000000000E+00 0. -1.
         -5    1    5    5    0  502 -0.17838247439E+02 -0.33093998502E+02  0.27184605260E+02  0.46631626304E+02  0.47000000000E+01 0.  1.
         11    1    6    6    0    0 -0.24832707830E+02  0.27030341721E+02  0.11524622514E+03  0.12095038306E+03  0.00000000000E+00 0. -1.
        -12    1    6    6    0    0  0.50711590334E+02  0.21719898472E+02  0.37660068459E+03  0.38061988258E+03  0.00000000000E+00 0.  1.
</event>
<event>
12    1  0.8416569E-002  0.1781833E+03  0.7818608E-02  0.1170219E+00
         21   -1    0    0  503  502  0.00000000000E+00  0.00000000000E+00  0.11386259101E+03  0.11386259101E+03  0.00000000000E+00 0. -1.
         21   -1    0    0  501  503 -0.00000000000E+00 -0.00000000000E+00 -0.28288164740E+03  0.28288164740E+03  0.00000000000E+00 0. -1.
          6    2    1    2  501    0  0.16571624897E+02  0.42770844801E+02 -0.11872204981E+03  0.21411263019E+03  0.17217819077E+03 0.  0.
         24    2    3    3    0    0 -0.17089952239E+02 -0.49889621018E+01  0.49226338626E+01  0.77276236159E+02  0.75036178876E+02 0.  0.
         -6    2    1    2    0  502 -0.16571624897E+02 -0.42770844801E+02 -0.50297006579E+02  0.18263160822E+03  0.16947138854E+03 0.  0.
        -24    2    5    5    0    0  0.93079678835E+01 -0.69384687232E+02  0.15056544817E+02  0.10732406138E+03  0.79942989194E+02 0.  0.
          5    1    3    3  501    0  0.33661577137E+02  0.47759806903E+02 -0.12364468367E+03  0.13683639403E+03  0.47000000000E+01 0. -1.
        -13    1    4    4    0    0 -0.37651167474E+02 -0.27505066712E+02  0.29931457048E+01  0.46723634579E+02  0.00000000000E+00 0.  1.
         14    1    4    4    0    0  0.20561215235E+02  0.22516104611E+02  0.19294881578E+01  0.30552601580E+02  0.00000000000E+00 0. -1.
         -5    1    5    5    0  502 -0.25879592781E+02  0.26613842431E+02 -0.65353551396E+02  0.75307546842E+02  0.47000000000E+01 0.  1.
         11    1    6    6    0    0 -0.15366748042E+01 -0.82307548323E+02 -0.33061314454E+01  0.82388253929E+02  0.00000000000E+00 0. -1.
        -12    1    6    6    0    0  0.10844642688E+02  0.12922861091E+02  0.18362676262E+02  0.24935807453E+02  0.00000000000E+00 0.  1.
</event>
<event>
12    1  0.8416569E-002  0.1749747E+03  0.7818608E-02  0.1173140E+00
         21   -1    0    0  501  502  0.00000000000E+00  0.00000000000E+00  0.21183787654E+03  0.21183787654E+03  0.00000000000E+00 0. -1.
         21   -1    0    0  502  503 -0.00000000000E+00 -0.00000000000E+00 -0.27040432911E+03  0.27040432911E+03  0.00000000000E+00 0. -1.
         -6    2    1    2    0  503 -0.18823518050E+02 -0.16621180208E+02 -0.19467986801E+03  0.26175638738E+03  0.17316341087E+03 0.  0.
        -24    2    3    3    0    0  0.45395388109E+02 -0.32031590693E+02 -0.16285365118E+03  0.18829519533E+03  0.76465710091E+02 0.  0.
          6    2    1    2  501    0  0.18823518050E+02  0.16621180208E+02  0.13611341543E+03  0.22048581827E+03  0.17162909349E+03 0.  0.
         24    2    5    5    0    0 -0.25408523226E+02  0.10660525453E+02  0.12710099273E+02  0.89175227225E+02  0.83853650317E+02 0.  0.
          5    1    5    5  501    0  0.44232041276E+02  0.59606547550E+01  0.12340331616E+03  0.13131059104E+03  0.47000000000E+01 0. -1.
        -11    1    6    6    0    0 -0.38214621043E+02  0.39059915186E+02 -0.20912696138E+01  0.54684619816E+02  0.00000000000E+00 0.  1.
         12    1    6    6    0    0  0.12806097816E+02 -0.28399389733E+02  0.14801368887E+02  0.34490607409E+02  0.00000000000E+00 0. -1.
         -5    1    3    3    0  503 -0.64218906159E+02  0.15410410484E+02 -0.31826216833E+02  0.73461192050E+02  0.47000000000E+01 0.  1.
         13    1    4    4    0    0  0.53133081080E+01 -0.10725705978E+02 -0.13394470601E+03  0.13447846028E+03  0.00000000000E+00 0. -1.
        -14    1    4    4    0    0  0.40082080001E+02 -0.21305884715E+02 -0.28908945165E+02  0.53816735048E+02  0.00000000000E+00 0.  1.
</event>
<event>
12    1  0.8416569E-002  0.1944765E+03  0.7818608E-02  0.1154673E+00
         21   -1    0    0  503  502  0.00000000000E+00  0.00000000000E+00  0.94555343983E+03  0.94555343983E+03  0.00000000000E+00 0.  1.
         21   -1    0    0  501  503 -0.00000000000E+00 -0.00000000000E+00 -0.63526704811E+02  0.63526704811E+02  0.00000000000E+00 0.  1.
          6    2    1    2  501    0  0.79050952979E+02  0.41889380517E+02  0.13342718968E+03  0.23584721949E+03  0.17267693137E+03 0.  0.
         24    2    3    3    0    0  0.11699280674E+03  0.81514840819E+01  0.85754680943E+02  0.16604329401E+03  0.80391210107E+02 0.  0.
         -6    2    1    2    0  502 -0.79050952979E+02 -0.41889380517E+02  0.74859954534E+03  0.77323292515E+03  0.17170935878E+03 0.  0.
        -24    2    5    5    0    0 -0.10301060929E+03 -0.52542696857E+02  0.72114614837E+03  0.73497933337E+03  0.82285676435E+02 0.  0.
          5    1    3    3  501    0 -0.37941853756E+02  0.33737896435E+02  0.47672508741E+02  0.69803925477E+02  0.47000000000E+01 0. -1.
        -13    1    4    4    0    0  0.83911592070E+02 -0.13198020731E+02  0.93061171124E+02  0.12599890716E+03  0.00000000000E+00 0.  1.
         14    1    4    4    0    0  0.33081214666E+02  0.21349504813E+02 -0.73064901813E+01  0.40044386851E+02  0.00000000000E+00 0. -1.
         -5    1    5    5    0  502  0.23959656310E+02  0.10653316340E+02  0.27453396967E+02  0.38253591786E+02  0.47000000000E+01 0.  1.
         13    1    6    6    0    0 -0.65698017955E+01 -0.37313826565E+01  0.20827653447E+01  0.78373097196E+01  0.00000000000E+00 0. -1.
        -14    1    6    6    0    0 -0.96440807494E+02 -0.48811314201E+02  0.71906338303E+03  0.72714202365E+03  0.00000000000E+00 0.  1.
</event>
<event>
12    1  0.8416569E-002  0.1729021E+03  0.7818608E-02  0.1174964E+00
         21   -1    0    0  503  502  0.00000000000E+00  0.00000000000E+00  0.50203215725E+03  0.50203215725E+03  0.00000000000E+00 0. -1.
         21   -1    0    0  501  503 -0.00000000000E+00 -0.00000000000E+00 -0.13514666137E+03  0.13514666137E+03  0.00000000000E+00 0. -1.
          6    2    1    2  501    0  0.11609014941E+02  0.11517527833E+02 -0.55168033636E+02  0.18108197521E+03  0.17169667188E+03 0.  0.
         24    2    3    3    0    0  0.53717813588E+02  0.56259575479E+02 -0.32665905280E+02  0.11548138427E+03  0.78855218061E+02 0.  0.
         -6    2    1    2    0  502 -0.11609014941E+02 -0.11517527833E+02  0.42205352952E+03  0.45609684341E+03  0.17212706387E+03 0.  0.
        -24    2    5    5    0    0  0.21661732884E+02 -0.54736924999E+02  0.35824634486E+03  0.37202362671E+03  0.81214368172E+02 0.  0.
          5    1    3    3  501    0 -0.42108798647E+02 -0.44742047647E+02 -0.22502128356E+02  0.65600590940E+02  0.47000000000E+01 0. -1.
        -11    1    4    4    0    0 -0.18965796983E+02  0.15940697950E+01 -0.11026878668E+02  0.21996239835E+02  0.00000000000E+00 0.  1.
         12    1    4    4    0    0  0.72683610571E+02  0.54665505684E+02 -0.21639026612E+02  0.93485144435E+02  0.00000000000E+00 0. -1.
         -5    1    5    5    0  502 -0.33270747825E+02  0.43219397166E+02  0.63807184659E+02  0.84073216701E+02  0.47000000000E+01 0.  1.
         11    1    6    6    0    0 -0.29427071566E+02 -0.10297936406E+02  0.14381154141E+03  0.14715216437E+03  0.00000000000E+00 0. -1.
        -12    1    6    6    0    0  0.51088804449E+02 -0.44438988593E+02  0.21443480345E+03  0.22487146234E+03  0.00000000000E+00 0.  1.
</event>
<event>
12    1  0.8416569E-002  0.1739809E+03  0.7818608E-02  0.1173798E+00
         21   -1    0    0  501  502  0.00000000000E+00  0.00000000000E+00  0.28249080222E+03  0.28249080222E+03  0.00000000000E+00 0. -1.
         21   -1    0    0  502  503 -0.00000000000E+00 -0.00000000000E+00 -0.14425691045E+03  0.14425691045E+03  0.00000000000E+00 0. -1.
         -6    2    1    2    0  503 -0.28757802790E+02  0.16482196739E+02 -0.39213632191E+02  0.17834531199E+03  0.17079422511E+03 0.  0.
        -24    2    3    3    0    0 -0.42321537571E+02  0.18449896041E+02  0.37921651488E+02  0.99860990437E+02  0.80016589238E+02 0.  0.
          6    2    1    2  501    0  0.28757802790E+02 -0.16482196739E+02  0.17744752395E+03  0.24840240068E+03  0.17063837456E+03 0.  0.
         24    2    5    5    0    0 -0.42186604241E+01  0.82847976632E+01  0.14408410413E+02  0.80162412321E+02  0.78306928751E+02 0.  0.
          5    1    5    5  501    0  0.32976463214E+02 -0.24766994402E+02  0.16303911354E+03  0.16823998836E+03  0.47000000000E+01 0. -1.
        -13    1    6    6    0    0 -0.14550084571E+02  0.32432746736E+02  0.32584167793E+02  0.48221530592E+02  0.00000000000E+00 0.  1.
         14    1    6    6    0    0  0.10331424147E+02 -0.24147949073E+02 -0.18175757379E+02  0.31940881729E+02  0.00000000000E+00 0. -1.
         -5    1    3    3    0  503  0.13563734780E+02 -0.19676993018E+01 -0.77135283678E+02  0.78484321555E+02  0.47000000000E+01 0.  1.
         13    1    4    4    0    0 -0.37392853816E+02 -0.25578043184E+02  0.70180226238E+01  0.45844459329E+02  0.00000000000E+00 0. -1.
        -14    1    4    4    0    0 -0.49286837546E+01  0.44027939225E+02  0.30903628864E+02  0.54016531108E+02  0.00000000000E+00 0.  1.
</event>
<event>
12    1  0.8416569E-002  0.1726472E+03  0.7818608E-02  0.1175708E+00
         21   -1    0    0  501  502  0.00000000000E+00  0.00000000000E+00  0.79866855930E+02  0.79866855930E+02  0.00000000000E+00 0.  1.
         21   -1    0    0  502  503 -0.00000000000E+00 -0.00000000000E+00 -0.63968819213E+03  0.63968819213E+03  0.00000000000E+00 0.  1.
         -6    2    1    2    0  503 -0.99314592986E+01 -0.49254543618E+01 -0.51535186700E+03  0.54350216053E+03  0.17229091005E+03 0.  0.
        -24    2    3    3    0    0  0.17760687727E+01  0.52443339420E+01 -0.98710366012E+02  0.12654566261E+03  0.78989941814E+02 0.  0.
          6    2    1    2  501    0  0.99314592986E+01  0.49254543618E+01 -0.44469469198E+02  0.17605288754E+03  0.16998291542E+03 0.  0.
         24    2    5    5    0    0  0.70025515751E+02  0.78312926814E+01 -0.44613966845E+02  0.11570514195E+03  0.80202068775E+02 0.  0.
          5    1    5    5  501    0 -0.60094056452E+02 -0.29058383196E+01  0.14449764740E+00  0.60347745582E+02  0.47000000000E+01 0. -1.
        -13    1    6    6    0    0  0.16201598873E+02  0.30888416822E+02 -0.45267840082E+02  0.57146858579E+02  0.00000000000E+00 0.  1.
         14    1    6    6    0    0  0.53823916878E+02 -0.23057124140E+02  0.65387323628E+00  0.58558283376E+02  0.00000000000E+00 0. -1.
         -5    1    3    3    0  503 -0.11707528071E+02 -0.10169788304E+02 -0.41664150099E+03  0.41695649792E+03  0.47000000000E+01 0.  1.
         11    1    4    4    0    0  0.12139289021E+02 -0.33031429667E+02 -0.26102828772E+02  0.43815469342E+02  0.00000000000E+00 0. -1.
        -12    1    4    4    0    0 -0.10363220248E+02  0.38275763609E+02 -0.72607537241E+02  0.82730193266E+02  0.00000000000E+00 0.  1.
</event>
<event>
12    1  0.8416569E-002  0.1762972E+03  0.7818608E-02  0.1171619E+00
         21   -1    0    0  503  502  0.00000000000E+00  0.00000000000E+00  0.25887830484E+03  0.25887830484E+03  0.00000000000E+00 0.  1.
         21   -1    0    0  501  503 -0.00000000000E+00 -0.00000000000E+00 -0.12159534386E+03  0.12159534386E+03  0.00000000000E+00 0.  1.
          6    2    1    2  501    0 -0.14197418099E+02  0.35716562220E+02  0.93413671547E+02  0.19951646239E+03  0.17205657568E+03 0.  0.
         24    2    3    3    0    0  0.64971658864E+00  0.75152931325E+01  0.12872527990E+03  0.15171741772E+03  0.79944201736E+02 0.  0.
         -6    2    1    2    0  502  0.14197418099E+02 -0.35716562220E+02  0.43869289432E+02  0.18095718631E+03  0.17130017287E+03 0.  0.
        -24    2    5    5    0    0 -0.89068508114E+01  0.38361056166E+02  0.44703394774E+02  0.10321346297E+03  0.84283585661E+02 0.  0.
          5    1    3    3  501    0 -0.14847134688E+02  0.28201269087E+02 -0.35311608356E+02  0.47799044669E+02  0.47000000000E+01 0. -1.
        -13    1    4    4    0    0 -0.11936061132E+01  0.28383360148E+02  0.84603085183E+01  0.29641468403E+02  0.00000000000E+00 0.  1.
         14    1    4    4    0    0  0.18433227018E+01 -0.20868067016E+02  0.12026497138E+03  0.12207594932E+03  0.00000000000E+00 0. -1.
         -5    1    5    5    0  502  0.23104268911E+02 -0.74077618386E+02 -0.83410534178E+00  0.77743723343E+02  0.47000000000E+01 0.  1.
         13    1    6    6    0    0 -0.10898771912E+02  0.15888062406E+02 -0.24071484480E+02  0.30832614571E+02  0.00000000000E+00 0. -1.
        -14    1    6    6    0    0  0.19919211005E+01  0.22472993759E+02  0.68774879254E+02  0.72380848396E+02  0.00000000000E+00 0.  1.
</event>
<event>
12    1  0.8416569E-002  0.2158997E+03  0.7818608E-02  0.1137218E+00
         21   -1    0    0  501  502  0.00000000000E+00  0.00000000000E+00  0.14647599784E+04  0.14647599784E+04  0.00000000000E+00 0. -1.
         21   -1    0    0  502  503 -0.00000000000E+00 -0.00000000000E+00 -0.68268012583E+02  0.68268012583E+02  0.00000000000E+00 0. -1.
         -6    2    1    2    0  503 -0.42152648714E+01 -0.12989691593E+03  0.13771581856E+03  0.25608268451E+03  0.17239987644E+03 0.  0.
        -24    2    3    3    0    0  0.54080278123E+02 -0.45818569574E+02  0.36331564569E+02  0.11197024363E+03  0.78697745042E+02 0.  0.
          6    2    1    2  501    0  0.42152648714E+01  0.12989691593E+03  0.12587761472E+04  0.12769453065E+04  0.17082432377E+03 0.  0.
         24    2    5    5    0    0 -0.45189547347E+02  0.45657417408E+02  0.87359281882E+03  0.87954699862E+03  0.79446930243E+02 0.  0.
          5    1    5    5  501    0  0.49404812219E+02  0.84239498525E+02  0.38518332842E+03  0.39739830784E+03  0.47000000000E+01 0. -1.
        -13    1    6    6    0    0 -0.45513005337E+02  0.26659597196E+02  0.24258591006E+03  0.24825408665E+03  0.00000000000E+00 0.  1.
         14    1    6    6    0    0  0.32345798920E+00  0.18997820212E+02  0.63100690876E+03  0.63129291197E+03  0.00000000000E+00 0. -1.
         -5    1    3    3    0  503 -0.58295542995E+02 -0.84078346359E+02  0.10138425399E+03  0.14411244088E+03  0.47000000000E+01 0.  1.
         11    1    4    4    0    0  0.77208645785E+00 -0.48032907239E+02  0.33451264514E+02  0.58538392470E+02  0.00000000000E+00 0. -1.
        -12    1    4    4    0    0  0.53308191665E+02  0.22143376652E+01  0.28803000546E+01  0.53431851160E+02  0.00000000000E+00 0.  1.
</event>
<event>
12    1  0.8416569E-002  0.1757825E+03  0.7818608E-02  0.1172315E+00
         21   -1    0    0  501  502  0.00000000000E+00  0.00000000000E+00  0.17529439290E+04  0.17529439290E+04  0.00000000000E+00 0. -1.
         21   -1    0    0  502  503 -0.00000000000E+00 -0.00000000000E+00 -0.20264878396E+02  0.20264878396E+02  0.00000000000E+00 0. -1.
         -6    2    1    2    0  503 -0.23445555475E+02  0.23314978485E+02  0.54083763494E+03  0.56868695122E+03  0.17264477642E+03 0.  0.
        -24    2    3    3    0    0 -0.54949184865E+02 -0.29666616888E+02  0.22122236134E+03  0.24314810372E+03  0.79259990604E+02 0.  0.
          6    2    1    2  501    0  0.23445555475E+02 -0.23314978485E+02  0.11918414156E+04  0.12045218561E+04  0.17115390624E+03 0.  0.
         24    2    5    5    0    0  0.35402347087E+02  0.26850168512E+02  0.34759979110E+03  0.35869355357E+03  0.76558427843E+02 0.  0.
          5    1    5    5  501    0 -0.11956791612E+02 -0.50165146997E+02  0.84424162451E+03  0.84582830255E+03  0.47000000000E+01 0. -1.
        -13    1    6    6    0    0 -0.15500922251E+02  0.24814287171E+02  0.20880199478E+03  0.21084188498E+03  0.00000000000E+00 0.  1.
         14    1    6    6    0    0  0.50903269338E+02  0.20358813411E+01  0.13879779632E+03  0.14785166859E+03  0.00000000000E+00 0. -1.
         -5    1    3    3    0  503  0.31503629390E+02  0.52981595373E+02  0.31961527361E+03  0.32553884751E+03  0.47000000000E+01 0.  1.
         13    1    4    4    0    0 -0.15447562162E+02  0.20822036206E+02  0.12408391395E+03  0.12676356759E+03  0.00000000000E+00 0. -1.
        -14    1    4    4    0    0 -0.39501622703E+02 -0.50488653094E+02  0.97138447390E+02  0.11638453612E+03  0.00000000000E+00 0.  1.
</event>
<event>
12    1  0.8416569E-002  0.1943180E+03  0.7818608E-02  0.1154925E+00
         21   -1    0    0  501  502  0.00000000000E+00  0.00000000000E+00  0.16864623979E+03  0.16864623979E+03  0.00000000000E+00 0.  1.
         21   -1    0    0  502  503 -0.00000000000E+00 -0.00000000000E+00 -0.40362295493E+03  0.40362295493E+03  0.00000000000E+00 0.  1.
         -6    2    1    2    0  503 -0.68191989340E+02  0.61149460594E+02 -0.30948873377E+03  0.36543504078E+03  0.17137703684E+03 0.  0.
        -24    2    3    3    0    0 -0.50910915390E+02  0.70297162080E+02 -0.94109773821E+02  0.14911929390E+03  0.76461114180E+02 0.  0.
          6    2    1    2  501    0  0.68191989340E+02 -0.61149460594E+02  0.74512018630E+02  0.20683415394E+03  0.16982026491E+03 0.  0.
         24    2    5    5    0    0  0.44870579258E+01 -0.33896887687E+02  0.98791904291E+02  0.13326361728E+03  0.82645136901E+02 0.  0.
          5    1    5    5  501    0  0.63704931415E+02 -0.27252572907E+02 -0.24279885660E+02  0.73570536659E+02  0.47000000000E+01 0. -1.
        -13    1    6    6    0    0  0.10048665277E+02 -0.58812079270E+02  0.86105211872E+02  0.10475659337E+03  0.00000000000E+00 0.  1.
         14    1    6    6    0    0 -0.55616073513E+01  0.24915191583E+02  0.12686692418E+02  0.28507023914E+02  0.00000000000E+00 0. -1.
         -5    1    3    3    0  503 -0.17281073951E+02 -0.91477014865E+01 -0.21537895995E+03  0.21631574688E+03  0.47000000000E+01 0.  1.
         13    1    4    4    0    0 -0.48829531044E+02  0.39623795871E+02 -0.15578719639E+02  0.64784757518E+02  0.00000000000E+00 0. -1.
        -14    1    4    4    0    0 -0.20813843461E+01  0.30673366210E+02 -0.78531054182E+02  0.84334536380E+02  0.00000000000E+00 0.  1.
</event>
<event>
12    1  0.8416569E-002  0.1761042E+03  0.7818608E-02  0.1172244E+00
         21   -1    0    0  501  502  0.00000000000E+00  0.00000000000E+00  0.22274684259E+02  0.22274684259E+02  0.00000000000E+00 0. -1.
         21   -1    0    0  502  503 -0.00000000000E+00 -0.00000000000E+00 -0.15946439278E+04  0.15946439278E+04  0.00000000000E+00 0. -1.
         -6    2    1    2    0  503  0.30724988590E+02  0.12559957880E+02 -0.10828778965E+04  0.10967124479E+04  0.17044611179E+03 0.  0.
        -24    2    3    3    0    0  0.34425714156E+02  0.57447843125E+02 -0.44496742862E+03  0.45719663673E+03  0.80915805810E+02 0.  0.
          6    2    1    2  501    0 -0.30724988590E+02 -0.12559957880E+02 -0.48949134702E+03  0.52020616422E+03  0.17294767131E+03 0.  0.
         24    2    5    5    0    0 -0.81280765678E+02  0.13487327208E+02 -0.36960024398E+03  0.38742697064E+03  0.81895337873E+02 0.  0.
          5    1    5    5  501    0  0.50555777088E+02 -0.26047285089E+02 -0.11989110304E+03  0.13277919357E+03  0.47000000000E+01 0. -1.
        -13    1    6    6    0    0 -0.33869926208E+02  0.38741885197E+02 -0.99312377992E+02  0.11185282291E+03  0.00000000000E+00 0.  1.
         14    1    6    6    0    0 -0.47410839470E+02 -0.25254557989E+02 -0.27028786599E+03  0.27557414773E+03  0.00000000000E+00 0. -1.
         -5    1    3    3    0  503 -0.37007255655E+01 -0.44887885245E+02 -0.63791046793E+03  0.63951581114E+03  0.47000000000E+01 0.  1.
         13    1    4    4    0    0 -0.20746699909E+01  0.56136679880E+02 -0.36481714789E+03  0.36911675995E+03  0.00000000000E+00 0. -1.
        -14    1    4    4    0    0  0.36500384147E+02  0.13111632449E+01 -0.80150280723E+02  0.88079876771E+02  0.00000000000E+00 0.  1.
</event>
<event>
12    1  0.8416569E-002  0.2457345E+03  0.7818608E-02  0.1116244E+00
         21   -1    0    0  503  502  0.00000000000E+00  0.00000000000E+00  0.50584779328E+02  0.50584779328E+02  0.00000000000E+00 0. -1.
         21   -1    0    0  501  503 -0.00000000000E+00 -0.00000000000E+00 -0.11873744194E+04  0.11873744194E+04  0.00000000000E+00 0.  1.
          6    2    1    2  501    0  0.16666204373E+03  0.48626542801E+02 -0.56388136037E+03  0.61457379795E+03  0.17204065526E+03 0.  0.
         24    2    3    3    0    0  0.15282791963E+03  0.97073772929E+02 -0.43753408711E+03  0.47847001197E+03  0.68686130790E+02 0.  0.
         -6    2    1    2    0  502 -0.16666204373E+03 -0.48626542801E+02 -0.57290827972E+03  0.62338540080E+03  0.17390998670E+03 0.  0.
        -24    2    5    5    0    0 -0.84412305237E+01 -0.21564544422E+02 -0.13589421001E+03  0.15780021567E+03  0.76794451637E+02 0.  0.
          5    1    3    3  501    0  0.13834124107E+02 -0.48447230128E+02 -0.12634727326E+03  0.13610378598E+03  0.47000000000E+01 0. -1.
        -11    1    4    4    0    0  0.35690061163E+02  0.41811506792E+02 -0.20560154261E+03  0.21282381655E+03  0.00000000000E+00 0.  1.
         12    1    4    4    0    0  0.11713785846E+03  0.55262266137E+02 -0.23193254450E+03  0.26564619542E+03  0.00000000000E+00 0. -1.
         -5    1    5    5    0  502 -0.15822081321E+03 -0.27061998378E+02 -0.43701406971E+03  0.46558518514E+03  0.47000000000E+01 0.  1.
         13    1    6    6    0    0 -0.22507009398E+02  0.16794499949E+02 -0.18829871329E+02  0.33811015289E+02  0.00000000000E+00 0. -1.
        -14    1    6    6    0    0  0.14065778874E+02 -0.38359044371E+02 -0.11706433868E+03  0.12398920038E+03  0.00000000000E+00 0.  1.
</event>
<event>
12    1  0.8416569E-002  0.2237410E+03  0.7818608E-02  0.1131149E+00
         21   -1    0    0  503  502  0.00000000000E+00  0.00000000000E+00  0.44913836834E+03  0.44913836834E+03  0.00000000000E+00 0.  1.
         21   -1    0    0  501  503 -0.00000000000E+00 -0.00000000000E+00 -0.11398488430E+03  0.11398488430E+03  0.00000000000E+00 0. -1.
          6    2    1    2  501    0  0.14025079645E+03  0.16509210750E+02  0.12506077948E+03  0.25620470583E+03  0.17337189156E+03 0.  0.
         24    2    3    3    0    0  0.90170438837E+02  0.77478776538E+02  0.92577639111E+02  0.17074960312E+03  0.80318981875E+02 0.  0.
         -6    2    1    2    0  502 -0.14025079645E+03 -0.16509210750E+02  0.21009270456E+03  0.30691854681E+03  0.17354310681E+03 0.  0.
        -24    2    5    5    0    0 -0.12711936431E+03  0.41118337962E+02  0.11143065126E+03  0.19181138091E+03  0.80776019383E+02 0.  0.
          5    1    3    3  501    0  0.50080357612E+02 -0.60969565788E+02  0.32483140371E+02  0.85455102711E+02  0.47000000000E+01 0. -1.
        -11    1    4    4    0    0  0.27196163736E+02  0.25968276081E+02  0.80037984410E+02  0.88431112359E+02  0.00000000000E+00 0.  1.
         12    1    4    4    0    0  0.62974275101E+02  0.51510500457E+02  0.12539654702E+02  0.82318490765E+02  0.00000000000E+00 0. -1.
         -5    1    5    5    0  502 -0.13131432144E+02 -0.57627548712E+02  0.98662053301E+02  0.11510716590E+03  0.47000000000E+01 0.  1.
         11    1    6    6    0    0  0.31008822357E+01  0.71908580758E+01 -0.84994921481E+01  0.11557044487E+02  0.00000000000E+00 0. -1.
        -12    1    6    6    0    0 -0.13022024654E+03  0.33927479886E+02  0.11993014341E+03  0.18025433642E+03  0.00000000000E+00 0.  1.
</event>
<event>
12    1  0.8416569E-002  0.2086213E+03  0.7818608E-02  0.1146809E+00
         21   -1    0    0  501  502  0.00000000000E+00  0.00000000000E+00  0.87072808307E+03  0.87072808307E+03  0.00000000000E+00 0.  1.
         21   -1    0    0  502  503 -0.00000000000E+00 -0.00000000000E+00 -0.65715625050E+02  0.65715625050E+02  0.00000000000E+00 0.  1.
         -6    2    1    2    0  503 -0.52760178857E+02 -0.60373938378E+02  0.12847263903E+03  0.22846843117E+03  0.17106711009E+03 0.  0.
        -24    2    3    3    0    0  0.78880499230E+01 -0.56599200293E+02  0.13678768795E+03  0.16695675471E+03  0.76798408601E+02 0.  0.
          6    2    1    2  501    0  0.52760178857E+02  0.60373938378E+02  0.67653981900E+03  0.70797527695E+03  0.19259859080E+03 0.  0.
         24    2    5    5    0    0 -0.17740324137E+02  0.97377346998E+02  0.37466208414E+03  0.39573845982E+03  0.80250759987E+02 0.  0.
          5    1    5    5  501    0  0.70500502994E+02 -0.37003408620E+02  0.30187773485E+03  0.31223681713E+03  0.47000000000E+01 0. -1.
        -11    1    6    6    0    0  0.19452576945E+02  0.85531450838E+02  0.27733083184E+03  0.29087183109E+03  0.00000000000E+00 0.  1.
         12    1    6    6    0    0 -0.37192901082E+02  0.11845896160E+02  0.97331252308E+02  0.10486662874E+03  0.00000000000E+00 0. -1.
         -5    1    3    3    0  503 -0.60648228780E+02 -0.37747380851E+01 -0.83150489261E+01  0.61511676456E+02  0.47000000000E+01 0.  1.
         13    1    4    4    0    0 -0.68319324610E+01 -0.58278238579E+02  0.13999803223E+03  0.15179748819E+03  0.00000000000E+00 0. -1.
        -14    1    4    4    0    0  0.14719982384E+02  0.16790382856E+01 -0.32103442821E+01  0.15159266518E+02  0.00000000000E+00 0.  1.
</event>
<event>
12    1  0.8416569E-002  0.1782462E+03  0.7818608E-02  0.1170451E+00
         21   -1    0    0  501  502  0.00000000000E+00  0.00000000000E+00  0.51871047340E+03  0.51871047340E+03  0.00000000000E+00 0.  1.
         21   -1    0    0  502  503 -0.00000000000E+00 -0.00000000000E+00 -0.86642855144E+02  0.86642855144E+02  0.00000000000E+00 0. -1.
         -6    2    1    2    0  503 -0.19286487357E+02 -0.36587969726E+02  0.49663522471E+02  0.18503556438E+03  0.17338121726E+03 0.  0.
        -24    2    3    3    0    0 -0.56232238469E+02 -0.51348407547E+02 -0.13164436341E+02  0.11052179747E+03  0.79012921295E+02 0.  0.
          6    2    1    2  501    0  0.19286487357E+02  0.36587969726E+02  0.38240409579E+03  0.42031776417E+03  0.16948003504E+03 0.  0.
         24    2    5    5    0    0  0.45443786981E+02 -0.27338824106E+02  0.28586501866E+03  0.30152078312E+03  0.79896337100E+02 0.  0.
          5    1    5    5  501    0 -0.26157299624E+02  0.63926793832E+02  0.96539077132E+02  0.11879698105E+03  0.47000000000E+01 0. -1.
        -11    1    6    6    0    0  0.29780441785E+02 -0.55535608118E+02  0.17222153409E+03  0.18338848188E+03  0.00000000000E+00 0.  1.
         12    1    6    6    0    0  0.15663345195E+02  0.28196784013E+02  0.11364348457E+03  0.11813230124E+03  0.00000000000E+00 0. -1.
         -5    1    3    3    0  503  0.36945751112E+02  0.14760437821E+02  0.62827958811E+02  0.74513766905E+02  0.47000000000E+01 0.  1.
         13    1    4    4    0    0 -0.83105904950E+01 -0.55766878159E+02 -0.23858750306E+02  0.61222957950E+02  0.00000000000E+00 0. -1.
        -14    1    4    4    0    0 -0.47921647974E+02  0.44184706120E+01  0.10694313965E+02  0.49298839523E+02  0.00000000000E+00 0.  1.
</event>
<event>
12    1  0.8416569E-002  0.1914650E+03  0.7818608E-02  0.1157698E+00
         21   -1    0    0  503  502  0.00000000000E+00  0.00000000000E+00  0.20272006285E+03  0.20272006285E+03  0.00000000000E+00 0. -1.
         21   -1    0    0  501  503 -0.00000000000E+00 -0.00000000000E+00 -0.36924999457E+03  0.36924999457E+03  0.00000000000E+00 0.  1.
          6    2    1    2  501    0  0.67292522312E+02 -0.36912187403E+02  0.12252651574E+03  0.22525333440E+03  0.17272962821E+03 0.  0.
         24    2    3    3    0    0  0.43208215597E+02  0.42258060852E+02  0.40749866663E+02  0.10881668908E+03  0.80794966353E+02 0.  0.
         -6    2    1    2    0  502 -0.67292522312E+02  0.36912187403E+02 -0.28905644746E+03  0.34671672302E+03  0.17540827536E+03 0.  0.
        -24    2    5    5    0    0 -0.28655576716E+02 -0.45068334333E+02 -0.10919865249E+03  0.14526068335E+03  0.79523729692E+02 0.  0.
          5    1    3    3  501    0  0.24084306716E+02 -0.79170248255E+02  0.81776649078E+02  0.11643664532E+03  0.47000000000E+01 0. -1.
        -13    1    4    4    0    0 -0.24205492448E+02  0.11087707434E+02  0.11143773092E+02  0.28862203649E+02  0.00000000000E+00 0.  1.
         14    1    4    4    0    0  0.67413708044E+02  0.31170353418E+02  0.29606093571E+02  0.79954485434E+02  0.00000000000E+00 0. -1.
         -5    1    5    5    0  502 -0.38636945596E+02  0.81980521736E+02 -0.17985779498E+03  0.20145603968E+03  0.47000000000E+01 0.  1.
         11    1    6    6    0    0 -0.29514085621E+02  0.10963651695E+02 -0.13277524610E+02  0.34169804921E+02  0.00000000000E+00 0. -1.
        -12    1    6    6    0    0  0.85850890519E+00 -0.56031986027E+02 -0.95921127879E+02  0.11109087843E+03  0.00000000000E+00 0.  1.
</event>
<event>
12    1  0.8416569E-002  0.2374569E+03  0.7818608E-02  0.1121789E+00
         21   -1    0    0  503  502  0.00000000000E+00  0.00000000000E+00  0.53608209085E+03  0.53608209085E+03  0.00000000000E+00 0.  1.
         21   -1    0    0  501  503 -0.00000000000E+00 -0.00000000000E+00 -0.12067652209E+03  0.12067652209E+03  0.00000000000E+00 0.  1.
          6    2    1    2  501    0  0.15876095711E+03 -0.26933911495E+02  0.87843647218E+02  0.25318426524E+03  0.17451443699E+03 0.  0.
         24    2    3    3    0    0  0.58440535909E+02  0.29364183394E+02  0.87441190631E+02  0.13804993339E+03  0.84464612633E+02 0.  0.
         -6    2    1    2    0  502 -0.15876095711E+03  0.26933911495E+02  0.32756192154E+03  0.40357434770E+03  0.17217713143E+03 0.  0.
        -24    2    5    5    0    0 -0.61601646604E+02  0.74659022066E+02  0.15296630898E+03  0.19809117145E+03  0.80453017857E+02 0.  0.
          5    1    3    3  501    0  0.10032042120E+03 -0.56298094889E+02  0.40245658723E+00  0.11513433185E+03  0.47000000000E+01 0. -1.
        -13    1    4    4    0    0  0.79783238065E+02  0.26957400447E+02  0.61006307512E+02  0.10398959598E+03  0.00000000000E+00 0.  1.
         14    1    4    4    0    0 -0.21342702156E+02  0.24067829466E+01  0.26434883119E+02  0.34060337417E+02  0.00000000000E+00 0. -1.
         -5    1    5    5    0  502 -0.97159310508E+02 -0.47725110571E+02  0.17459561256E+03  0.20548317625E+03  0.47000000000E+01 0.  1.
         11    1    6    6    0    0 -0.61706586588E+02  0.30510198555E+02  0.13274423695E+03  0.14953129267E+03  0.00000000000E+00 0. -1.
        -12    1    6    6    0    0  0.10493998402E+00  0.44148823511E+02  0.20222072035E+02  0.48559878781E+02  0.00000000000E+00 0.  1.
</event>
<event>
12    1  0.8416569E-002  0.2299056E+03  0.7818608E-02  0.1127372E+00
         21   -1    0    0  501  502  0.00000000000E+00  0.00000000000E+00  0.17569090266E+04  0.17569090266E+04  0.00000000000E+00 0.  1.
         21   -1    0    0  502  503 -0.00000000000E+00 -0.00000000000E+00 -0.69012269591E+02  0.69012269591E+02  0.00000000000E+00 0. -1.
         -6    2    1    2    0  503 -0.19930288061E+02  0.15062848582E+03  0.15101902471E+03  0.27194260809E+03  0.16751083293E+03 0.  0.
        -24    2    3    3    0    0  0.35937374775E+02  0.10236681176E+03  0.44391894761E+02  0.14216657111E+03  0.80437768274E+02 0.  0.
          6    2    1    2  501    0  0.19930288061E+02 -0.15062848582E+03  0.15368777323E+04  0.15539786881E+04  0.17254113106E+03 0.  0.
         24    2    5    5    0    0 -0.20067534062E+02 -0.15229123878E+03  0.95335936143E+03  0.96906983224E+03  0.81283088017E+02 0.  0.
          5    1    5    5  501    0  0.39997822123E+02  0.16627529594E+01  0.58351837084E+03  0.58490885583E+03  0.47000000000E+01 0. -1.
        -13    1    6    6    0    0  0.29355149667E+02 -0.63939729740E+02  0.46862058218E+03  0.47387262412E+03  0.00000000000E+00 0.  1.
         14    1    6    6    0    0 -0.49422683729E+02 -0.88351509039E+02  0.48473877925E+03  0.49519720812E+03  0.00000000000E+00 0. -1.
         -5    1    3    3    0  503 -0.55867662836E+02  0.48261674060E+02  0.10662712994E+03  0.12977603698E+03  0.47000000000E+01 0.  1.
         13    1    4    4    0    0 -0.16042046260E+01  0.80532763896E+02  0.68488784191E+00  0.80551651781E+02  0.00000000000E+00 0. -1.
        -14    1    4    4    0    0  0.37541579401E+02  0.21834047863E+02  0.43707006919E+02  0.61614919328E+02  0.00000000000E+00 0.  1.
</event>
<event>
12    1  0.8416569E-002  0.1970677E+03  0.7818608E-02  0.1152725E+00
         21   -1    0    0  501  502  0.00000000000E+00  0.00000000000E+00  0.10355017559E+03  0.10355017559E+03  0.00000000000E+00 0. -1.
         21   -1    0    0  502  503 -0.00000000000E+00 -0.00000000000E+00 -0.37089902787E+03  0.37089902787E+03  0.00000000000E+00 0. -1.
         -6    2    1    2    0  503  0.89223949848E+02  0.30868972788E+02 -0.13742641952E+03  0.23840782561E+03  0.17040675991E+03 0.  0.
        -24    2    3    3    0    0  0.11621708624E+03 -0.15094314124E+02 -0.99343231708E+02  0.17272927241E+03  0.78943488709E+02 0.  0.
          6    2    1    2  501    0 -0.89223949848E+02 -0.30868972788E+02 -0.12992243275E+03  0.23604137785E+03  0.17297944045E+03 0.  0.
         24    2    5    5    0    0 -0.13041608871E+03 -0.19281690701E+02 -0.96768548998E+02  0.18170605400E+03  0.79200998692E+02 0.  0.
          5    1    5    5  501    0  0.41192138862E+02 -0.11587282087E+02 -0.33153883750E+02  0.54335323850E+02  0.47000000000E+01 0. -1.
        -11    1    6    6    0    0 -0.26265681858E+01 -0.24237678576E+02 -0.66901596045E+01  0.25280865466E+02  0.00000000000E+00 0.  1.
         12    1    6    6    0    0 -0.12778952052E+03  0.49559878754E+01 -0.90078389394E+02  0.15642518853E+03  0.00000000000E+00 0. -1.
         -5    1    3    3    0  503 -0.26993136390E+02  0.45963286912E+02 -0.38083187816E+02  0.65678553198E+02  0.47000000000E+01 0.  1.
         11    1    4    4    0    0  0.65849041065E+02 -0.19080896845E+02 -0.10112323716E+03  0.12217236155E+03  0.00000000000E+00 0. -1.
        -12    1    4    4    0    0  0.50368045173E+02  0.39865827213E+01  0.17800054521E+01  0.50556910860E+02  0.00000000000E+00 0.  1.
</event>
<event>
12    1  0.8416569E-002  0.3124027E+03  0.7818608E-02  0.1079226E+00
         21   -1    0    0  501  502  0.00000000000E+00  0.00000000000E+00  0.11520486814E+04  0.11520486814E+04  0.00000000000E+00 0. -1.
         21   -1    0    0  502  503 -0.00000000000E+00 -0.00000000000E+00 -0.49159879377E+03  0.49159879377E+03  0.00000000000E+00 0.  1.
         -6    2    1    2    0  503  0.21416721800E+03 -0.14747897910E+03 -0.41747811816E+03  0.52142443267E+03  0.17314102142E+03 0.  0.
        -24    2    3    3    0    0  0.56371884953E+02 -0.11467265399E+03 -0.22268102265E+03  0.26855367414E+03  0.78782174763E+02 0.  0.
          6    2    1    2  501    0 -0.21416721800E+03  0.14747897910E+03  0.10779280058E+04  0.11222230425E+04  0.17273715556E+03 0.  0.
         24    2    5    5    0    0 -0.15817189034E+03  0.30319610345E+02  0.70036559946E+03  0.72292709326E+03  0.78574700752E+02 0.  0.
          5    1    5    5  501    0 -0.55995327662E+02  0.11715936875E+03  0.37756240634E+03  0.39929594925E+03  0.47000000000E+01 0. -1.
        -13    1    6    6    0    0 -0.41998075638E+02 -0.15544805070E+02  0.30588945312E+03  0.30915018494E+03  0.00000000000E+00 0.  1.
         14    1    6    6    0    0 -0.11617381470E+03  0.45864415415E+02  0.39447614635E+03  0.41377690832E+03  0.00000000000E+00 0. -1.
         -5    1    3    3    0  503  0.15779533305E+03 -0.32806325108E+02 -0.19479709552E+03  0.25287075853E+03  0.47000000000E+01 0.  1.
         13    1    4    4    0    0 -0.79421238197E+00  0.54873446176E+01 -0.51205146919E+02  0.51504454130E+02  0.00000000000E+00 0. -1.
        -14    1    4    4    0    0  0.57166097335E+02 -0.12015999861E+03 -0.17147587573E+03  0.21704922001E+03  0.00000000000E+00 0.  1.
</event>
<event>
12    1  0.8416569E-002  0.1757217E+03  0.7818608E-02  0.1172322E+00
         21   -1    0    0  501  502  0.00000000000E+00  0.00000000000E+00  0.16319337258E+03  0.16319337258E+03  0.00000000000E+00 0.  1.
         21   -1    0    0  502  503 -0.00000000000E+00 -0.00000000000E+00 -0.13117868133E+04  0.13117868133E+04  0.00000000000E+00 0.  1.
         -6    2    1    2    0  503 -0.57755558124E+01 -0.29732806375E+02 -0.12572283543E+04  0.12694491887E+04  0.17309162576E+03 0.  0.
        -24    2    3    3    0    0 -0.21459925793E+02 -0.67992877049E+01 -0.12196222831E+04  0.12224571433E+04  0.80101154275E+02 0.  0.
          6    2    1    2  501    0  0.57755558124E+01  0.29732806375E+02  0.10863491357E+03  0.20553099723E+03  0.17182563707E+03 0.  0.
         24    2    5    5    0    0  0.22538002807E+02  0.57023501768E+02  0.11649059602E+02  0.10328566700E+03  0.82295729498E+02 0.  0.
          5    1    5    5  501    0 -0.16762446995E+02 -0.27290695393E+02  0.96985853965E+02  0.10224533023E+03  0.47000000000E+01 0. -1.
        -11    1    6    6    0    0  0.45613331451E+02  0.60575450845E+02  0.20114886461E+02  0.78451066969E+02  0.00000000000E+00 0.  1.
         12    1    6    6    0    0 -0.23075328644E+02 -0.35519490774E+01 -0.84658268593E+01  0.24834600031E+02  0.00000000000E+00 0. -1.
         -5    1    3    3    0  503  0.15684369981E+02 -0.22933518670E+02 -0.37606071177E+02  0.46992045387E+02  0.47000000000E+01 0.  1.
         13    1    4    4    0    0  0.21176543262E+02  0.22939630383E+02 -0.45450708375E+03  0.45557805238E+03  0.00000000000E+00 0. -1.
        -14    1    4    4    0    0 -0.42636469055E+02 -0.29738918088E+02 -0.76511519938E+03  0.76687909090E+03  0.00000000000E+00 0.  1.
</event>
<event>
12    1  0.8416569E-002  0.2398526E+03  0.7818608E-02  0.1119996E+00
         21   -1    0    0  501  502  0.00000000000E+00  0.00000000000E+00  0.50376088749E+03  0.50376088749E+03  0.00000000000E+00 0.  1.
         21   -1    0    0  502  503 -0.00000000000E+00 -0.00000000000E+00 -0.15593967504E+03  0.15593967504E+03  0.00000000000E+00 0. -1.
         -6    2    1    2    0  503  0.19376365678E+02  0.16571954061E+03  0.28151636100E+01  0.23986915488E+03  0.17231040779E+03 0.  0.
        -24    2    3    3    0    0  0.33654923161E+02  0.18000673782E+03  0.33889529830E+02  0.20250998674E+03  0.79540649887E+02 0.  0.
          6    2    1    2  501    0 -0.19376365678E+02 -0.16571954061E+03  0.34500604884E+03  0.41983140765E+03  0.17143753215E+03 0.  0.
         24    2    5    5    0    0  0.53381811934E+02 -0.11321099850E+03  0.27261364890E+03  0.30444662107E+03  0.51992263776E+02 0.  0.
          5    1    5    5  501    0 -0.72758177612E+02 -0.52508542111E+02  0.72392399942E+02  0.11538478658E+03  0.47000000000E+01 0. -1.
        -13    1    6    6    0    0  0.36833994896E+02 -0.22601308512E+02  0.95123901415E+02  0.10448023233E+03  0.00000000000E+00 0.  1.
         14    1    6    6    0    0  0.16547817038E+02 -0.90609689984E+02  0.17748974748E+03  0.19996638875E+03  0.00000000000E+00 0. -1.
         -5    1    3    3    0  503 -0.14278557483E+02 -0.14287197214E+02 -0.31074366220E+02  0.37359168138E+02  0.47000000000E+01 0.  1.
         11    1    4    4    0    0 -0.14401308878E+02  0.38198964670E+02 -0.17207732425E+02  0.44301971226E+02  0.00000000000E+00 0. -1.
        -12    1    4    4    0    0  0.48056232039E+02  0.14180777315E+03  0.51097262255E+02  0.15820801552E+03  0.00000000000E+00 0.  1.
</event>
<event>
12    1  0.8416569E-002  0.1778677E+03  0.7818608E-02  0.1170209E+00
         21   -1    0    0  501  502  0.00000000000E+00  0.00000000000E+00  0.29775634995E+03  0.29775634995E+03  0.00000000000E+00 0. -1.
         21   -1    0    0  502  503 -0.00000000000E+00 -0.00000000000E+00 -0.20803587274E+03  0.20803587274E+03  0.00000000000E+00 0. -1.
         -6    2    1    2    0  503  0.40053095330E+01 -0.40040857344E+02 -0.13280258597E+03  0.22091782731E+03  0.17189778015E+03 0.  0.
        -24    2    3    3    0    0 -0.13409741522E+02 -0.88913494209E+02 -0.11297816616E+03  0.16517810845E+03  0.80214156243E+02 0.  0.
          6    2    1    2  501    0 -0.40053095330E+01  0.40040857344E+02  0.22252306319E+03  0.28487439538E+03  0.17325586493E+03 0.  0.
         24    2    5    5    0    0  0.47528816655E+02 -0.14876223252E+02  0.16319025334E+03  0.18888416553E+03  0.81030110271E+02 0.  0.
          5    1    5    5  501    0 -0.51534126188E+02  0.54917080596E+02  0.59332809844E+02  0.95990229852E+02  0.47000000000E+01 0. -1.
        -13    1    6    6    0    0 -0.59724276337E+01 -0.36334200177E+02  0.53134590969E+02  0.64646181262E+02  0.00000000000E+00 0.  1.
         14    1    6    6    0    0  0.53501244288E+02  0.21457976925E+02  0.11005566237E+03  0.12423798427E+03  0.00000000000E+00 0. -1.
         -5    1    3    3    0  503  0.17415051055E+02  0.48872636865E+02 -0.19824419810E+02  0.55739718857E+02  0.47000000000E+01 0.  1.
         11    1    4    4    0    0 -0.40390116189E+02 -0.65808595866E+02 -0.47415386235E+02  0.90610990654E+02  0.00000000000E+00 0. -1.
        -12    1    4    4    0    0  0.26980374666E+02 -0.23104898343E+02 -0.65562779929E+02  0.74567117797E+02  0.00000000000E+00 0.  1.
</event>
<event>
12    1  0.8416569E-002  0.1740555E+03  0.7818608E-02  0.1174031E+00
         21   -1    0    0  501  502  0.00000000000E+00  0.00000000000E+00  0.23350084591E+03  0.23350084591E+03  0.00000000000E+00 0.  1.
         21   -1    0    0  502  503 -0.00000000000E+00 -0.00000000000E+00 -0.20756729505E+03  0.20756729505E+03  0.00000000000E+00 0.  1.
         -6    2    1    2    0  503 -0.15041875595E+02 -0.15070056326E+02 -0.12291869831E+03  0.21308290558E+03  0.17274823773E+03 0.  0.
        -24    2    3    3    0    0  0.37325160638E+02 -0.52663487256E+02 -0.57141730897E+02  0.12086429589E+03  0.84713576855E+02 0.  0.
          6    2    1    2  501    0  0.15041875595E+02  0.15070056326E+02  0.14885224917E+03  0.22798523537E+03  0.17136776490E+03 0.  0.
         24    2    5    5    0    0 -0.36335813936E+02  0.59710679178E+02  0.10031442917E+03  0.14425673269E+03  0.76559543139E+02 0.  0.
          5    1    5    5  501    0  0.51377689531E+02 -0.44640622852E+02  0.48537819999E+02  0.83728502676E+02  0.47000000000E+01 0. -1.
        -11    1    6    6    0    0  0.10747808953E+02  0.12812055623E+02  0.68623118914E+02  0.70631413805E+02  0.00000000000E+00 0.  1.
         12    1    6    6    0    0 -0.47083622888E+02  0.46898623555E+02  0.31691310252E+02  0.73625318887E+02  0.00000000000E+00 0. -1.
         -5    1    3    3    0  503 -0.52367036233E+02  0.37593430930E+02 -0.65776967411E+02  0.92218609698E+02  0.47000000000E+01 0.  1.
         11    1    4    4    0    0 -0.23338885018E+01 -0.63431392347E+02 -0.45674749395E+02  0.78199560759E+02  0.00000000000E+00 0. -1.
        -12    1    4    4    0    0  0.39659049140E+02  0.10767905091E+02 -0.11466981502E+02  0.42664735127E+02  0.00000000000E+00 0.  1.
</event>
<event>
12    1  0.8416569E-002  0.2552773E+03  0.7818608E-02  0.1110413E+00
         21   -1    0    0  501  502  0.00000000000E+00  0.00000000000E+00  0.30038804134E+03  0.30038804134E+03  0.00000000000E+00 0.  1.
         21   -1    0    0  502  503 -0.00000000000E+00 -0.00000000000E+00 -0.30093992662E+03  0.30093992662E+03  0.00000000000E+00 0. -1.
         -6    2    1    2    0  503  0.11735254534E+03  0.14823444439E+03 -0.16117453941E+03  0.29972207355E+03  0.16766340931E+03 0.  0.
        -24    2    3    3    0    0  0.67379269769E+02  0.75431701793E+02 -0.16110511856E+02  0.12983025594E+03  0.79789968895E+02 0.  0.
          6    2    1    2  501    0 -0.11735254534E+03 -0.14823444439E+03  0.16062265413E+03  0.30160589441E+03  0.17152669798E+03 0.  0.
         24    2    5    5    0    0 -0.63179411669E+02 -0.17010217140E+03  0.11611576757E+03  0.22801323956E+03  0.74704612723E+02 0.  0.
          5    1    5    5  501    0 -0.54173133673E+02  0.21867727010E+02  0.44506886551E+02  0.73592654844E+02  0.47000000000E+01 0. -1.
        -11    1    6    6    0    0 -0.18623751241E+02 -0.77403506989E+02  0.10007429962E+02  0.80238990890E+02  0.00000000000E+00 0.  1.
         12    1    6    6    0    0 -0.44555660428E+02 -0.92698664414E+02  0.10610833761E+03  0.14777424867E+03  0.00000000000E+00 0. -1.
         -5    1    3    3    0  503  0.49973275573E+02  0.72802742600E+02 -0.14506402755E+03  0.16989181761E+03  0.47000000000E+01 0.  1.
         13    1    4    4    0    0  0.67225456249E+02  0.74872440252E+02 -0.38275561171E+02  0.10765761868E+03  0.00000000000E+00 0. -1.
        -14    1    4    4    0    0  0.15381352016E+00  0.55926154084E+00  0.22165049315E+02  0.22172637263E+02  0.00000000000E+00 0.  1.
</event>
<event>
12    1  0.8416569E-002  0.2828407E+03  0.7818608E-02  0.1094325E+00
         21   -1    0    0  501  502  0.00000000000E+00  0.00000000000E+00  0.15750515125E+04  0.15750515125E+04  0.00000000000E+00 0.  1.
         21   -1    0    0  502  503 -0.00000000000E+00 -0.00000000000E+00 -0.63394359146E+02  0.63394359146E+02  0.00000000000E+00 0. -1.
         -6    2    1    2    0  503  0.16171521197E+03  0.15319831996E+03  0.38574512822E+03  0.47755105389E+03  0.17214578155E+03 0.  0.
        -24    2    3    3    0    0  0.15292147318E+03  0.16763588942E+03  0.27437405383E+03  0.36480630029E+03  0.79471673793E+02 0.  0.
          6    2    1    2  501    0 -0.16171521197E+03 -0.15319831996E+03  0.11259120251E+04  0.11608948177E+04  0.17429100527E+03 0.  0.
         24    2    5    5    0    0 -0.62425048078E+02 -0.32577249652E+02  0.26919892344E+03  0.29004040520E+03  0.81836498243E+02 0.  0.
          5    1    5    5  501    0 -0.99290163893E+02 -0.12062107031E+03  0.85671310165E+03  0.87085441251E+03  0.47000000000E+01 0. -1.
        -13    1    6    6    0    0 -0.62609770884E+02 -0.11013850659E+02  0.25804909140E+03  0.26576422236E+03  0.00000000000E+00 0.  1.
         14    1    6    6    0    0  0.18472280571E+00 -0.21563398993E+02  0.11149832044E+02  0.24276182839E+02  0.00000000000E+00 0. -1.
         -5    1    3    3    0  503  0.87937387928E+01 -0.14437569461E+02  0.11137107439E+03  0.11274475360E+03  0.47000000000E+01 0.  1.
         11    1    4    4    0    0  0.49441595182E+02  0.83242850727E+01  0.65094421018E+02  0.82164765586E+02  0.00000000000E+00 0. -1.
        -12    1    4    4    0    0  0.10347987800E+03  0.15931160435E+03  0.20927963281E+03  0.28264153471E+03  0.00000000000E+00 0.  1.
</event>
<event>
12    1  0.8416569E-002  0.1934140E+03  0.7818608E-02  0.1155669E+00
         21   -1    0    0  503  502  0.00000000000E+00  0.00000000000E+00  0.36551286704E+03  0.36551286704E+03  0.00000000000E+00 0.  1.
         21   -1    0    0  501  503 -0.00000000000E+00 -0.00000000000E+00 -0.12379044272E+03  0.12379044272E+03  0.00000000000E+00 0.  1.
          6    2    1    2  501    0 -0.29350875579E+02  0.82680345673E+02  0.17327985422E+02  0.19305703179E+03  0.17109425761E+03 0.  0.
         24    2    3    3    0    0  0.42309066880E+02  0.44201050188E+02 -0.42396130293E+01  0.10877740888E+03  0.89837410843E+02 0.  0.
         -6    2    1    2    0  502  0.29350875579E+02 -0.82680345673E+02  0.22439443891E+03  0.29624627797E+03  0.17237018171E+03 0.  0.
        -24    2    5    5    0    0  0.32965057375E+02 -0.57333373943E+02  0.42626936329E+02  0.11262425783E+03  0.80581368669E+02 0.  0.
          5    1    3    3  501    0 -0.71659942459E+02  0.38479295485E+02  0.21567598451E+02  0.84279622906E+02  0.47000000000E+01 0. -1.
        -13    1    4    4    0    0 -0.42554244782E+01  0.53657273786E+02 -0.21867080500E+02  0.58098028170E+02  0.00000000000E+00 0.  1.
         14    1    4    4    0    0  0.46564491358E+02 -0.94562235982E+01  0.17627467470E+02  0.50679380714E+02  0.00000000000E+00 0. -1.
         -5    1    5    5    0  502 -0.36141817961E+01 -0.25346971730E+02  0.18176750258E+03  0.18362202014E+03  0.47000000000E+01 0.  1.
         13    1    6    6    0    0  0.43432959701E+01 -0.71171523782E+02  0.21582937282E+02  0.74498813407E+02  0.00000000000E+00 0. -1.
        -14    1    6    6    0    0  0.28621761405E+02  0.13838149839E+02  0.21043999047E+02  0.38125444428E+02  0.00000000000E+00 0.  1.
</event>
<event>
12    1  0.8416569E-002  0.2191626E+03  0.7818608E-02  0.1134683E+00
         21   -1    0    0  503  502  0.00000000000E+00  0.00000000000E+00  0.18776188210E+03  0.18776188210E+03  0.00000000000E+00 0.  1.
         21   -1    0    0  501  503 -0.00000000000E+00 -0.00000000000E+00 -0.58454495782E+03  0.58454495782E+03  0.00000000000E+00 0.  1.
          6    2    1    2  501    0  0.74375744921E+02  0.11195840845E+03  0.91482004965E+02  0.23748940606E+03  0.17310639533E+03 0.  0.
         24    2    3    3    0    0  0.63372159564E+02  0.10919750839E+03  0.40534697559E+01  0.14920271268E+03  0.79403352622E+02 0.  0.
         -6    2    1    2    0  502 -0.74375744921E+02 -0.11195840845E+03 -0.48826508069E+03  0.53481743386E+03  0.17193156161E+03 0.  0.
        -24    2    5    5    0    0 -0.92335645836E+02 -0.12205336070E+03 -0.30385617533E+03  0.34920170048E+03  0.78678828030E+02 0.  0.
          5    1    3    3  501    0  0.11003585357E+02  0.27609000647E+01  0.87428535209E+02  0.88286693384E+02  0.47000000000E+01 0. -1.
        -13    1    4    4    0    0  0.42141915535E+02  0.20796804315E+02  0.28625835423E+02  0.55026235273E+02  0.00000000000E+00 0.  1.
         14    1    4    4    0    0  0.21230244029E+02  0.88400704072E+02 -0.24572365667E+02  0.94176477405E+02  0.00000000000E+00 0. -1.
         -5    1    5    5    0  502  0.17959900915E+02  0.10094952244E+02 -0.18440890536E+03  0.18561573338E+03  0.47000000000E+01 0.  1.
         11    1    6    6    0    0 -0.59458109340E+02 -0.23138692857E+02 -0.80477458403E+02  0.10269998629E+03  0.00000000000E+00 0. -1.
        -12    1    6    6    0    0 -0.32877536496E+02 -0.98914667838E+02 -0.22337871693E+03  0.24650171418E+03  0.00000000000E+00 0.  1.
</event>
<event>
12    1  0.8416569E-002  0.1996619E+03  0.7818608E-02  0.1150400E+00
         21   -1    0    0  503  502  0.00000000000E+00  0.00000000000E+00  0.17364928654E+03  0.17364928654E+03  0.00000000000E+00 0. -1.
         21   -1    0    0  501  503 -0.00000000000E+00 -0.00000000000E+00 -0.23017780021E+03  0.23017780021E+03  0.00000000000E+00 0. -1.
          6    2    1    2  501    0 -0.24597646367E+02  0.94762094840E+02 -0.67822049300E+01  0.19977708968E+03  0.17401146063E+03 0.  0.
         24    2    3    3    0    0  0.25507522692E+02  0.27157039438E+02 -0.57027726056E+02  0.10165637894E+03  0.75456738172E+02 0.  0.
         -6    2    1    2    0  502  0.24597646367E+02 -0.94762094840E+02 -0.49746308742E+02  0.20404999708E+03  0.17197908957E+03 0.  0.
        -24    2    5    5    0    0  0.53171087597E+02 -0.12101024013E+03 -0.22003665374E+02  0.15612139459E+03  0.80119197368E+02 0.  0.
          5    1    3    3  501    0 -0.50105169059E+02  0.67605055402E+02  0.50245521126E+02  0.98120710737E+02  0.47000000000E+01 0. -1.
        -13    1    4    4    0    0  0.37005897995E+02 -0.68473658263E+01 -0.43127728593E+01  0.37880376382E+02  0.00000000000E+00 0.  1.
         14    1    4    4    0    0 -0.11498375302E+02  0.34004405264E+02 -0.52714953197E+02  0.63776002560E+02  0.00000000000E+00 0. -1.
         -5    1    5    5    0  502 -0.28573441230E+02  0.26248145292E+02 -0.27742643368E+02  0.47928602484E+02  0.47000000000E+01 0.  1.
         11    1    6    6    0    0  0.97445478404E+01  0.33395128681E+01 -0.22126504458E+02  0.24406776893E+02  0.00000000000E+00 0. -1.
        -12    1    6    6    0    0  0.43426539757E+02 -0.12434975300E+03  0.12283908347E+00  0.13171461770E+03  0.00000000000E+00 0.  1.
</event>
<event>
12    1  0.8416569E-002  0.1741177E+03  0.7818608E-02  0.1173695E+00
         21   -1    0    0  501  502  0.00000000000E+00  0.00000000000E+00  0.17024196300E+03  0.17024196300E+03  0.00000000000E+00 0.  1.
         21   -1    0    0  502  503 -0.00000000000E+00 -0.00000000000E+00 -0.22277403177E+03  0.22277403177E+03  0.00000000000E+00 0.  1.
         -6    2    1    2    0  503 -0.13796804963E+02  0.23006693642E+02 -0.11456139628E+03  0.20817925544E+03  0.17174000436E+03 0.  0.
        -24    2    3    3    0    0  0.26637644499E+02  0.64216940744E+02 -0.39449130131E+02  0.11332583328E+03  0.80331382644E+02 0.  0.
          6    2    1    2  501    0  0.13796804963E+02 -0.23006693642E+02  0.62029327504E+02  0.18483673933E+03  0.17203872517E+03 0.  0.
         24    2    5    5    0    0  0.51747616851E+02 -0.47759963882E+02 -0.26965730875E+01  0.10568801403E+03  0.78764552957E+02 0.  0.
          5    1    5    5  501    0 -0.37950811889E+02  0.24753270240E+02  0.64725900592E+02  0.79148725309E+02  0.47000000000E+01 0. -1.
        -13    1    6    6    0    0 -0.16535921067E+02 -0.39839386366E+01  0.14989326020E+02  0.22671311103E+02  0.00000000000E+00 0.  1.
         14    1    6    6    0    0  0.68283537919E+02 -0.43776025246E+02 -0.17685899107E+02  0.83016702923E+02  0.00000000000E+00 0. -1.
         -5    1    3    3    0  503 -0.40434449462E+02 -0.41210247102E+02 -0.75112266146E+02  0.94853422158E+02  0.47000000000E+01 0.  1.
         13    1    4    4    0    0 -0.26763902422E+02  0.34254028855E+02 -0.70126360070E+01  0.44032056838E+02  0.00000000000E+00 0. -1.
        -14    1    4    4    0    0  0.53401546922E+02  0.29962911889E+02 -0.32436494124E+02  0.69293776442E+02  0.00000000000E+00 0.  1.
</event>
<event>
12    1  0.8416569E-002  0.1845518E+03  0.7818608E-02  0.1164716E+00
         21   -1    0    0  501  502  0.00000000000E+00  0.00000000000E+00  0.17119783964E+03  0.17119783964E+03  0.00000000000E+00 0.  1.
         21   -1    0    0  502  503 -0.00000000000E+00 -0.00000000000E+00 -0.20147530275E+03  0.20147530275E+03  0.00000000000E+00 0.  1.
         -6    2    1    2    0  503 -0.36358966604E+02 -0.44948333586E+02 -0.52380182544E+02  0.18680248688E+03  0.16973260864E+03 0.  0.
        -24    2    3    3    0    0 -0.52654909804E+02 -0.21965349170E+01  0.22166586473E+02  0.99209194754E+02  0.81078619104E+02 0.  0.
          6    2    1    2  501    0  0.36358966604E+02  0.44948333586E+02  0.22102719433E+02  0.18587065550E+03  0.17526278335E+03 0.  0.
         24    2    5    5    0    0 -0.35040418324E+02  0.41674305231E+02  0.50902097301E+02  0.10866906488E+03  0.79078211403E+02 0.  0.
          5    1    5    5  501    0  0.71399384928E+02  0.32740283551E+01 -0.28799377868E+02  0.77201590628E+02  0.47000000000E+01 0. -1.
        -13    1    6    6    0    0  0.95544609766E+01  0.22000452346E+02  0.54752129381E+02  0.59775440607E+02  0.00000000000E+00 0.  1.
         14    1    6    6    0    0 -0.44594879301E+02  0.19673852885E+02 -0.38500320800E+01  0.48893624269E+02  0.00000000000E+00 0. -1.
         -5    1    3    3    0  503  0.16295943200E+02 -0.42751798669E+02 -0.74546769017E+02  0.87593292124E+02  0.47000000000E+01 0.  1.
         11    1    4    4    0    0 -0.25993973364E+02  0.33067282729E+02 -0.11541995821E+02  0.43615931789E+02  0.00000000000E+00 0. -1.
        -12    1    4    4    0    0 -0.26660936440E+02 -0.35263817646E+02  0.33708582294E+02  0.55593262965E+02  0.00000000000E+00 0.  1.
</event>
<event>
12    1  0.8416569E-002  0.3786610E+03  0.7818608E-02  0.1051446E+00
         21   -1    0    0  503  502  0.00000000000E+00  0.00000000000E+00  0.57237173267E+03  0.57237173267E+03  0.00000000000E+00 0. -1.
         21   -1    0    0  501  503 -0.00000000000E+00 -0.00000000000E+00 -0.26474732841E+03  0.26474732841E+03  0.00000000000E+00 0. -1.
          6    2    1    2  501    0  0.16266238474E+03 -0.29556311342E+03  0.25130915652E+03  0.45446719048E+03  0.17195211442E+03 0.  0.
         24    2    3    3    0    0  0.11526432380E+03 -0.28938732115E+03  0.17992270321E+03  0.36842747694E+03  0.79597365835E+02 0.  0.
         -6    2    1    2    0  502 -0.16266238474E+03  0.29556311342E+03  0.56315247748E+02  0.38265187060E+03  0.17156468611E+03 0.  0.
        -24    2    5    5    0    0 -0.13740563006E+03  0.26832583488E+03 -0.42839714909E+01  0.31141895425E+03  0.78002255211E+02 0.  0.
          5    1    3    3  501    0  0.47398060935E+02 -0.61757922682E+01  0.71386453314E+02  0.86039713547E+02  0.47000000000E+01 0. -1.
        -11    1    4    4    0    0  0.43753909383E+01 -0.29861969787E+02 -0.55881573437E+01  0.30693790706E+02  0.00000000000E+00 0.  1.
         12    1    4    4    0    0  0.11088893287E+03 -0.25952535136E+03  0.18551086055E+03  0.33773368623E+03  0.00000000000E+00 0. -1.
         -5    1    5    5    0  502 -0.25256754682E+02  0.27237278540E+02  0.60599219239E+02  0.71232916350E+02  0.47000000000E+01 0.  1.
         11    1    6    6    0    0 -0.14617510387E+03  0.26180615073E+03 -0.77666774342E+01  0.29994990053E+03  0.00000000000E+00 0. -1.
        -12    1    6    6    0    0  0.87694738150E+01  0.65196841493E+01  0.34827059433E+01  0.11469053714E+02  0.00000000000E+00 0.  1.
</event>
<event>
12    1  0.8416569E-002  0.1916443E+03  0.7818608E-02  0.1157085E+00
         21   -1    0    0  501  502  0.00000000000E+00  0.00000000000E+00  0.16422751191E+03  0.16422751191E+03  0.00000000000E+00 0. -1.
         21   -1    0    0  502  503 -0.00000000000E+00 -0.00000000000E+00 -0.24273097004E+03  0.24273097004E+03  0.00000000000E+00 0. -1.
         -6    2    1    2    0  503  0.84123995450E+02  0.17122696948E+02 -0.97041171674E+02  0.21441965885E+03  0.17084720583E+03 0.  0.
        -24    2    3    3    0    0  0.72395146402E+02  0.68311983688E+02 -0.32654781017E+02  0.13119943127E+03  0.78989693653E+02 0.  0.
          6    2    1    2  501    0 -0.84123995450E+02 -0.17122696948E+02  0.18537713545E+02  0.19253882309E+03  0.17134035781E+03 0.  0.
         24    2    5    5    0    0 -0.41504894399E+02  0.51439884827E+02  0.54661121859E+01  0.11062318261E+03  0.88537518250E+02 0.  0.
          5    1    5    5  501    0 -0.42619101051E+02 -0.68562581776E+02  0.13071601359E+02  0.81915640486E+02  0.47000000000E+01 0. -1.
        -11    1    6    6    0    0 -0.65701341335E+02  0.50030014303E+02 -0.78761434509E+01  0.82956025822E+02  0.00000000000E+00 0.  1.
         12    1    6    6    0    0  0.24196446936E+02  0.14098705240E+01  0.13342255637E+02  0.27667156787E+02  0.00000000000E+00 0. -1.
         -5    1    3    3    0  503  0.11728849049E+02 -0.51189286740E+02 -0.64386390657E+02  0.83220227582E+02  0.47000000000E+01 0.  1.
         13    1    4    4    0    0  0.46829653778E+02  0.83471632263E+02 -0.15725199540E+02  0.96993874890E+02  0.00000000000E+00 0. -1.
        -14    1    4    4    0    0  0.25565492623E+02 -0.15159648575E+02 -0.16929581477E+02  0.34205556376E+02  0.00000000000E+00 0.  1.
</event>
<event>
12    1  0.8416569E-002  0.1859199E+03  0.7818608E-02  0.1162369E+00
         21   -1    0    0  503  502  0.00000000000E+00  0.00000000000E+00  0.63765690367E+03  0.63765690367E+03  0.00000000000E+00 0.  1.
         21   -1    0    0  501  503 -0.00000000000E+00 -0.00000000000E+00 -0.79702875308E+02  0.79702875308E+02  0.00000000000E+00 0.  1.
          6    2    1    2  501    0 -0.50921274601E+02 -0.46724446882E+02  0.48309394915E+03  0.51763496875E+03  0.17259793460E+03 0.  0.
         24    2    3    3    0    0 -0.87999440463E+02 -0.64227974953E+02  0.42789859183E+03  0.44871631127E+03  0.79874832254E+02 0.  0.
         -6    2    1    2    0  502  0.50921274601E+02  0.46724446882E+02  0.74860079215E+02  0.19972481023E+03  0.17178421993E+03 0.  0.
        -24    2    5    5    0    0  0.96419898538E+02  0.35687028388E+02  0.79014102003E+02  0.15248822173E+03  0.80243807381E+02 0.  0.
          5    1    3    3  501    0  0.37078165862E+02  0.17503528071E+02  0.55195357321E+02  0.68918657477E+02  0.47000000000E+01 0. -1.
        -13    1    4    4    0    0  0.82624675212E+01 -0.57459899890E+01  0.12748686119E+03  0.12788348035E+03  0.00000000000E+00 0.  1.
         14    1    4    4    0    0 -0.96261907984E+02 -0.58481984964E+02  0.30041173064E+03  0.32083283092E+03  0.00000000000E+00 0. -1.
         -5    1    5    5    0  502 -0.45498623937E+02  0.11037418494E+02 -0.41540227885E+01  0.47236588494E+02  0.47000000000E+01 0.  1.
         11    1    6    6    0    0  0.13510107374E+02  0.31874696047E+02  0.56884895246E+02  0.66591369985E+02  0.00000000000E+00 0. -1.
        -12    1    6    6    0    0  0.82909791164E+02  0.38123323405E+01  0.22129206757E+02  0.85896851749E+02  0.00000000000E+00 0.  1.
</event>
<event>
12    1  0.8416569E-002  0.1813896E+03  0.7818608E-02  0.1166603E+00
         21   -1    0    0  503  502  0.00000000000E+00  0.00000000000E+00  0.90871048399E+03  0.90871048399E+03  0.00000000000E+00 0. -1.
         21   -1    0    0  501  503 -0.00000000000E+00 -0.00000000000E+00 -0.81158597076E+02  0.81158597076E+02  0.00000000000E+00 0. -1.
          6    2    1    2  501    0 -0.96910880166E+01 -0.55011150094E+02  0.45257519838E+02  0.18695038818E+03  0.17257479746E+03 0.  0.
         24    2    3    3    0    0 -0.50804810571E+02 -0.46224036582E+02  0.80348218537E+02  0.13198677584E+03  0.79037221861E+02 0.  0.
         -6    2    1    2    0  502  0.96910880166E+01  0.55011150094E+02  0.78229436707E+03  0.80291869288E+03  0.17197036608E+03 0.  0.
        -24    2    5    5    0    0  0.64969711841E+00  0.97879820532E+02  0.68112168405E+03  0.69256711181E+03  0.78368198341E+02 0.  0.
          5    1    3    3  501    0  0.41113722554E+02 -0.87871135119E+01 -0.35090698699E+02  0.54963612339E+02  0.47000000000E+01 0. -1.
        -11    1    4    4    0    0  0.12069919594E+02 -0.27987054037E+02  0.52789562134E+02  0.60956509275E+02  0.00000000000E+00 0.  1.
         12    1    4    4    0    0 -0.62874730164E+02 -0.18236982544E+02  0.27558656403E+02  0.71030266565E+02  0.00000000000E+00 0. -1.
         -5    1    5    5    0  502  0.90413908982E+01 -0.42868670438E+02  0.10117268303E+03  0.11035158107E+03  0.47000000000E+01 0.  1.
         11    1    6    6    0    0 -0.19473933711E+02  0.64381022127E+02  0.58426745880E+03  0.58812635846E+03  0.00000000000E+00 0. -1.
        -12    1    6    6    0    0  0.20123630830E+02  0.33498798405E+02  0.96854225248E+02  0.10444075335E+03  0.00000000000E+00 0.  1.
</event>
<event>
12    1  0.8416569E-002  0.2664405E+03  0.7818608E-02  0.1103455E+00
         21   -1    0    0  501  502  0.00000000000E+00  0.00000000000E+00  0.16901730489E+04  0.16901730489E+04  0.00000000000E+00 0. -1.
         21   -1    0    0  502  503 -0.00000000000E+00 -0.00000000000E+00 -0.14249987632E+03  0.14249987632E+03  0.00000000000E+00 0.  1.
         -6    2    1    2    0  503  0.18882382515E+03  0.74218296673E+02  0.34491870109E+01  0.26563168065E+03  0.17142199500E+03 0.  0.
        -24    2    3    3    0    0  0.16520579986E+03  0.65461739541E+02  0.59966492998E+02  0.20357699277E+03  0.79179644183E+02 0.  0.
          6    2    1    2  501    0 -0.18882382515E+03 -0.74218296673E+02  0.15442239856E+04  0.15670412446E+04  0.17270712806E+03 0.  0.
         24    2    5    5    0    0 -0.84079728503E+02 -0.46869925957E+02  0.11889294388E+04  0.11955906231E+04  0.81348245924E+02 0.  0.
          5    1    5    5  501    0 -0.10474409664E+03 -0.27348370716E+02  0.35529454685E+03  0.37145062146E+03  0.47000000000E+01 0. -1.
        -13    1    6    6    0    0 -0.21092394469E+02 -0.17865914053E+02  0.82849912295E+02  0.87339498262E+02  0.00000000000E+00 0.  1.
         14    1    6    6    0    0 -0.62987334035E+02 -0.29004011904E+02  0.11060795265E+04  0.11082511249E+04  0.00000000000E+00 0. -1.
         -5    1    3    3    0  503  0.23618025287E+02  0.87565571321E+01 -0.56517305987E+02  0.62054687875E+02  0.47000000000E+01 0.  1.
         13    1    4    4    0    0 -0.53846814188E+01  0.84909627822E+01  0.15221562214E+02  0.18242455953E+02  0.00000000000E+00 0. -1.
        -14    1    4    4    0    0  0.17059048128E+03  0.56970776759E+02  0.44744930784E+02  0.18533453682E+03  0.00000000000E+00 0.  1.
</event>
<event>
12    1  0.8416569E-002  0.1908288E+03  0.7818608E-02  0.1159070E+00
         21   -1    0    0  503  502  0.00000000000E+00  0.00000000000E+00  0.13471835397E+04  0.13471835397E+04  0.00000000000E+00 0. -1.
         21   -1    0    0  501  503 -0.00000000000E+00 -0.00000000000E+00 -0.37107848516E+02  0.37107848516E+02  0.00000000000E+00 0. -1.
          6    2    1    2  501    0  0.20440057859E+02 -0.68107538484E+02  0.27244281287E+03  0.32925697184E+03  0.17067112953E+03 0.  0.
         24    2    3    3    0    0 -0.43979250336E+02 -0.60350757245E+02  0.11639510018E+03  0.16019191466E+03  0.80853211539E+02 0.  0.
         -6    2    1    2    0  502 -0.20440057859E+02  0.68107538484E+02  0.10376328783E+04  0.10550344164E+04  0.17708528120E+03 0.  0.
        -24    2    5    5    0    0 -0.42578015674E+02  0.10500453839E+02  0.89421318149E+03  0.89882953548E+03  0.79713066405E+02 0.  0.
          5    1    3    3  501    0  0.64419308196E+02 -0.77567812385E+01  0.15604771268E+03  0.16906505718E+03  0.47000000000E+01 0. -1.
        -11    1    4    4    0    0 -0.53281171686E+02 -0.16687093015E+02  0.31076408692E+02  0.63899025866E+02  0.00000000000E+00 0.  1.
         12    1    4    4    0    0  0.93019213493E+01 -0.43663664230E+02  0.85318691490E+02  0.96292888794E+02  0.00000000000E+00 0. -1.
         -5    1    5    5    0  502  0.22137957815E+02  0.57607084645E+02  0.14341969680E+03  0.15620488087E+03  0.47000000000E+01 0.  1.
         13    1    6    6    0    0 -0.83141056966E+01  0.40042789199E+02  0.28240219729E+03  0.28534812134E+03  0.00000000000E+00 0. -1.
        -14    1    6    6    0    0 -0.34263909977E+02 -0.29542335360E+02  0.61181098420E+03  0.61348141414E+03  0.00000000000E+00 0.  1.
</event>
<event>
12    1  0.8416569E-002  0.2198867E+03  0.7818608E-02  0.1134194E+00
         21   -1    0    0  503  502  0.00000000000E+00  0.00000000000E+00  0.35321538936E+02  0.35321538936E+02  0.00000000000E+00 0.  1.
         21   -1    0    0  501  503 -0.00000000000E+00 -0.00000000000E+00 -0.17050819393E+04  0.17050819393E+04  0.00000000000E+00 0.  1.
          6    2    1    2  501    0  0.92512219828E+02  0.98636795358E+02 -0.12274525944E+04  0.12469923981E+04  0.17338523942E+03 0.  0.
         24    2    3    3    0    0  0.61827715095E+02  0.12097151776E+03 -0.11476249870E+04  0.11584773397E+04  0.81054681924E+02 0.  0.
         -6    2    1    2    0  502 -0.92512219828E+02 -0.98636795358E+02 -0.44230780597E+03  0.49341108012E+03  0.17184461164E+03 0.  0.
        -24    2    5    5    0    0 -0.93232315191E+02 -0.76694549295E+01 -0.20290121560E+03  0.23726038019E+03  0.79827937359E+02 0.  0.
          5    1    3    3  501    0  0.30684504732E+02 -0.22334722400E+02 -0.79827607428E+02  0.88515058397E+02  0.47000000000E+01 0. -1.
        -11    1    4    4    0    0  0.79755979726E+02  0.99862778481E+02 -0.84820834794E+03  0.85778260203E+03  0.00000000000E+00 0.  1.
         12    1    4    4    0    0 -0.17928264631E+02  0.21108739277E+02 -0.29941663903E+03  0.30069473769E+03  0.00000000000E+00 0. -1.
         -5    1    5    5    0  502  0.72009536353E+00 -0.90967340429E+02 -0.23940659037E+03  0.25615069993E+03  0.47000000000E+01 0.  1.
         11    1    6    6    0    0 -0.48623792623E+02  0.28187775295E+02 -0.14648008073E+03  0.15689244066E+03  0.00000000000E+00 0. -1.
        -12    1    6    6    0    0 -0.44608522568E+02 -0.35857230224E+02 -0.56421134867E+02  0.80367939532E+02  0.00000000000E+00 0.  1.
</event>
<event>
12    1  0.8416569E-002  0.2314264E+03  0.7818608E-02  0.1125641E+00
         21   -1    0    0  503  502  0.00000000000E+00  0.00000000000E+00  0.21398227438E+03  0.21398227438E+03  0.00000000000E+00 0.  1.
         21   -1    0    0  501  503 -0.00000000000E+00 -0.00000000000E+00 -0.34482854930E+03  0.34482854930E+03  0.00000000000E+00 0. -1.
          6    2    1    2  501    0  0.82237611121E+02  0.13142674225E+03 -0.21172716944E+03  0.31366632234E+03  0.17182012172E+03 0.  0.
         24    2    3    3    0    0  0.36920243841E+02 -0.33938447536E+00 -0.49590277656E+02  0.99828913058E+02  0.78379823024E+02 0.  0.
         -6    2    1    2    0  502 -0.82237611121E+02 -0.13142674225E+03  0.80880894521E+02  0.24514450134E+03  0.17180830648E+03 0.  0.
        -24    2    5    5    0    0  0.23138801380E+02 -0.66614818900E+02  0.20439374933E+02  0.10737643170E+03  0.78351718624E+02 0.  0.
          5    1    3    3  501    0  0.45317367280E+02  0.13176612673E+03 -0.16213689179E+03  0.21383740928E+03  0.47000000000E+01 0. -1.
        -11    1    4    4    0    0 -0.10017381299E+00  0.25496697984E+02  0.79363349817E+01  0.26703502689E+02  0.00000000000E+00 0.  1.
         12    1    4    4    0    0  0.37020417654E+02 -0.25836082460E+02 -0.57526612637E+02  0.73125410369E+02  0.00000000000E+00 0. -1.
         -5    1    5    5    0  502 -0.10537641250E+03 -0.64811923351E+02  0.60441519588E+02  0.13776806963E+03  0.47000000000E+01 0.  1.
         11    1    6    6    0    0 -0.11980220151E+01 -0.51557431869E+01  0.38491396132E+02  0.38853629441E+02  0.00000000000E+00 0. -1.
        -12    1    6    6    0    0  0.24336823396E+02 -0.61459075714E+02 -0.18052021199E+02  0.68522802263E+02  0.00000000000E+00 0.  1.
</event>
<event>
12    1  0.8416569E-002  0.1860552E+03  0.7818608E-02  0.1162644E+00
         21   -1    0    0  501  502  0.00000000000E+00  0.00000000000E+00  0.10274981720E+03  0.10274981720E+03  0.00000000000E+00 0.  1.
         21   -1    0    0  502  503 -0.00000000000E+00 -0.00000000000E+00 -0.35945118669E+03  0.35945118669E+03  0.00000000000E+00 0.  1.
         -6    2    1    2    0  503 -0.55530022999E+02 -0.23851469924E+02 -0.65803802125E+02  0.19734914098E+03  0.17596609616E+03 0.  0.
        -24    2    3    3    0    0 -0.14212863012E+02 -0.71137824999E+02 -0.97847046329E+01  0.11306784786E+03  0.86174254594E+02 0.  0.
          6    2    1    2  501    0  0.55530022999E+02  0.23851469924E+02 -0.19089756737E+03  0.26485186291E+03  0.17335556521E+03 0.  0.
         24    2    5    5    0    0  0.85308019034E+02  0.53724718636E+02 -0.94231999592E+02  0.15927979260E+03  0.79539795570E+02 0.  0.
          5    1    5    5  501    0 -0.29777996035E+02 -0.29873248713E+02 -0.96665567775E+02  0.10557207031E+03  0.47000000000E+01 0. -1.
        -13    1    6    6    0    0  0.14182119846E+02  0.45730795115E+02 -0.67756837245E+02  0.82966421754E+02  0.00000000000E+00 0.  1.
         14    1    6    6    0    0  0.71125899188E+02  0.79939235213E+01 -0.26475162347E+02  0.76313370846E+02  0.00000000000E+00 0. -1.
         -5    1    3    3    0  503 -0.41317159987E+02  0.47286355076E+02 -0.56019097492E+02  0.84281293118E+02  0.47000000000E+01 0.  1.
         13    1    4    4    0    0  0.17865882897E+02 -0.48247797981E+02 -0.38540379503E+02  0.64283750932E+02  0.00000000000E+00 0. -1.
        -14    1    4    4    0    0 -0.32078745910E+02 -0.22890027018E+02  0.28755674870E+02  0.48784096930E+02  0.00000000000E+00 0.  1.
</event>
<event>
12    1  0.8416569E-002  0.1909781E+03  0.7818608E-02  0.1157955E+00
         21   -1    0    0  501  502  0.00000000000E+00  0.00000000000E+00  0.77873270540E+03  0.77873270540E+03  0.00000000000E+00 0.  1.
         21   -1    0    0  502  503 -0.00000000000E+00 -0.00000000000E+00 -0.64761144920E+02  0.64761144920E+02  0.00000000000E+00 0. -1.
         -6    2    1    2    0  503  0.36321372897E+02  0.72504216604E+02  0.13148858058E+03  0.23050195293E+03  0.17107249903E+03 0.  0.
        -24    2    3    3    0    0  0.53932903836E+02 -0.16509100339E+02  0.84721764226E+02  0.12831212111E+03  0.78133952796E+02 0.  0.
          6    2    1    2  501    0 -0.36321372897E+02 -0.72504216604E+02  0.58248297990E+03  0.61299189739E+03  0.17290616195E+03 0.  0.
         24    2    5    5    0    0 -0.48311677813E+02 -0.11307752719E+03  0.40874442781E+03  0.43411446610E+03  0.79137962070E+02 0.  0.
          5    1    5    5  501    0  0.11990304915E+02  0.40573310589E+02  0.17373855208E+03  0.17887743129E+03  0.47000000000E+01 0. -1.
        -13    1    6    6    0    0  0.11611134170E+02 -0.57540916731E+02  0.23342479468E+03  0.24069256388E+03  0.00000000000E+00 0.  1.
         14    1    6    6    0    0 -0.59922811983E+02 -0.55536610463E+02  0.17531963314E+03  0.19342190223E+03  0.00000000000E+00 0. -1.
         -5    1    3    3    0  503 -0.17611530938E+02  0.89013316943E+02  0.46766816354E+02  0.10218983182E+03  0.47000000000E+01 0.  1.
         13    1    4    4    0    0  0.59506450419E+02 -0.23276066392E+02  0.26072672197E+02  0.69011427631E+02  0.00000000000E+00 0. -1.
        -14    1    4    4    0    0 -0.55735465833E+01  0.67669660535E+01  0.58649092029E+02  0.59300693477E+02  0.00000000000E+00 0.  1.
</event>
<event>
12    1  0.8416569E-002  0.2161860E+03  0.7818608E-02  0.1137139E+00
         21   -1    0    0  503  502  0.00000000000E+00  0.00000000000E+00  0.64930927966E+02  0.64930927966E+02  0.00000000000E+00 0. -1.
         21   -1    0    0  501  503 -0.00000000000E+00 -0.00000000000E+00 -0.11953624128E+04  0.11953624128E+04  0.00000000000E+00 0. -1.
          6    2    1    2  501    0 -0.12729144907E+03  0.23051221071E+02 -0.96387090969E+03  0.98738530507E+03  0.17072825870E+03 0.  0.
         24    2    3    3    0    0 -0.11426068578E+03  0.44281519955E+02 -0.45812577329E+03  0.48100525078E+03  0.80439230514E+02 0.  0.
         -6    2    1    2    0  502  0.12729144907E+03 -0.23051221071E+02 -0.16656057515E+03  0.27290803570E+03  0.17321056249E+03 0.  0.
        -24    2    5    5    0    0  0.10404085070E+03  0.51174564682E+02 -0.11077145762E+03  0.17707185658E+03  0.75105205425E+02 0.  0.
          5    1    3    3  501    0 -0.13030763290E+02 -0.21230298883E+02 -0.50574513641E+03  0.50638005429E+03  0.47000000000E+01 0. -1.
        -11    1    4    4    0    0 -0.22008971203E+02  0.49467601190E+02 -0.16363081691E+03  0.17235568637E+03  0.00000000000E+00 0.  1.
         12    1    4    4    0    0 -0.92251714580E+02 -0.51860812358E+01 -0.29449495638E+03  0.30864956442E+03  0.00000000000E+00 0. -1.
         -5    1    5    5    0  502  0.23250598369E+02 -0.74225785754E+02 -0.55789117525E+02  0.95836179126E+02  0.47000000000E+01 0.  1.
         13    1    6    6    0    0  0.46868485774E+02  0.44075812702E+02 -0.16219140189E+02  0.66350529256E+02  0.00000000000E+00 0. -1.
        -14    1    6    6    0    0  0.57172364930E+02  0.70987519799E+01 -0.94552317434E+02  0.11072132732E+03  0.00000000000E+00 0.  1.
</event>
<event>
12    1  0.8416569E-002  0.1888715E+03  0.7818608E-02  0.1159485E+00
         21   -1    0    0  501  502  0.00000000000E+00  0.00000000000E+00  0.45594925617E+03  0.45594925617E+03  0.00000000000E+00 0. -1.
         21   -1    0    0  502  503 -0.00000000000E+00 -0.00000000000E+00 -0.19032291606E+03  0.19032291606E+03  0.00000000000E+00 0. -1.
         -6    2    1    2    0  503  0.73662019668E+02  0.26114559536E+02 -0.11516994465E+03  0.22120952709E+03  0.17193450894E+03 0.  0.
        -24    2    3    3    0    0 -0.10293926136E+02  0.14502773019E+02 -0.11958819437E+02  0.87575471591E+02  0.84912628752E+02 0.  0.
          6    2    1    2  501    0 -0.73662019668E+02 -0.26114559536E+02  0.38079628476E+03  0.42506264514E+03  0.17194295114E+03 0.  0.
         24    2    5    5    0    0 -0.55837938087E+02 -0.83229901882E+02  0.27079010418E+03  0.29974979671E+03  0.80483341201E+02 0.  0.
          5    1    5    5  501    0 -0.17824081581E+02  0.57115342346E+02  0.11000618058E+03  0.12531284843E+03  0.47000000000E+01 0. -1.
        -13    1    6    6    0    0 -0.82235982211E+01 -0.72486354517E+02  0.20665194184E+03  0.21915046025E+03  0.00000000000E+00 0.  1.
         14    1    6    6    0    0 -0.47614339866E+02 -0.10743547365E+02  0.64138162334E+02  0.80599336464E+02  0.00000000000E+00 0. -1.
         -5    1    3    3    0  503  0.83955945804E+02  0.11611786517E+02 -0.10321112521E+03  0.13363405550E+03  0.47000000000E+01 0.  1.
         13    1    4    4    0    0  0.71475642226E+01 -0.10122081189E+02 -0.42722151475E+02  0.44482877926E+02  0.00000000000E+00 0. -1.
        -14    1    4    4    0    0 -0.17441490358E+02  0.24624854208E+02  0.30763332038E+02  0.43092593665E+02  0.00000000000E+00 0.  1.
</event>
<event>
12    1  0.8416569E-002  0.2893583E+03  0.7818608E-02  0.1091746E+00
         21   -1    0    0  503  502  0.00000000000E+00  0.00000000000E+00  0.16614068186E+03  0.16614068186E+03  0.00000000000E+00 0.  1.
         21   -1    0    0  501  503 -0.00000000000E+00 -0.00000000000E+00 -0.53058735058E+03  0.53058735058E+03  0.00000000000E+00 0. -1.
          6    2    1    2  501    0 -0.65437640737E+02  0.21502501502E+03 -0.27604161407E+03  0.39416620269E+03  0.16926364268E+03 0.  0.
         24    2    3    3    0    0  0.26132594486E+02  0.76619482647E+02 -0.12323112111E+03  0.16852414958E+03  0.81615085412E+02 0.  0.
         -6    2    1    2    0  502  0.65437640737E+02 -0.21502501502E+03 -0.88405054652E+02  0.30256182975E+03  0.18223711263E+03 0.  0.
        -24    2    5    5    0    0  0.94748853806E+02 -0.22342524262E+03 -0.91573058278E+02  0.27154832813E+03  0.80353501298E+02 0.  0.
          5    1    3    3  501    0 -0.91570235223E+02  0.13840553238E+03 -0.15281049296E+03  0.22564205311E+03  0.47000000000E+01 0. -1.
        -11    1    4    4    0    0  0.39828712967E+02  0.35599201112E+02 -0.20778681471E+02  0.57318261489E+02  0.00000000000E+00 0.  1.
         12    1    4    4    0    0 -0.13696118481E+02  0.41020281535E+02 -0.10245243964E+03  0.11120588809E+03  0.00000000000E+00 0. -1.
         -5    1    5    5    0  502 -0.29311213069E+02  0.84002276008E+01  0.31680036261E+01  0.31013501613E+02  0.47000000000E+01 0.  1.
         13    1    6    6    0    0  0.19234798701E+02 -0.13842965049E+03 -0.32784628585E+02  0.14355339594E+03  0.00000000000E+00 0. -1.
        -14    1    6    6    0    0  0.75514055105E+02 -0.84995592137E+02 -0.58788429693E+02  0.12799493219E+03  0.00000000000E+00 0.  1.
</event>
<event>
12    1  0.8416569E-002  0.2213241E+03  0.7818608E-02  0.1133704E+00
         21   -1    0    0  501  502  0.00000000000E+00  0.00000000000E+00  0.12840949320E+04  0.12840949320E+04  0.00000000000E+00 0. -1.
         21   -1    0    0  502  503 -0.00000000000E+00 -0.00000000000E+00 -0.37738872602E+02  0.37738872602E+02  0.00000000000E+00 0.  1.
         -6    2    1    2    0  503 -0.13787626002E+03  0.19114607007E+02  0.55529128561E+03  0.59619278016E+03  0.16649981369E+03 0.  0.
        -24    2    3    3    0    0 -0.67333921309E+02  0.71281088686E+02  0.38091705773E+03  0.40093391426E+03  0.77687503333E+02 0.  0.
          6    2    1    2  501    0  0.13787626002E+03 -0.19114607007E+02  0.69106477375E+03  0.72564102440E+03  0.17207307606E+03 0.  0.
         24    2    5    5    0    0  0.38225091774E+01 -0.81006814049E+01  0.19117347321E+03  0.20794891801E+03  0.81334021331E+02 0.  0.
          5    1    5    5  501    0  0.13405375084E+03 -0.11013925602E+02  0.49989130053E+03  0.51769210639E+03  0.47000000000E+01 0. -1.
        -13    1    6    6    0    0 -0.47835137249E+01 -0.34046058788E+02  0.33777422946E+02  0.48196788518E+02  0.00000000000E+00 0.  1.
         14    1    6    6    0    0  0.86060229023E+01  0.25945377383E+02  0.15739605027E+03  0.15975212949E+03  0.00000000000E+00 0. -1.
         -5    1    3    3    0  503 -0.70542338709E+02 -0.52166481680E+02  0.17437422788E+03  0.19525886590E+03  0.47000000000E+01 0.  1.
         13    1    4    4    0    0 -0.76565559960E+02  0.34423006425E+02  0.30027066011E+03  0.31178469761E+03  0.00000000000E+00 0. -1.
        -14    1    4    4    0    0  0.92316386510E+01  0.36858082262E+02  0.80646397617E+02  0.89149216647E+02  0.00000000000E+00 0.  1.
</event>
<event>
12    1  0.8416569E-002  0.1843760E+03  0.7818608E-02  0.1165421E+00
         21   -1    0    0  503  502  0.00000000000E+00  0.00000000000E+00  0.26671382956E+02  0.26671382956E+02  0.00000000000E+00 0.  1.
         21   -1    0    0  501  503 -0.00000000000E+00 -0.00000000000E+00 -0.14018227603E+04  0.14018227603E+04  0.00000000000E+00 0.  1.
          6    2    1    2  501    0 -0.39151531454E+02 -0.10228153896E+02 -0.95460301321E+03  0.97224555284E+03  0.17988064003E+03 0.  0.
         24    2    3    3    0    0 -0.40164763017E+02 -0.49714611686E+02 -0.33031464817E+03  0.34669119094E+03  0.83679533171E+02 0.  0.
         -6    2    1    2    0  502  0.39151531454E+02  0.10228153896E+02 -0.42054836415E+03  0.45624859043E+03  0.17223353950E+03 0.  0.
        -24    2    5    5    0    0 -0.31582966059E+02  0.32314640386E+02 -0.15559627688E+03  0.18108885396E+03  0.80878006406E+02 0.  0.
          5    1    3    3  501    0  0.10132315622E+01  0.39486457790E+02 -0.62428836503E+03  0.62555436191E+03  0.47000000000E+01 0. -1.
        -11    1    4    4    0    0 -0.28720892921E+02 -0.68541999245E+02 -0.30089113012E+03  0.30993284359E+03  0.00000000000E+00 0.  1.
         12    1    4    4    0    0 -0.11443870095E+02  0.18827387558E+02 -0.29423518053E+02  0.36758347347E+02  0.00000000000E+00 0. -1.
         -5    1    5    5    0  502  0.70734497513E+02 -0.22086486489E+02 -0.26495208727E+03  0.27515973647E+03  0.47000000000E+01 0.  1.
         11    1    6    6    0    0 -0.28560496816E+02  0.21920463387E+02 -0.16367111889E+03  0.16758413962E+03  0.00000000000E+00 0. -1.
        -12    1    6    6    0    0 -0.30224692428E+01  0.10394176999E+02  0.80748420107E+01  0.13504714336E+02  0.00000000000E+00 0.  1.
</event>
<event>
12    1  0.8416569E-002  0.1963747E+03  0.7818608E-02  0.1153223E+00
         21   -1    0    0  503  502  0.00000000000E+00  0.00000000000E+00  0.44336108053E+03  0.44336108053E+03  0.00000000000E+00 0.  1.
         21   -1    0    0  501  503 -0.00000000000E+00 -0.00000000000E+00 -0.19988582655E+03  0.19988582655E+03  0.00000000000E+00 0.  1.
          6    2    1    2  501    0 -0.80538883747E+02  0.40713709632E+02 -0.12107091336E+03  0.22917333271E+03  0.17238947885E+03 0.  0.
         24    2    3    3    0    0  0.16270348883E+02  0.16310812332E+02 -0.95171500616E+02  0.12592412691E+03  0.79173886832E+02 0.  0.
         -6    2    1    2    0  502  0.80538883747E+02 -0.40713709632E+02  0.36454616734E+03  0.41407357436E+03  0.17441014567E+03 0.  0.
        -24    2    5    5    0    0  0.39286807729E+02 -0.61532611789E+01  0.76474220153E+02  0.12098025282E+03  0.84891691821E+02 0.  0.
          5    1    3    3  501    0 -0.96809232630E+02  0.24402897300E+02 -0.25899412744E+02  0.10324920581E+03  0.47000000000E+01 0. -1.
        -11    1    4    4    0    0 -0.10487202756E+02  0.39201061584E+02 -0.25686214623E+02  0.48025891690E+02  0.00000000000E+00 0.  1.
         12    1    4    4    0    0  0.26757551639E+02 -0.22890249251E+02 -0.69485285993E+02  0.77898235218E+02  0.00000000000E+00 0. -1.
         -5    1    5    5    0  502  0.41252076017E+02 -0.34560448453E+02  0.28807194719E+03  0.29309332154E+03  0.47000000000E+01 0.  1.
         11    1    6    6    0    0 -0.21364227057E+02 -0.10603661051E+02  0.75481807132E+00  0.23862891185E+02  0.00000000000E+00 0. -1.
        -12    1    6    6    0    0  0.60651034786E+02  0.44503998721E+01  0.75719402082E+02  0.97117361637E+02  0.00000000000E+00 0.  1.
</event>
<event>
12    1  0.8416569E-002  0.1790617E+03  0.7818608E-02  0.1169668E+00
         21   -1    0    0  501  502  0.00000000000E+00  0.00000000000E+00  0.77002154702E+03  0.77002154702E+03  0.00000000000E+00 0. -1.
         21   -1    0    0  502  503 -0.00000000000E+00 -0.00000000000E+00 -0.12580949593E+03  0.12580949593E+03  0.00000000000E+00 0. -1.
         -6    2    1    2    0  503  0.44189069075E+02  0.19662662377E+02 -0.45058830764E+02  0.18464400060E+03  0.17240595874E+03 0.  0.
        -24    2    3    3    0    0  0.43991108522E+02 -0.52299258426E+02 -0.36298302578E+02  0.11199832565E+03  0.80966833447E+02 0.  0.
          6    2    1    2  501    0 -0.44189069075E+02 -0.19662662377E+02  0.68927088186E+03  0.71118704235E+03  0.16838457918E+03 0.  0.
         24    2    5    5    0    0 -0.16182138040E+02 -0.57919733360E+02  0.24681273512E+03  0.26617098277E+03  0.79460107897E+02 0.  0.
          5    1    5    5  501    0 -0.28006931035E+02  0.38257070983E+02  0.44245814674E+03  0.44501605958E+03  0.47000000000E+01 0. -1.
        -13    1    6    6    0    0  0.30372483697E+02 -0.27506508977E+02  0.13825056625E+03  0.14419540516E+03  0.00000000000E+00 0.  1.
         14    1    6    6    0    0 -0.46554621736E+02 -0.30413224383E+02  0.10856216887E+03  0.12197557760E+03  0.00000000000E+00 0. -1.
         -5    1    3    3    0  503  0.19796055257E+00  0.71961920803E+02 -0.87605281860E+01  0.72645674944E+02  0.47000000000E+01 0.  1.
         11    1    4    4    0    0  0.12088059274E+01 -0.42266765172E+02  0.14620042963E+02  0.44740209053E+02  0.00000000000E+00 0. -1.
        -12    1    4    4    0    0  0.42782302595E+02 -0.10032493255E+02 -0.50918345541E+02  0.67258116602E+02  0.00000000000E+00 0.  1.
</event>
<event>
12    1  0.8416569E-002  0.2453901E+03  0.7818608E-02  0.1116812E+00
         21   -1    0    0  501  502  0.00000000000E+00  0.00000000000E+00  0.19555258134E+03  0.19555258134E+03  0.00000000000E+00 0. -1.
         21   -1    0    0  502  503 -0.00000000000E+00 -0.00000000000E+00 -0.42306175845E+03  0.42306175845E+03  0.00000000000E+00 0.  1.
         -6    2    1    2    0  503 -0.17451921141E+03  0.80173340557E+00 -0.27751053754E+03  0.36818179153E+03  0.16759515280E+03 0.  0.
        -24    2    3    3    0    0 -0.73275064370E+02  0.61386751669E+02 -0.13137799848E+03  0.18030488843E+03  0.78179958856E+02 0.  0.
          6    2    1    2  501    0  0.17451921141E+03 -0.80173340557E+00  0.50001360425E+02  0.25043254826E+03  0.17250718030E+03 0.  0.
         24    2    5    5    0    0  0.97063641717E+01 -0.10793670721E+02  0.26667911418E+02  0.83610327710E+02  0.77902455464E+02 0.  0.
          5    1    5    5  501    0  0.16481284724E+03  0.99919373155E+01  0.23333449008E+02  0.16682222055E+03  0.47000000000E+01 0. -1.
        -13    1    6    6    0    0  0.40012647349E+02  0.11420983411E+02  0.15589690676E+02  0.44435225501E+02  0.00000000000E+00 0.  1.
         14    1    6    6    0    0 -0.30306283178E+02 -0.22214654132E+02  0.11078220742E+02  0.39175102209E+02  0.00000000000E+00 0. -1.
         -5    1    3    3    0  503 -0.10124414704E+03 -0.60585018263E+02 -0.14613253906E+03  0.18787690310E+03  0.47000000000E+01 0.  1.
         11    1    4    4    0    0 -0.71104122237E+02  0.97157623637E+01 -0.75330337232E+02  0.10404254872E+03  0.00000000000E+00 0. -1.
        -12    1    4    4    0    0 -0.21709421331E+01  0.51670989305E+02 -0.56047661251E+02  0.76262339704E+02  0.00000000000E+00 0.  1.
</event>
<event>
12    1  0.8416569E-002  0.2339242E+03  0.7818608E-02  0.1124080E+00
         21   -1    0    0  503  502  0.00000000000E+00  0.00000000000E+00  0.23289107270E+03  0.23289107270E+03  0.00000000000E+00 0. -1.
         21   -1    0    0  501  503 -0.00000000000E+00 -0.00000000000E+00 -0.76987485710E+03  0.76987485710E+03  0.00000000000E+00 0. -1.
          6    2    1    2  501    0  0.14578735535E+03  0.57273272060E+02 -0.68698430981E+03  0.72571893555E+03  0.17374219643E+03 0.  0.
         24    2    3    3    0    0  0.35074466326E+02  0.89677268901E+02 -0.40973545751E+03  0.42539181572E+03  0.61667017045E+02 0.  0.
         -6    2    1    2    0  502 -0.14578735535E+03 -0.57273272060E+02  0.15000052541E+03  0.27704699425E+03  0.17239692204E+03 0.  0.
        -24    2    5    5    0    0 -0.11967944155E+03  0.23279958783E+02  0.11542165871E+03  0.18545969064E+03  0.78790940720E+02 0.  0.
          5    1    3    3  501    0  0.11071288903E+03 -0.32403996841E+02 -0.27724885229E+03  0.30032711983E+03  0.47000000000E+01 0. -1.
        -11    1    4    4    0    0 -0.11800631177E+02 -0.10654737631E+01 -0.33232133697E+02  0.35281225043E+02  0.00000000000E+00 0.  1.
         12    1    4    4    0    0  0.46875097503E+02  0.90742742664E+02 -0.37650332382E+03  0.39011059068E+03  0.00000000000E+00 0. -1.
         -5    1    5    5    0  502 -0.26107913799E+02 -0.80553230842E+02  0.34578866697E+02  0.91587303618E+02  0.47000000000E+01 0.  1.
         11    1    6    6    0    0 -0.47079412126E+02 -0.17951982936E+02  0.10666379464E+02  0.51502586230E+02  0.00000000000E+00 0. -1.
        -12    1    6    6    0    0 -0.72600029427E+02  0.41231941718E+02  0.10475527925E+03  0.13395710441E+03  0.00000000000E+00 0.  1.
</event>
<event>
12    1  0.8416569E-002  0.2035863E+03  0.7818608E-02  0.1146810E+00
         21   -1    0    0  501  502  0.00000000000E+00  0.00000000000E+00  0.34696937903E+03  0.34696937903E+03  0.00000000000E+00 0.  1.
         21   -1    0    0  502  503 -0.00000000000E+00 -0.00000000000E+00 -0.13138470163E+03  0.13138470163E+03  0.00000000000E+00 0.  1.
         -6    2    1    2    0  503 -0.78245787306E+02 -0.75516787071E+02  0.35261112612E+02  0.20661734039E+03  0.17211098432E+03 0.  0.
        -24    2    3    3    0    0 -0.99520237897E+02 -0.64874853708E+01  0.40703886819E+02  0.13402697923E+03  0.79749981459E+02 0.  0.
          6    2    1    2  501    0  0.78245787306E+02  0.75516787071E+02  0.18032356479E+03  0.27173674028E+03  0.17175296107E+03 0.  0.
         24    2    5    5    0    0  0.11377991415E+03  0.60841765058E+02  0.98475041579E+02  0.18118674749E+03  0.80521515222E+02 0.  0.
          5    1    5    5  501    0 -0.35534126840E+02  0.14675022013E+02  0.81848523213E+02  0.90549992786E+02  0.47000000000E+01 0. -1.
        -11    1    6    6    0    0  0.70552953645E+02  0.55555630219E+02  0.20864068675E+02  0.92192497953E+02  0.00000000000E+00 0.  1.
         12    1    6    6    0    0  0.43226960501E+02  0.52861348398E+01  0.77610972904E+02  0.88994249537E+02  0.00000000000E+00 0. -1.
         -5    1    3    3    0  503  0.21274450591E+02 -0.69029301701E+02 -0.54427742068E+01  0.72590361153E+02  0.47000000000E+01 0.  1.
         11    1    4    4    0    0 -0.40661895044E+02  0.32904053483E+02  0.35077499095E+02  0.62980134860E+02  0.00000000000E+00 0. -1.
        -12    1    4    4    0    0 -0.58858342853E+02 -0.39391538854E+02  0.56263877237E+01  0.71046844374E+02  0.00000000000E+00 0.  1.
</event>
<event>
12    1  0.8416569E-002  0.2553570E+03  0.7818608E-02  0.1110279E+00
         21   -1    0    0  501  502  0.00000000000E+00  0.00000000000E+00  0.33079476550E+03  0.33079476550E+03  0.00000000000E+00 0.  1.
         21   -1    0    0  502  503 -0.00000000000E+00 -0.00000000000E+00 -0.19563524141E+03  0.19563524141E+03  0.00000000000E+00 0. -1.
         -6    2    1    2    0  503  0.22848956862E+02 -0.18564313522E+03  0.62030733229E+02  0.26080809297E+03  0.17084379125E+03 0.  0.
        -24    2    3    3    0    0  0.41745941153E+01 -0.10163399673E+03 -0.32410165076E+02  0.13295098348E+03  0.79237924511E+02 0.  0.
          6    2    1    2  501    0 -0.22848956862E+02  0.18564313522E+03  0.73128790857E+02  0.26562191395E+03  0.17384398934E+03 0.  0.
         24    2    5    5    0    0  0.14988592922E+02  0.10088626426E+03 -0.20726931985E+02  0.13353711520E+03  0.83665161165E+02 0.  0.
          5    1    5    5  501    0 -0.37837549784E+02  0.84756870960E+02  0.93855722841E+02  0.13208479874E+03  0.47000000000E+01 0. -1.
        -13    1    6    6    0    0  0.11903470548E+01 -0.14416580428E+02 -0.84789985810E+01  0.16767472507E+02  0.00000000000E+00 0.  1.
         14    1    6    6    0    0  0.13798245867E+02  0.11530284469E+03 -0.12247933404E+02  0.11676964270E+03  0.00000000000E+00 0. -1.
         -5    1    3    3    0  503  0.18674362746E+02 -0.84009138491E+02  0.94440898304E+02  0.12785710949E+03  0.47000000000E+01 0.  1.
         11    1    4    4    0    0  0.36937090043E+02 -0.31060444586E+02  0.10061813139E+01  0.48271236151E+02  0.00000000000E+00 0. -1.
        -12    1    4    4    0    0 -0.32762495928E+02 -0.70573552146E+02 -0.33416346390E+02  0.84679747330E+02  0.00000000000E+00 0.  1.
</event>
<event>
12    1  0.8416569E-002  0.1833011E+03  0.7818608E-02  0.1164724E+00
         21   -1    0    0  501  502  0.00000000000E+00  0.00000000000E+00  0.51561017781E+03  0.51561017781E+03  0.00000000000E+00 0. -1.
         21   -1    0    0  502  503 -0.00000000000E+00 -0.00000000000E+00 -0.72104356735E+02  0.72104356735E+02  0.00000000000E+00 0. -1.
         -6    2    1    2    0  503  0.17823808659E+02 -0.59100583292E+02  0.12963742225E+03  0.22424148789E+03  0.17224348041E+03 0.  0.
        -24    2    3    3    0    0  0.40005052763E+02  0.42648675570E+01  0.13128694485E+03  0.15692136552E+03  0.75956959706E+02 0.  0.
          6    2    1    2  501    0 -0.17823808659E+02  0.59100583292E+02  0.31386839882E+03  0.36347304665E+03  0.17259408091E+03 0.  0.
         24    2    5    5    0    0  0.55519700714E+01  0.97510881762E+02  0.16283425263E+03  0.20581778548E+03  0.79415178378E+02 0.  0.
          5    1    5    5  501    0 -0.23375778730E+02 -0.38410298469E+02  0.15103414619E+03  0.15765526117E+03  0.47000000000E+01 0. -1.
        -11    1    6    6    0    0  0.19823191992E+02  0.33055872667E+02  0.12257950402E+03  0.12849663211E+03  0.00000000000E+00 0.  1.
         12    1    6    6    0    0 -0.14271221921E+02  0.64455009095E+02  0.40254748611E+02  0.77321153369E+02  0.00000000000E+00 0. -1.
         -5    1    3    3    0  503 -0.22181244104E+02 -0.63365450849E+02 -0.16495225923E+01  0.67320122372E+02  0.47000000000E+01 0.  1.
         13    1    4    4    0    0  0.42669816840E+02 -0.23161026292E+02  0.44477922581E+02  0.65843997488E+02  0.00000000000E+00 0. -1.
        -14    1    4    4    0    0 -0.26647640773E+01  0.27425893849E+02  0.86809022265E+02  0.91077368032E+02  0.00000000000E+00 0.  1.
</event>
<event>
12    1  0.8416569E-002  0.2827356E+03  0.7818608E-02  0.1095574E+00
         21   -1    0    0  503  502  0.00000000000E+00  0.00000000000E+00  0.13857612369E+03  0.13857612369E+03  0.00000000000E+00 0. -1.
         21   -1    0    0  501  503 -0.00000000000E+00 -0.00000000000E+00 -0.16804244639E+04  0.16804244639E+04  0.00000000000E+00 0.  1.
          6    2    1    2  501    0  0.15916237544E+03 -0.13969372658E+03 -0.15100435088E+04  0.15344817452E+04  0.17191808796E+03 0.  0.
         24    2    3    3    0    0  0.11918214601E+03 -0.59665897857E+02 -0.59936324281E+03  0.61940606040E+03  0.81628227494E+02 0.  0.
         -6    2    1    2    0  502 -0.15916237544E+03  0.13969372658E+03 -0.31804831398E+02  0.28451884235E+03  0.18732972362E+03 0.  0.
        -24    2    5    5    0    0 -0.19115956346E+03  0.12123122039E+03 -0.44715268167E+02  0.24510496721E+03  0.82692213938E+02 0.  0.
          5    1    3    3  501    0  0.39980229432E+02 -0.80027828726E+02 -0.91068026599E+03  0.91507568484E+03  0.47000000000E+01 0. -1.
        -13    1    4    4    0    0  0.25702639627E+02 -0.10562058474E+02 -0.31238238248E+03  0.31361590464E+03  0.00000000000E+00 0.  1.
         14    1    4    4    0    0  0.93479506380E+02 -0.49103839383E+02 -0.28698086034E+03  0.30579015575E+03  0.00000000000E+00 0. -1.
         -5    1    5    5    0  502  0.31997188017E+02  0.18462506192E+02  0.12910436769E+02  0.39413875139E+02  0.47000000000E+01 0.  1.
         13    1    6    6    0    0 -0.96003206919E+02  0.42970818232E+02  0.18234194997E+02  0.10675014204E+03  0.00000000000E+00 0. -1.
        -14    1    6    6    0    0 -0.95156356537E+02  0.78260402159E+02 -0.62949463165E+02  0.13835482517E+03  0.00000000000E+00 0.  1.
</event>
<event>
12    1  0.8416569E-002  0.1768132E+03  0.7818608E-02  0.1171231E+00
         21   -1    0    0  503  502  0.00000000000E+00  0.00000000000E+00  0.14637240776E+03  0.14637240776E+03  0.00000000000E+00 0.  1.
         21   -1    0    0  501  503 -0.00000000000E+00 -0.00000000000E+00 -0.21260803210E+03  0.21260803210E+03  0.00000000000E+00 0.  1.
          6    2    1    2  501    0 -0.30396237868E+02 -0.96600518727E+01 -0.41854978675E+02  0.18049420431E+03  0.17265303551E+03 0.  0.
         24    2    3    3    0    0  0.28215494567E+01 -0.33883661509E+02  0.32060026369E+02  0.95784567141E+02  0.83610850689E+02 0.  0.
         -6    2    1    2    0  502  0.30396237868E+02  0.96600518727E+01 -0.24380645665E+02  0.17848623555E+03  0.17391283023E+03 0.  0.
        -24    2    5    5    0    0  0.88853835660E+01  0.53957769764E+02 -0.63335476490E+02  0.11552137624E+03  0.79645557491E+02 0.  0.
          5    1    3    3  501    0 -0.33217787324E+02  0.24223609636E+02 -0.73915005044E+02  0.84709637169E+02  0.47000000000E+01 0. -1.
        -13    1    4    4    0    0  0.21716004116E+01 -0.60222005126E+02  0.93118190227E+01  0.60976353804E+02  0.00000000000E+00 0.  1.
         14    1    4    4    0    0  0.64994904505E+00  0.26338343617E+02  0.22748207347E+02  0.34808213337E+02  0.00000000000E+00 0. -1.
         -5    1    5    5    0  502  0.21510854302E+02 -0.44297717892E+02  0.38954830825E+02  0.62964859309E+02  0.47000000000E+01 0.  1.
         13    1    6    6    0    0  0.36693724266E+02  0.12132905703E+01 -0.19973616660E+02  0.41795296829E+02  0.00000000000E+00 0. -1.
        -14    1    6    6    0    0 -0.27808340701E+02  0.52744479194E+02 -0.43361859830E+02  0.73726079415E+02  0.00000000000E+00 0.  1.
</event>
<event>
12    1  0.8416569E-002  0.1832113E+03  0.7818608E-02  0.1167422E+00
         21   -1    0    0  503  502  0.00000000000E+00  0.00000000000E+00  0.35963008291E+03  0.35963008291E+03  0.00000000000E+00 0. -1.
         21   -1    0    0  501  503 -0.00000000000E+00 -0.00000000000E+00 -0.19902943236E+04  0.19902943236E+04  0.00000000000E+00 0. -1.
          6    2    1    2  501    0  0.52433401003E+02 -0.22779361385E+02 -0.19651728768E+04  0.19736947124E+04  0.17406384251E+03 0.  0.
         24    2    3    3    0    0  0.81425736337E+02 -0.50835666021E+02 -0.17501405881E+04  0.17548598730E+04  0.85596030553E+02 0.  0.
         -6    2    1    2    0  502 -0.52433401003E+02  0.22779361385E+02  0.33450863613E+03  0.37622969408E+03  0.16243335314E+03 0.  0.
        -24    2    5    5    0    0 -0.11576107660E+02  0.48976414168E+02  0.96067568670E+02  0.13285377775E+03  0.76736256749E+02 0.  0.
          5    1    3    3  501    0 -0.28992335334E+02  0.28056304636E+02 -0.21503228873E+03  0.21883483939E+03  0.47000000000E+01 0. -1.
        -13    1    4    4    0    0  0.34436125208E+01 -0.27665381364E+02 -0.14480307564E+03  0.14746241049E+03  0.00000000000E+00 0.  1.
         14    1    4    4    0    0  0.77982123817E+02 -0.23170284657E+02 -0.16053375125E+04  0.16073974626E+04  0.00000000000E+00 0. -1.
         -5    1    5    5    0  502 -0.40857293343E+02 -0.26197052783E+02  0.23844106746E+03  0.24337591632E+03  0.47000000000E+01 0.  1.
         11    1    6    6    0    0  0.99305719221E+01  0.38879195178E+02  0.10091934541E+03  0.10860443064E+03  0.00000000000E+00 0. -1.
        -12    1    6    6    0    0 -0.21506679582E+02  0.10097218991E+02 -0.48517767395E+01  0.24249347115E+02  0.00000000000E+00 0.  1.
</event>
<event>
12    1  0.8416569E-002  0.2847651E+03  0.7818608E-02  0.1093385E+00
         21   -1    0    0  501  502  0.00000000000E+00  0.00000000000E+00  0.12556858073E+03  0.12556858073E+03  0.00000000000E+00 0.  1.
         21   -1    0    0  502  503 -0.00000000000E+00 -0.00000000000E+00 -0.65545437833E+03  0.65545437833E+03  0.00000000000E+00 0. -1.
         -6    2    1    2    0  503 -0.11667123781E+03 -0.19446782925E+03 -0.32340490182E+03  0.43090820138E+03  0.17222436864E+03 0.  0.
        -24    2    3    3    0    0 -0.14541362321E+03 -0.18775805120E+03 -0.30964301826E+03  0.39800492982E+03  0.78300177531E+02 0.  0.
          6    2    1    2  501    0  0.11667123781E+03  0.19446782925E+03 -0.20648089578E+03  0.35011475769E+03  0.16886701538E+03 0.  0.
         24    2    5    5    0    0  0.27914357367E+02  0.11053854153E+03 -0.42381837028E+02  0.14548704635E+03  0.79826562217E+02 0.  0.
          5    1    5    5  501    0  0.88756880439E+02  0.83929287721E+02 -0.16409905875E+03  0.20462771133E+03  0.47000000000E+01 0. -1.
        -11    1    6    6    0    0  0.50346977643E+02  0.71584641128E+02 -0.61157536881E+01  0.87730162694E+02  0.00000000000E+00 0.  1.
         12    1    6    6    0    0 -0.22432620276E+02  0.38953900404E+02 -0.36266083340E+02  0.57756883658E+02  0.00000000000E+00 0. -1.
         -5    1    3    3    0  503  0.28742385402E+02 -0.67097780559E+01 -0.13761883554E+02  0.32903271556E+02  0.47000000000E+01 0.  1.
         13    1    4    4    0    0 -0.48581375750E+02 -0.38106899518E+02 -0.13505470599E+03  0.14849935849E+03  0.00000000000E+00 0. -1.
        -14    1    4    4    0    0 -0.96832247457E+02 -0.14965115168E+03 -0.17458831227E+03  0.24950557134E+03  0.00000000000E+00 0.  1.
</event>
<event>
12    1  0.8416569E-002  0.2662830E+03  0.7818608E-02  0.1103746E+00
         21   -1    0    0  503  502  0.00000000000E+00  0.00000000000E+00  0.92682949581E+02  0.92682949581E+02  0.00000000000E+00 0. -1.
         21   -1    0    0  501  503 -0.00000000000E+00 -0.00000000000E+00 -0.76505060870E+03  0.76505060870E+03  0.00000000000E+00 0. -1.
          6    2    1    2  501    0  0.65659800327E+02 -0.18861894662E+03 -0.29871386878E+03  0.40017070783E+03  0.17612013969E+03 0.  0.
         24    2    3    3    0    0  0.38487969458E+02 -0.55232228765E+02 -0.49542115242E+02  0.11620067833E+03  0.80723314943E+02 0.  0.
         -6    2    1    2    0  502 -0.65659800327E+02  0.18861894662E+03 -0.37365379034E+03  0.45756285045E+03  0.17279551693E+03 0.  0.
        -24    2    5    5    0    0 -0.76467983831E+02  0.20827796767E+03 -0.30078557140E+03  0.38117462314E+03  0.74800193816E+02 0.  0.
          5    1    3    3  501    0  0.27171830868E+02 -0.13338671786E+03 -0.24917175354E+03  0.28397002950E+03  0.47000000000E+01 0. -1.
        -11    1    4    4    0    0  0.14965650148E+02 -0.65990678594E+02 -0.92147018900E+01  0.68290929680E+02  0.00000000000E+00 0.  1.
         12    1    4    4    0    0  0.23522319310E+02  0.10758449829E+02 -0.40327413352E+02  0.47909748654E+02  0.00000000000E+00 0. -1.
         -5    1    5    5    0  502  0.10808183505E+02 -0.19659021053E+02 -0.72868218936E+02  0.76388227302E+02  0.47000000000E+01 0.  1.
         13    1    6    6    0    0 -0.76969659901E+02  0.12574914939E+03 -0.22576766594E+03  0.26964461074E+03  0.00000000000E+00 0. -1.
        -14    1    6    6    0    0  0.50167606951E+00  0.82528818288E+02 -0.75017905461E+02  0.11153001240E+03  0.00000000000E+00 0.  1.
</event>
<event>
12    1  0.8416569E-002  0.1812546E+03  0.7818608E-02  0.1166627E+00
         21   -1    0    0  503  502  0.00000000000E+00  0.00000000000E+00  0.12736908189E+03  0.12736908189E+03  0.00000000000E+00 0.  1.
         21   -1    0    0  501  503 -0.00000000000E+00 -0.00000000000E+00 -0.37705126538E+03  0.37705126538E+03  0.00000000000E+00 0.  1.
          6    2    1    2  501    0 -0.22566789493E+02  0.53377265787E+02 -0.26674527908E+03  0.32250004544E+03  0.17174062684E+03 0.  0.
         24    2    3    3    0    0 -0.36225479649E+02  0.20731768527E+02 -0.27210000680E+03  0.28640224194E+03  0.79029987242E+02 0.  0.
         -6    2    1    2    0  502  0.22566789493E+02 -0.53377265787E+02  0.17063095583E+02  0.18192030183E+03  0.17159677881E+03 0.  0.
        -24    2    5    5    0    0  0.44989000505E+02 -0.63472554883E+02 -0.40440309211E+02  0.11920346222E+03  0.80754389387E+02 0.  0.
          5    1    3    3  501    0  0.13658690156E+02  0.32645497261E+02  0.53547277285E+01  0.36097803496E+02  0.47000000000E+01 0. -1.
        -13    1    4    4    0    0 -0.43271865426E+01 -0.27555652502E+02 -0.13020824583E+03  0.13316240389E+03  0.00000000000E+00 0.  1.
         14    1    4    4    0    0 -0.31898293107E+02  0.48287421028E+02 -0.14189176098E+03  0.15323983805E+03  0.00000000000E+00 0. -1.
         -5    1    5    5    0  502 -0.22422211012E+02  0.10095289095E+02  0.57503404794E+02  0.62716839617E+02  0.47000000000E+01 0.  1.
         13    1    6    6    0    0 -0.98140754378E+01  0.89950398783E+01 -0.23166755459E+02  0.26719382058E+02  0.00000000000E+00 0. -1.
        -14    1    6    6    0    0  0.54803075943E+02 -0.72467594761E+02 -0.17273553752E+02  0.92484080157E+02  0.00000000000E+00 0.  1.
</event>
<event>
12    1  0.8416569E-002  0.2779755E+03  0.7818608E-02  0.1096808E+00
         21   -1    0    0  503  502  0.00000000000E+00  0.00000000000E+00  0.15870807277E+04  0.15870807277E+04  0.00000000000E+00 0. -1.
         21   -1    0    0  501  503 -0.00000000000E+00 -0.00000000000E+00 -0.15479395358E+03  0.15479395358E+03  0.00000000000E+00 0. -1.
          6    2    1    2  501    0  0.88442766719E+02  0.19922416880E+03 -0.49441823008E+01  0.27801947473E+03  0.17250504622E+03 0.  0.
         24    2    3    3    0    0  0.59067456949E+02  0.48179333410E+02  0.40938353792E+02  0.11738091074E+03  0.79322864026E+02 0.  0.
         -6    2    1    2    0  502 -0.88442766719E+02 -0.19922416880E+03  0.14372309565E+04  0.14638552066E+04  0.17241476500E+03 0.  0.
        -24    2    5    5    0    0 -0.91143274036E+01 -0.11802968636E+03  0.51644535592E+03  0.53608704727E+03  0.81605384448E+02 0.  0.
          5    1    3    3  501    0  0.29375309770E+02  0.15104483539E+03 -0.45882536093E+02  0.16063856399E+03  0.47000000000E+01 0. -1.
        -11    1    4    4    0    0 -0.71903224745E+01 -0.14922247084E+02 -0.12775319035E+01  0.16613436823E+02  0.00000000000E+00 0.  1.
         12    1    4    4    0    0  0.66257779423E+02  0.63101580494E+02  0.42215885695E+02  0.10076747392E+03  0.00000000000E+00 0. -1.
         -5    1    5    5    0  502 -0.79328439315E+02 -0.81194482446E+02  0.92078560055E+03  0.92776815932E+03  0.47000000000E+01 0.  1.
         13    1    6    6    0    0 -0.54848846616E+01 -0.89247726243E+02  0.48551903307E+03  0.49368408124E+03  0.00000000000E+00 0. -1.
        -14    1    6    6    0    0 -0.36294427420E+01 -0.28781960115E+02  0.30926322851E+02  0.42402966025E+02  0.00000000000E+00 0.  1.
</event>
<event>
12    1  0.8416569E-002  0.1900113E+03  0.7818608E-02  0.1158926E+00
         21   -1    0    0  501  502  0.00000000000E+00  0.00000000000E+00  0.76243599464E+03  0.76243599464E+03  0.00000000000E+00 0. -1.
         21   -1    0    0  502  503 -0.00000000000E+00 -0.00000000000E+00 -0.19307738122E+03  0.19307738122E+03  0.00000000000E+00 0. -1.
         -6    2    1    2    0  503  0.65297372690E+02 -0.38967005518E+02 -0.13149728060E+03  0.22935686167E+03  0.17184545612E+03 0.  0.
        -24    2    3    3    0    0  0.45013565665E+02 -0.36818362129E+02 -0.16120004857E+03  0.19301963666E+03  0.88821796838E+02 0.  0.
          6    2    1    2  501    0 -0.65297372690E+02  0.38967005518E+02  0.70085589402E+03  0.72615651419E+03  0.17413249126E+03 0.  0.
         24    2    5    5    0    0 -0.33331874961E+02  0.79913251862E+02  0.31255601694E+03  0.33436923431E+03  0.81328835071E+02 0.  0.
          5    1    5    5  501    0 -0.31965497729E+02 -0.40946246344E+02  0.38829987708E+03  0.39178727988E+03  0.47000000000E+01 0. -1.
        -13    1    6    6    0    0 -0.50872683189E+01  0.74295825445E+02  0.28479125546E+03  0.29436679358E+03  0.00000000000E+00 0.  1.
         14    1    6    6    0    0 -0.28244606643E+02  0.56174264172E+01  0.27764761483E+02  0.40002440727E+02  0.00000000000E+00 0. -1.
         -5    1    3    3    0  503  0.20283807026E+02 -0.21486433884E+01  0.29702767970E+02  0.36337225003E+02  0.47000000000E+01 0.  1.
         11    1    4    4    0    0 -0.17711123824E+02  0.72302644746E+01 -0.62090612659E+01  0.20112510367E+02  0.00000000000E+00 0. -1.
        -12    1    4    4    0    0  0.62724689489E+02 -0.44048626604E+02 -0.15499098731E+03  0.17290712630E+03  0.00000000000E+00 0.  1.
</event>
<event>
12    1  0.8416569E-002  0.1748139E+03  0.7818608E-02  0.1173616E+00
         21   -1    0    0  503  502  0.00000000000E+00  0.00000000000E+00  0.10021736404E+04  0.10021736404E+04  0.00000000000E+00 0. -1.
         21   -1    0    0  501  503 -0.00000000000E+00 -0.00000000000E+00 -0.56409900852E+02  0.56409900852E+02  0.00000000000E+00 0. -1.
          6    2    1    2  501    0  0.12508973748E+02  0.19756572641E+02  0.10883869909E+03  0.20359616852E+03  0.17046624542E+03 0.  0.
         24    2    3    3    0    0 -0.48039196017E+02 -0.44274734993E+01  0.10029651004E+03  0.13767190938E+03  0.81035781161E+02 0.  0.
         -6    2    1    2    0  502 -0.12508973748E+02 -0.19756572641E+02  0.83692504045E+03  0.85498737273E+03  0.17324285732E+03 0.  0.
        -24    2    5    5    0    0 -0.63560356576E+02  0.26104048095E+02  0.50388945022E+03  0.51492232809E+03  0.80740855050E+02 0.  0.
          5    1    3    3  501    0  0.60548169764E+02  0.24184046141E+02  0.85421890491E+01  0.65924259141E+02  0.47000000000E+01 0. -1.
        -11    1    4    4    0    0  0.65719392201E+01  0.20672398552E+02  0.63727165987E+02  0.67317829226E+02  0.00000000000E+00 0.  1.
         12    1    4    4    0    0 -0.54611135237E+02 -0.25099872051E+02  0.36569344058E+02  0.70354080150E+02  0.00000000000E+00 0. -1.
         -5    1    5    5    0  502  0.51051382828E+02 -0.45860620736E+02  0.33303559023E+03  0.34006504464E+03  0.47000000000E+01 0.  1.
         13    1    6    6    0    0 -0.11697261591E+02 -0.13076407268E+02  0.30863232562E+03  0.30913060472E+03  0.00000000000E+00 0. -1.
        -14    1    6    6    0    0 -0.51863094985E+02  0.39180455363E+02  0.19525712460E+03  0.20579172337E+03  0.00000000000E+00 0.  1.
</event>
<event>
12    1  0.8416569E-002  0.2127585E+03  0.7818608E-02  0.1139626E+00
         21   -1    0    0  501  502  0.00000000000E+00  0.00000000000E+00  0.19690293115E+03  0.19690293115E+03  0.00000000000E+00 0.  1.
         21   -1    0    0  502  503 -0.00000000000E+00 -0.00000000000E+00 -0.33090984728E+03  0.33090984728E+03  0.00000000000E+00 0.  1.
         -6    2    1    2    0  503 -0.45632480590E+00  0.12364641550E+03  0.79582195800E+02  0.22715524620E+03  0.17314021974E+03 0.  0.
        -24    2    3    3    0    0  0.13050717463E+01  0.12050831599E+02 -0.11122439652E+02  0.83259110897E+02  0.81617676572E+02 0.  0.
          6    2    1    2  501    0  0.45632480590E+00 -0.12364641550E+03 -0.21358911192E+03  0.30065753223E+03  0.17171487605E+03 0.  0.
         24    2    5    5    0    0 -0.44026911120E+02 -0.57799395586E+02 -0.18815333869E+03  0.21708925553E+03  0.80292757932E+02 0.  0.
          5    1    5    5  501    0  0.44483235926E+02 -0.65847019910E+02 -0.25435773238E+02  0.83568276695E+02  0.47000000000E+01 0. -1.
        -13    1    6    6    0    0  0.62578872604E+01  0.53874445005E+01 -0.88224238798E+02  0.88609830282E+02  0.00000000000E+00 0.  1.
         14    1    6    6    0    0 -0.50284798381E+02 -0.63186840087E+02 -0.99929099889E+02  0.12847942525E+03  0.00000000000E+00 0. -1.
         -5    1    3    3    0  503 -0.17613965522E+01  0.11159558390E+03  0.90704635452E+02  0.14389613530E+03  0.47000000000E+01 0.  1.
         13    1    4    4    0    0 -0.71552344075E+01 -0.33428273371E+02  0.43942932344E+01  0.34466747062E+02  0.00000000000E+00 0. -1.
        -14    1    4    4    0    0  0.84603061538E+01  0.45479104970E+02 -0.15516732886E+02  0.48792363835E+02  0.00000000000E+00 0.  1.
</event>
<event>
12    1  0.8416569E-002  0.2117354E+03  0.7818608E-02  0.1141627E+00
         21   -1    0    0  501  502  0.00000000000E+00  0.00000000000E+00  0.54573972693E+03  0.54573972693E+03  0.00000000000E+00 0. -1.
         21   -1    0    0  502  503 -0.00000000000E+00 -0.00000000000E+00 -0.82137341342E+02  0.82137341342E+02  0.00000000000E+00 0. -1.
         -6    2    1    2    0  503  0.16097147622E+02 -0.11126665913E+03  0.17059510227E+03  0.26637306990E+03  0.17091675125E+03 0.  0.
        -24    2    3    3    0    0  0.35594538421E+02 -0.35834578997E+02  0.20649685942E+02  0.97329096814E+02  0.80594387768E+02 0.  0.
          6    2    1    2  501    0 -0.16097147622E+02  0.11126665913E+03  0.29300728332E+03  0.36150399837E+03  0.17942264396E+03 0.  0.
         24    2    5    5    0    0  0.13105535150E+02  0.96205562292E+02  0.85303851527E+02  0.15116513154E+03  0.78402070395E+02 0.  0.
          5    1    5    5  501    0 -0.29202682773E+02  0.15061096834E+02  0.20770343179E+03  0.21033886683E+03  0.47000000000E+01 0. -1.
        -11    1    6    6    0    0 -0.14391084317E+02  0.53070775574E+02  0.40320028345E+01  0.55134994102E+02  0.00000000000E+00 0.  1.
         12    1    6    6    0    0  0.27496619468E+02  0.43134786718E+02  0.81271848692E+02  0.96030137443E+02  0.00000000000E+00 0. -1.
         -5    1    3    3    0  503 -0.19497390799E+02 -0.75432080128E+02  0.14994541633E+03  0.16904397309E+03  0.47000000000E+01 0.  1.
         11    1    4    4    0    0 -0.21790037515E+02 -0.11611719563E+02  0.24681104773E+02  0.34911240295E+02  0.00000000000E+00 0. -1.
        -12    1    4    4    0    0  0.57384575936E+02 -0.24222859434E+02 -0.40314188316E+01  0.62417856518E+02  0.00000000000E+00 0.  1.
</event>
<event>
12    1  0.8416569E-002  0.2899785E+03  0.7818608E-02  0.1090408E+00
         21   -1    0    0  503  502  0.00000000000E+00  0.00000000000E+00  0.35887521262E+03  0.35887521262E+03  0.00000000000E+00 0.  1.
         21   -1    0    0  501  503 -0.00000000000E+00 -0.00000000000E+00 -0.50277684527E+03  0.50277684527E+03  0.00000000000E+00 0.  1.
          6    2    1    2  501    0 -0.16065998293E+03 -0.16986745219E+03 -0.38696242065E+03  0.48355708894E+03  0.17152539706E+03 0.  0.
         24    2    3    3    0    0 -0.12559065379E+02 -0.83396227844E+02 -0.18532941214E+03  0.21881360075E+03  0.80123279547E+02 0.  0.
         -6    2    1    2    0  502  0.16065998293E+03  0.16986745219E+03  0.24306078800E+03  0.37809496895E+03  0.17091131459E+03 0.  0.
        -24    2    5    5    0    0  0.45668719894E+02  0.47428815270E+02  0.16020512307E+03  0.19074139520E+03  0.79884127904E+02 0.  0.
          5    1    3    3  501    0 -0.14810091755E+03 -0.86471224346E+02 -0.20163300851E+03  0.26474348819E+03  0.47000000000E+01 0. -1.
        -13    1    4    4    0    0 -0.40224586164E+02 -0.47476834911E+02 -0.14632372556E+03  0.15900534534E+03  0.00000000000E+00 0.  1.
         14    1    4    4    0    0  0.27665520785E+02 -0.35919392933E+02 -0.39005686580E+02  0.59808255405E+02  0.00000000000E+00 0. -1.
         -5    1    5    5    0  502  0.11499126303E+03  0.12243863692E+03  0.82855664930E+02  0.18735357375E+03  0.47000000000E+01 0.  1.
         13    1    6    6    0    0  0.59399941328E+02  0.17963469088E+02  0.13817894777E+03  0.15147429108E+03  0.00000000000E+00 0. -1.
        -14    1    6    6    0    0 -0.13731221434E+02  0.29465346182E+02  0.22026175298E+02  0.39267104120E+02  0.00000000000E+00 0.  1.
</event>
<event>
12    1  0.8416569E-002  0.1746707E+03  0.7818608E-02  0.1173091E+00
         21   -1    0    0  503  502  0.00000000000E+00  0.00000000000E+00  0.55480020780E+03  0.55480020780E+03  0.00000000000E+00 0.  1.
         21   -1    0    0  501  503 -0.00000000000E+00 -0.00000000000E+00 -0.61407067063E+02  0.61407067063E+02  0.00000000000E+00 0.  1.
          6    2    1    2  501    0  0.39312556498E+00 -0.29355885380E+02  0.34648038765E+03  0.38796793968E+03  0.17207132427E+03 0.  0.
         24    2    3    3    0    0 -0.67516807718E+01 -0.51491539069E+02  0.34855778563E+03  0.36414691946E+03  0.91725052403E+02 0.  0.
         -6    2    1    2    0  502 -0.39312556498E+00  0.29355885380E+02  0.14691275308E+03  0.22823933518E+03  0.17218569787E+03 0.  0.
        -24    2    5    5    0    0 -0.13534761640E+02  0.40030824496E+02  0.10393312786E+02  0.90593759506E+02  0.79457860709E+02 0.  0.
          5    1    3    3  501    0  0.71448063368E+01  0.22135653689E+02 -0.20773979821E+01  0.23821020217E+02  0.47000000000E+01 0. -1.
        -13    1    4    4    0    0 -0.52379576911E+01 -0.60220357515E+02  0.11073589729E+03  0.12616008326E+03  0.00000000000E+00 0.  1.
         14    1    4    4    0    0 -0.15137230807E+01  0.87288184461E+01  0.23782188834E+03  0.23798683620E+03  0.00000000000E+00 0. -1.
         -5    1    5    5    0  502  0.13141636075E+02 -0.10674939115E+02  0.13651944030E+03  0.13764557568E+03  0.47000000000E+01 0.  1.
         11    1    6    6    0    0 -0.50041807854E+01 -0.23604216045E+02  0.10684988331E+02  0.26388819907E+02  0.00000000000E+00 0. -1.
        -12    1    6    6    0    0 -0.85305808543E+01  0.63635040541E+02 -0.29167554446E+00  0.64204939600E+02  0.00000000000E+00 0.  1.
</event>
<event>
12    1  0.8416569E-002  0.1961498E+03  0.7818608E-02  0.1153185E+00
         21   -1    0    0  503  502  0.00000000000E+00  0.00000000000E+00  0.40840053453E+03  0.40840053453E+03  0.00000000000E+00 0. -1.
         21   -1    0    0  501  503 -0.00000000000E+00 -0.00000000000E+00 -0.17211998523E+03  0.17211998523E+03  0.00000000000E+00 0. -1.
          6    2    1    2  501    0  0.51416543780E+02  0.77642817074E+02 -0.77460188444E+02  0.21089056085E+03  0.17263452681E+03 0.  0.
         24    2    3    3    0    0 -0.23881943336E+02  0.84789917331E+02 -0.35305220773E+02  0.12417219773E+03  0.80078703634E+02 0.  0.
         -6    2    1    2    0  502 -0.51416543780E+02 -0.77642817074E+02  0.31374073775E+03  0.36962995891E+03  0.17181672789E+03 0.  0.
        -24    2    5    5    0    0  0.13369274970E+02  0.48492989584E+01  0.19135942155E+03  0.20838037574E+03  0.81250843462E+02 0.  0.
          5    1    3    3  501    0  0.75298487116E+02 -0.71471002572E+01 -0.42154967671E+02  0.86718363127E+02  0.47000000000E+01 0. -1.
        -11    1    4    4    0    0 -0.54439909508E+01 -0.14595279719E+02 -0.13839062935E+02  0.20836959723E+02  0.00000000000E+00 0.  1.
         12    1    4    4    0    0 -0.18437952386E+02  0.99385197050E+02 -0.21466157838E+02  0.10333523800E+03  0.00000000000E+00 0. -1.
         -5    1    5    5    0  502 -0.64785818750E+02 -0.82492116032E+02  0.12238131619E+03  0.16124958317E+03  0.47000000000E+01 0.  1.
         11    1    6    6    0    0  0.28804420074E+02 -0.30790270923E+02  0.11912852996E+03  0.12636986211E+03  0.00000000000E+00 0. -1.
        -12    1    6    6    0    0 -0.15435145104E+02  0.35639569882E+02  0.72230891598E+02  0.82010513636E+02  0.00000000000E+00 0.  1.
</event>
<event>
12    1  0.8416569E-002  0.1980259E+03  0.7818608E-02  0.1151761E+00
         21   -1    0    0  503  502  0.00000000000E+00  0.00000000000E+00  0.76255459672E+02  0.76255459672E+02  0.00000000000E+00 0.  1.
         21   -1    0    0  501  503 -0.00000000000E+00 -0.00000000000E+00 -0.53011811982E+03  0.53011811982E+03  0.00000000000E+00 0. -1.
          6    2    1    2  501    0 -0.48810272299E+02 -0.80890576068E+02 -0.28678361432E+03  0.34850980025E+03  0.17403594873E+03 0.  0.
         24    2    3    3    0    0 -0.62707556844E+02 -0.40679375353E+02 -0.76562802380E+02  0.13397552571E+03  0.80625861334E+02 0.  0.
         -6    2    1    2    0  502  0.48810272299E+02  0.80890576068E+02 -0.16707904583E+03  0.25786377924E+03  0.17219928313E+03 0.  0.
        -24    2    5    5    0    0  0.53986306283E+02  0.26525885989E+02 -0.17589870859E+03  0.20234632877E+03  0.79909556307E+02 0.  0.
          5    1    3    3  501    0  0.13897284545E+02 -0.40211200715E+02 -0.21022081194E+03  0.21453427455E+03  0.47000000000E+01 0. -1.
        -11    1    4    4    0    0  0.18391754845E+02 -0.68886510712E+01 -0.40360580966E+01  0.20049935781E+02  0.00000000000E+00 0.  1.
         12    1    4    4    0    0 -0.81099311689E+02 -0.33790724282E+02 -0.72526744283E+02  0.11392558993E+03  0.00000000000E+00 0. -1.
         -5    1    5    5    0  502 -0.51760339842E+01  0.54364690079E+02  0.88196627667E+01  0.55517450469E+02  0.47000000000E+01 0.  1.
         13    1    6    6    0    0  0.20436676009E+02  0.52303856192E+02 -0.11753099383E+03  0.13025699832E+03  0.00000000000E+00 0. -1.
        -14    1    6    6    0    0  0.33549630275E+02 -0.25777970203E+02 -0.58367714761E+02  0.72089330457E+02  0.00000000000E+00 0.  1.
</event>
<event>
12    1  0.8416569E-002  0.1943949E+03  0.7818608E-02  0.1154888E+00
         21   -1    0    0  503  502  0.00000000000E+00  0.00000000000E+00  0.10524038987E+04  0.10524038987E+04  0.00000000000E+00 0. -1.
         21   -1    0    0  501  503 -0.00000000000E+00 -0.00000000000E+00 -0.50707630450E+02  0.50707630450E+02  0.00000000000E+00 0. -1.
          6    2    1    2  501    0  0.29235245089E+02 -0.84713174123E+02  0.20145577005E+03  0.27995320819E+03  0.17250608703E+03 0.  0.
         24    2    3    3    0    0 -0.25328236561E+01 -0.34262739237E+02  0.20218015290E+03  0.22014458588E+03  0.80040452080E+02 0.  0.
         -6    2    1    2    0  502 -0.29235245089E+02  0.84713174123E+02  0.80024049816E+03  0.82315832092E+03  0.17080323469E+03 0.  0.
        -24    2    5    5    0    0 -0.45141917288E+02  0.76261193082E+02  0.79601184816E+03  0.80406827942E+03  0.70974455171E+02 0.  0.
          5    1    3    3  501    0  0.31768068746E+02 -0.50450434886E+02 -0.72438285209E+00  0.59808622309E+02  0.47000000000E+01 0. -1.
        -13    1    4    4    0    0  0.37172311978E+01  0.14883224415E+02  0.13906229450E+03  0.13990586095E+03  0.00000000000E+00 0.  1.
         14    1    4    4    0    0 -0.62500548539E+01 -0.49145963652E+02  0.63117858397E+02  0.80238724925E+02  0.00000000000E+00 0. -1.
         -5    1    5    5    0  502  0.15906672198E+02  0.84519810402E+01  0.42286500052E+01  0.19090041509E+02  0.47000000000E+01 0.  1.
         13    1    6    6    0    0  0.19174905122E+01  0.64016581468E+02  0.50076399682E+03  0.50484292605E+03  0.00000000000E+00 0. -1.
        -14    1    6    6    0    0 -0.47059407800E+02  0.12244611614E+02  0.29524785134E+03  0.29922535336E+03  0.00000000000E+00 0.  1.
</event>
<event>
12    1  0.8416569E-002  0.3326003E+03  0.7818608E-02  0.1070005E+00
         21   -1    0    0  503  502  0.00000000000E+00  0.00000000000E+00  0.12088224359E+03  0.12088224359E+03  0.00000000000E+00 0.  1.
         21   -1    0    0  501  503 -0.00000000000E+00 -0.00000000000E+00 -0.95510010383E+03  0.95510010383E+03  0.00000000000E+00 0.  1.
          6    2    1    2  501    0  0.14682081050E+03  0.24377609796E+03 -0.52766953900E+03  0.62374521186E+03  0.17216216365E+03 0.  0.
         24    2    3    3    0    0  0.13426340247E+03  0.19297822738E+03 -0.29630395162E+03  0.38648957510E+03  0.79441188468E+02 0.  0.
         -6    2    1    2    0  502 -0.14682081050E+03 -0.24377609796E+03 -0.30654832123E+03  0.45223713556E+03  0.17194015585E+03 0.  0.
        -24    2    5    5    0    0 -0.59038478864E+02 -0.21165896048E+03 -0.18280085388E+03  0.29708310260E+03  0.80976293654E+02 0.  0.
          5    1    3    3  501    0  0.12557408029E+02  0.50797870581E+02 -0.23136558738E+03  0.23725563676E+03  0.47000000000E+01 0. -1.
        -13    1    4    4    0    0  0.50130070346E+02  0.13777209165E+03 -0.19176717837E+03  0.24138936159E+03  0.00000000000E+00 0.  1.
         14    1    4    4    0    0  0.84133332125E+02  0.55206135736E+02 -0.10453677325E+03  0.14510021350E+03  0.00000000000E+00 0. -1.
         -5    1    5    5    0  502 -0.87782331636E+02 -0.32117137488E+02 -0.12374746735E+03  0.15515403296E+03  0.47000000000E+01 0.  1.
         11    1    6    6    0    0 -0.94459346665E+01 -0.84689002855E+02 -0.25520623702E+02  0.88953668392E+02  0.00000000000E+00 0. -1.
        -12    1    6    6    0    0 -0.49592544198E+02 -0.12696995762E+03 -0.15728023018E+03  0.20812943421E+03  0.00000000000E+00 0.  1.
</event>
<event>
12    1  0.8416569E-002  0.2001833E+03  0.7818608E-02  0.1149932E+00
         21   -1    0    0  503  502  0.00000000000E+00  0.00000000000E+00  0.64364988449E+03  0.64364988449E+03  0.00000000000E+00 0. -1.
         21   -1    0    0  501  503 -0.00000000000E+00 -0.00000000000E+00 -0.12336907934E+03  0.12336907934E+03  0.00000000000E+00 0.  1.
          6    2    1    2  501    0 -0.74490201555E+02 -0.61347021292E+02 -0.10360946575E+02  0.20045123689E+03  0.17538843179E+03 0.  0.
         24    2    3    3    0    0 -0.86015804750E+02 -0.13259014232E+02  0.50756608210E+02  0.12169375182E+03  0.68254053571E+02 0.  0.
         -6    2    1    2    0  502  0.74490201555E+02  0.61347021292E+02  0.53064175173E+03  0.56656772694E+03  0.17351101804E+03 0.  0.
        -24    2    5    5    0    0  0.21406621398E+02  0.81642910496E+02  0.46577813359E+03  0.48020124872E+03  0.80747515582E+02 0.  0.
          5    1    3    3  501    0  0.11525603195E+02 -0.48088007060E+02 -0.61117554785E+02  0.78757485073E+02  0.47000000000E+01 0. -1.
        -11    1    4    4    0    0 -0.69146708205E+02 -0.13535611483E+02  0.24235764565E+01  0.70500735859E+02  0.00000000000E+00 0.  1.
         12    1    4    4    0    0 -0.16869096545E+02  0.27659725102E+00  0.48333031754E+02  0.51193015957E+02  0.00000000000E+00 0. -1.
         -5    1    5    5    0  502  0.53083580157E+02 -0.20295889203E+02  0.64863618140E+02  0.86366478214E+02  0.47000000000E+01 0.  1.
         11    1    6    6    0    0  0.31210676214E+02  0.24547874777E+02  0.72342886625E+02  0.82523922053E+02  0.00000000000E+00 0. -1.
        -12    1    6    6    0    0 -0.98040548161E+01  0.57095035718E+02  0.39343524696E+03  0.39767732667E+03  0.00000000000E+00 0.  1.
</event>
<event>
12    1  0.8416569E-002  0.2288702E+03  0.7818608E-02  0.1127463E+00
         21   -1    0    0  501  502  0.00000000000E+00  0.00000000000E+00  0.13102328621E+03  0.13102328621E+03  0.00000000000E+00 0. -1.
         21   -1    0    0  502  503 -0.00000000000E+00 -0.00000000000E+00 -0.43422047244E+03  0.43422047244E+03  0.00000000000E+00 0.  1.
         -6    2    1    2    0  503  0.67541027308E+02 -0.13520546152E+03 -0.23151514228E+03  0.32554699174E+03  0.17186993783E+03 0.  0.
        -24    2    3    3    0    0  0.19820042542E+02 -0.12306858457E+03 -0.80535665096E+02  0.16667128969E+03  0.75859177831E+02 0.  0.
          6    2    1    2  501    0 -0.67541027308E+02  0.13520546152E+03 -0.71682043947E+02  0.23969676691E+03  0.17167969434E+03 0.  0.
         24    2    5    5    0    0  0.14320800468E+02  0.86373319838E+02 -0.81956000540E+02  0.14370936622E+03  0.79184343200E+02 0.  0.
          5    1    5    5  501    0 -0.81861827776E+02  0.48832141677E+02  0.10273956594E+02  0.95987400693E+02  0.47000000000E+01 0. -1.
        -11    1    6    6    0    0  0.12545827784E+02  0.99132177867E+02 -0.55542664184E+02  0.11432223768E+03  0.00000000000E+00 0.  1.
         12    1    6    6    0    0  0.17749726841E+01 -0.12758858028E+02 -0.26413336357E+02  0.29387128538E+02  0.00000000000E+00 0. -1.
         -5    1    3    3    0  503  0.47720984767E+02 -0.12136876949E+02 -0.15097947719E+03  0.15887570205E+03  0.47000000000E+01 0.  1.
         11    1    4    4    0    0  0.38365381497E+02 -0.31190458905E+02 -0.12942458797E+02  0.51110218781E+02  0.00000000000E+00 0. -1.
        -12    1    4    4    0    0 -0.18545338955E+02 -0.91878125661E+02 -0.67593206299E+02  0.11556107091E+03  0.00000000000E+00 0.  1.
</event>
<event>
12    1  0.8416569E-002  0.1978664E+03  0.7818608E-02  0.1151847E+00
         21   -1    0    0  501  502  0.00000000000E+00  0.00000000000E+00  0.20097134934E+03  0.20097134934E+03  0.00000000000E+00 0. -1.
         21   -1    0    0  502  503 -0.00000000000E+00 -0.00000000000E+00 -0.26550210656E+03  0.26550210656E+03  0.00000000000E+00 0. -1.
         -6    2    1    2    0  503  0.26576442686E+02 -0.94311730235E+02  0.89311915738E+02  0.21583691311E+03  0.17031718939E+03 0.  0.
        -24    2    3    3    0    0  0.34606493867E+02  0.12628870492E+02  0.52986686462E+02  0.10251266112E+03  0.79650228877E+02 0.  0.
          6    2    1    2  501    0 -0.26576442686E+02  0.94311730235E+02 -0.15384267295E+03  0.25063654280E+03  0.17190142175E+03 0.  0.
         24    2    5    5    0    0 -0.47822385158E+01 -0.21696246922E+02 -0.54689406877E+02  0.96408470538E+02  0.76223782583E+02 0.  0.
          5    1    5    5  501    0 -0.21794204170E+02  0.11600797716E+03 -0.99153266075E+02  0.15422807226E+03  0.47000000000E+01 0. -1.
        -13    1    6    6    0    0  0.97646997623E+01 -0.63857662505E+01  0.17589509248E+02  0.21107302235E+02  0.00000000000E+00 0.  1.
         14    1    6    6    0    0 -0.14546938278E+02 -0.15310480671E+02 -0.72278916125E+02  0.75301168303E+02  0.00000000000E+00 0. -1.
         -5    1    3    3    0  503 -0.80300511810E+01 -0.10694060073E+03  0.36325229276E+02  0.11332425198E+03  0.47000000000E+01 0.  1.
         11    1    4    4    0    0 -0.20302381290E+02 -0.13937686502E+02  0.26000703593E+02  0.35811763129E+02  0.00000000000E+00 0. -1.
        -12    1    4    4    0    0  0.54908875157E+02  0.26566556993E+02  0.26985982869E+02  0.66700897992E+02  0.00000000000E+00 0.  1.
</event>
<event>
12    1  0.8416569E-002  0.1806072E+03  0.7818608E-02  0.1167697E+00
         21   -1    0    0  501  502  0.00000000000E+00  0.00000000000E+00  0.25076494299E+03  0.25076494299E+03  0.00000000000E+00 0.  1.
         21   -1    0    0  502  503 -0.00000000000E+00 -0.00000000000E+00 -0.13916006680E+03  0.13916006680E+03  0.00000000000E+00 0. -1.
         -6    2    1    2    0  503 -0.53596971966E+02 -0.12697765533E+01  0.10965314986E+03  0.21128836551E+03  0.17246655441E+03 0.  0.
        -24    2    3    3    0    0 -0.70152667834E+02 -0.33753985774E+01  0.14029966918E+03  0.17607723295E+03  0.79914984022E+02 0.  0.
          6    2    1    2  501    0  0.53596971966E+02  0.12697765533E+01  0.19517263388E+01  0.17863664428E+03  0.17039070898E+03 0.  0.
         24    2    5    5    0    0  0.49495879703E+02 -0.54229521653E+02  0.38829634668E+02  0.11171085566E+03  0.74705365393E+02 0.  0.
          5    1    5    5  501    0  0.41010922636E+01  0.55499298206E+02 -0.36877908329E+02  0.66925788616E+02  0.47000000000E+01 0. -1.
        -13    1    6    6    0    0  0.33945271573E+01 -0.31530097093E+02  0.49919807286E+02  0.59140992524E+02  0.00000000000E+00 0.  1.
         14    1    6    6    0    0  0.46101352545E+02 -0.22699424560E+02 -0.11090172618E+02  0.52569863140E+02  0.00000000000E+00 0. -1.
         -5    1    3    3    0  503  0.16555695867E+02  0.21056220241E+01 -0.30646519321E+02  0.35211132562E+02  0.47000000000E+01 0.  1.
         11    1    4    4    0    0  0.13944997574E+02 -0.15808337143E+02  0.22834412937E+02  0.31076951182E+02  0.00000000000E+00 0. -1.
        -12    1    4    4    0    0 -0.84097665408E+02  0.12432938566E+02  0.11746525624E+03  0.14500028177E+03  0.00000000000E+00 0.  1.
</event>
<event>
12    1  0.8416569E-002  0.1886593E+03  0.7818608E-02  0.1161853E+00
         21   -1    0    0  503  502  0.00000000000E+00  0.00000000000E+00  0.62822527583E+02  0.62822527583E+02  0.00000000000E+00 0. -1.
         21   -1    0    0  501  503 -0.00000000000E+00 -0.00000000000E+00 -0.69072105800E+03  0.69072105800E+03  0.00000000000E+00 0. -1.
          6    2    1    2  501    0 -0.55578627101E+02  0.46095366091E+02 -0.49671664252E+03  0.53133770545E+03  0.17429448561E+03 0.  0.
         24    2    3    3    0    0 -0.49699428201E+02 -0.17212961226E+02 -0.42411470237E+03  0.43471658457E+03  0.79617265303E+02 0.  0.
         -6    2    1    2    0  502  0.55578627101E+02 -0.46095366091E+02 -0.13118188790E+03  0.22220588013E+03  0.16417368512E+03 0.  0.
        -24    2    5    5    0    0  0.66565220286E+02  0.11112279554E+02 -0.34656795052E+02  0.10936704152E+03  0.78775916493E+02 0.  0.
          5    1    3    3  501    0 -0.58791989006E+01  0.63308327317E+02 -0.72601940154E+02  0.96621120887E+02  0.47000000000E+01 0. -1.
        -11    1    4    4    0    0  0.66665649510E+00 -0.39616566840E+02 -0.15238459973E+03  0.15745152598E+03  0.00000000000E+00 0.  1.
         12    1    4    4    0    0 -0.50366084696E+02  0.22403605614E+02 -0.27173010264E+03  0.27726505858E+03  0.00000000000E+00 0. -1.
         -5    1    5    5    0  502 -0.10986593185E+02 -0.57207645645E+02 -0.96525092845E+02  0.11283883861E+03  0.47000000000E+01 0.  1.
         13    1    6    6    0    0  0.83488915621E+02  0.14499752277E+00 -0.26251850316E+02  0.87519024794E+02  0.00000000000E+00 0. -1.
        -14    1    6    6    0    0 -0.16923695335E+02  0.10967282031E+02 -0.84049447363E+01  0.21848016728E+02  0.00000000000E+00 0.  1.
</event>
<event>
12    1  0.8416569E-002  0.1899870E+03  0.7818608E-02  0.1158577E+00
         21   -1    0    0  503  502  0.00000000000E+00  0.00000000000E+00  0.60671105023E+03  0.60671105023E+03  0.00000000000E+00 0. -1.
         21   -1    0    0  501  503 -0.00000000000E+00 -0.00000000000E+00 -0.78487366192E+02  0.78487366192E+02  0.00000000000E+00 0.  1.
          6    2    1    2  501    0 -0.79195692070E+02  0.17967678384E+02  0.95177345237E+02  0.21249421003E+03  0.17175641805E+03 0.  0.
         24    2    3    3    0    0 -0.94791894899E+02 -0.40020540257E+02  0.71448747832E+02  0.14775618891E+03  0.78357008715E+02 0.  0.
         -6    2    1    2    0  502  0.79195692070E+02 -0.17967678384E+02  0.43304633880E+03  0.47270420639E+03  0.17124643085E+03 0.  0.
        -24    2    5    5    0    0  0.92550090766E+02 -0.51766397970E+02  0.40115730821E+03  0.42412752801E+03  0.87816256053E+02 0.  0.
          5    1    3    3  501    0  0.15596202829E+02  0.57988218641E+02  0.23728597405E+02  0.64738021121E+02  0.47000000000E+01 0. -1.
        -11    1    4    4    0    0 -0.36572449527E+02 -0.57476285281E+02  0.31755070881E+02  0.75162836301E+02  0.00000000000E+00 0.  1.
         12    1    4    4    0    0 -0.58219445372E+02  0.17455745024E+02  0.39693676951E+02  0.72593352613E+02  0.00000000000E+00 0. -1.
         -5    1    5    5    0  502 -0.13354398697E+02  0.33798719586E+02  0.31889030596E+02  0.48576678381E+02  0.47000000000E+01 0.  1.
         13    1    6    6    0    0  0.21198512976E+02 -0.21230764007E+02  0.27049293397E+03  0.27215170332E+03  0.00000000000E+00 0. -1.
        -14    1    6    6    0    0  0.71351577790E+02 -0.30535633963E+02  0.13066437423E+03  0.15197582469E+03  0.00000000000E+00 0.  1.
</event>
<event>
12    1  0.8416569E-002  0.1966890E+03  0.7818608E-02  0.1152602E+00
         21   -1    0    0  501  502  0.00000000000E+00  0.00000000000E+00  0.63472650102E+03  0.63472650102E+03  0.00000000000E+00 0.  1.
         21   -1    0    0  502  503 -0.00000000000E+00 -0.00000000000E+00 -0.72946832413E+02  0.72946832413E+02  0.00000000000E+00 0.  1.
         -6    2    1    2    0  503  0.11188911843E+02  0.95208078422E+02  0.13716902707E+03  0.23979558111E+03  0.17174635015E+03 0.  0.
        -24    2    3    3    0    0 -0.27150461728E+02  0.26365429694E+01  0.10418579652E+03  0.13420495539E+03  0.80076157035E+02 0.  0.
          6    2    1    2  501    0 -0.11188911843E+02 -0.95208078422E+02  0.42461064154E+03  0.46787775233E+03  0.17153898759E+03 0.  0.
         24    2    5    5    0    0  0.33478284739E+02 -0.82587799179E+02  0.39483264880E+03  0.41253112867E+03  0.79671647633E+02 0.  0.
          5    1    5    5  501    0 -0.44667196582E+02 -0.12620279243E+02  0.29777992740E+02  0.55346623658E+02  0.47000000000E+01 0. -1.
        -11    1    6    6    0    0  0.20658008232E+02 -0.96694842441E+02  0.30244589304E+03  0.31819830936E+03  0.00000000000E+00 0.  1.
         12    1    6    6    0    0  0.12820276507E+02  0.14107043262E+02  0.92386755761E+02  0.94332819312E+02  0.00000000000E+00 0. -1.
         -5    1    3    3    0  503  0.38339373571E+02  0.92571535452E+02  0.32983230551E+02  0.10559062572E+03  0.47000000000E+01 0.  1.
         11    1    4    4    0    0  0.14833382093E+02  0.18823808726E+02  0.79179361098E+02  0.82726877272E+02  0.00000000000E+00 0. -1.
        -12    1    4    4    0    0 -0.41983843821E+02 -0.16187265757E+02  0.25006435417E+02  0.51478078120E+02  0.00000000000E+00 0.  1.
</event>
<event>
12    1  0.8416569E-002  0.1811534E+03  0.7818608E-02  0.1167138E+00
         21   -1    0    0  503  502  0.00000000000E+00  0.00000000000E+00  0.21745561394E+04  0.21745561394E+04  0.00000000000E+00 0. -1.
         21   -1    0    0  501  503 -0.00000000000E+00 -0.00000000000E+00 -0.15364136003E+02  0.15364136003E+02  0.00000000000E+00 0. -1.
          6    2    1    2  501    0 -0.38910254924E+02  0.43933561946E+02  0.12566798517E+04  0.12694069737E+04  0.16942741649E+03 0.  0.
         24    2    3    3    0    0 -0.45070327981E+02  0.91339737890E+02  0.96191947833E+03  0.97075825075E+03  0.81903702254E+02 0.  0.
         -6    2    1    2    0  502  0.38910254924E+02 -0.43933561946E+02  0.90251215179E+03  0.92051330177E+03  0.17138374722E+03 0.  0.
        -24    2    5    5    0    0  0.88607708970E+02 -0.30396477585E+02  0.50970104882E+03  0.52431165841E+03  0.79575649752E+02 0.  0.
          5    1    3    3  501    0  0.61600730574E+01 -0.47406175945E+02  0.29476037333E+03  0.29864872292E+03  0.47000000000E+01 0. -1.
        -11    1    4    4    0    0 -0.42846967762E+02  0.75946384600E+02  0.43734844724E+03  0.44595670226E+03  0.00000000000E+00 0.  1.
         12    1    4    4    0    0 -0.22233602189E+01  0.15393353290E+02  0.52457103108E+03  0.52480154850E+03  0.00000000000E+00 0. -1.
         -5    1    5    5    0  502 -0.49697454047E+02 -0.13537084361E+02  0.39281110297E+03  0.39620164337E+03  0.47000000000E+01 0.  1.
         11    1    6    6    0    0  0.33775656176E+02  0.22857602438E+02  0.25982002101E+03  0.26300134649E+03  0.00000000000E+00 0. -1.
        -12    1    6    6    0    0  0.54832052794E+02 -0.53254080023E+02  0.24988102781E+03  0.26131031191E+03  0.00000000000E+00 0.  1.
</event>
<event>
12    1  0.8416569E-002  0.1962047E+03  0.7818608E-02  0.1153152E+00
         21   -1    0    0  501  502  0.00000000000E+00  0.00000000000E+00  0.10123801966E+03  0.10123801966E+03  0.00000000000E+00 0.  1.
         21   -1    0    0  502  503 -0.00000000000E+00 -0.00000000000E+00 -0.86516609445E+03  0.86516609445E+03  0.00000000000E+00 0.  1.
         -6    2    1    2    0  503 -0.86553203680E+02 -0.35696317243E+02 -0.74394683616E+03  0.76918460099E+03  0.17152950544E+03 0.  0.
        -24    2    3    3    0    0 -0.79200147725E+02  0.39939038194E+02 -0.39659382479E+03  0.41358513680E+03  0.76799826493E+02 0.  0.
          6    2    1    2  501    0  0.86553203680E+02  0.35696317243E+02 -0.19981238625E+02  0.19721951311E+03  0.17242564288E+03 0.  0.
         24    2    5    5    0    0  0.89228651860E+02  0.11830636268E+02  0.44311867039E+02  0.12842691040E+03  0.80176140393E+02 0.  0.
          5    1    5    5  501    0 -0.26754481802E+01  0.23865680975E+02 -0.64293105664E+02  0.68792602708E+02  0.47000000000E+01 0. -1.
        -11    1    6    6    0    0  0.50743327521E+02  0.36584518596E+02 -0.29718522380E+01  0.62627024475E+02  0.00000000000E+00 0.  1.
         12    1    6    6    0    0  0.38485324339E+02 -0.24753882328E+02  0.47283719277E+02  0.65799885930E+02  0.00000000000E+00 0. -1.
         -5    1    3    3    0  503 -0.73530559551E+01 -0.75635355437E+02 -0.34735301137E+03  0.35559946419E+03  0.47000000000E+01 0.  1.
         11    1    4    4    0    0 -0.39434387650E+02  0.39759616669E+02 -0.33901527886E+03  0.34360916365E+03  0.00000000000E+00 0. -1.
        -12    1    4    4    0    0 -0.39765760074E+02  0.17942152541E+00 -0.57578545933E+02  0.69975973149E+02  0.00000000000E+00 0.  1.
</event>
<event>
12    1  0.8416569E-002  0.2262892E+03  0.7818608E-02  0.1130010E+00
         21   -1    0    0  503  502  0.00000000000E+00  0.00000000000E+00  0.11165955493E+03  0.11165955493E+03  0.00000000000E+00 0.  1.
         21   -1    0    0  501  503 -0.00000000000E+00 -0.00000000000E+00 -0.57312598654E+03  0.57312598654E+03  0.00000000000E+00 0. -1.
          6    2    1    2  501    0 -0.14245742614E+03  0.16882626105E+02 -0.38749326306E+03  0.44671239295E+03  0.16976981997E+03 0.  0.
         24    2    3    3    0    0 -0.19925390224E+01 -0.26777163048E+01 -0.13013692472E+03  0.15282913996E+03  0.80062391090E+02 0.  0.
         -6    2    1    2    0  502  0.14245742614E+03 -0.16882626105E+02 -0.73973168556E+02  0.23807314852E+03  0.17500757999E+03 0.  0.
        -24    2    5    5    0    0  0.13614743414E+03 -0.57909381596E+02 -0.92012882616E+02  0.19257005029E+03  0.82019713493E+02 0.  0.
          5    1    3    3  501    0 -0.14046488712E+03  0.19560342410E+02 -0.25735633834E+03  0.29388325299E+03  0.47000000000E+01 0. -1.
        -13    1    4    4    0    0  0.25255600529E+02 -0.10986506398E+02 -0.99052188826E+01  0.29268789555E+02  0.00000000000E+00 0.  1.
         14    1    4    4    0    0 -0.27248139552E+02  0.83087900930E+01 -0.12023170584E+03  0.12356035040E+03  0.00000000000E+00 0. -1.
         -5    1    5    5    0  502  0.63099919953E+01  0.41026755491E+02  0.18039714061E+02  0.45503098230E+02  0.47000000000E+01 0.  1.
         11    1    6    6    0    0  0.94407824475E+02 -0.11543980678E+01 -0.73710390434E+02  0.11978059782E+03  0.00000000000E+00 0. -1.
        -12    1    6    6    0    0  0.41739609668E+02 -0.56754983528E+02 -0.18302492182E+02  0.72789452468E+02  0.00000000000E+00 0.  1.
</event>
<event>
12    1  0.8416569E-002  0.2030781E+03  0.7818608E-02  0.1147227E+00
         21   -1    0    0  503  502  0.00000000000E+00  0.00000000000E+00  0.67572476400E+03  0.67572476400E+03  0.00000000000E+00 0. -1.
         21   -1    0    0  501  503 -0.00000000000E+00 -0.00000000000E+00 -0.68785138745E+02  0.68785138745E+02  0.00000000000E+00 0. -1.
          6    2    1    2  501    0  0.40702069797E+02  0.99421230025E+02  0.17761007024E+03  0.26957348917E+03  0.17199793473E+03 0.  0.
         24    2    3    3    0    0  0.11484625094E+02  0.33945835562E+01  0.14727428155E+02  0.78190049455E+02  0.75850951759E+02 0.  0.
         -6    2    1    2    0  502 -0.40702069797E+02 -0.99421230025E+02  0.42932955501E+03  0.47493641357E+03  0.17233540164E+03 0.  0.
        -24    2    5    5    0    0 -0.63810609760E+02 -0.96402856471E+02  0.42868883399E+03  0.45115373665E+03  0.80001706537E+02 0.  0.
          5    1    3    3  501    0  0.29217444703E+02  0.96026646468E+02  0.16288264208E+03  0.19138343972E+03  0.47000000000E+01 0. -1.
        -13    1    4    4    0    0  0.31061885044E+02 -0.13309961328E+02 -0.16597368866E+02  0.37649281883E+02  0.00000000000E+00 0.  1.
         14    1    4    4    0    0 -0.19577259950E+02  0.16704544885E+02  0.31324797021E+02  0.40540767572E+02  0.00000000000E+00 0. -1.
         -5    1    5    5    0  502  0.23108539963E+02 -0.30183735536E+01  0.64072102556E+00  0.23782676922E+02  0.47000000000E+01 0.  1.
         11    1    6    6    0    0 -0.13814863175E+02 -0.86533735071E+02  0.23285306402E+03  0.24879607548E+03  0.00000000000E+00 0. -1.
        -12    1    6    6    0    0 -0.49995746586E+02 -0.98691214003E+01  0.19583576997E+03  0.20235766117E+03  0.00000000000E+00 0.  1.
</event>
<event>
12    1  0.8416569E-002  0.2135455E+03  0.7818608E-02  0.1138883E+00
         21   -1    0    0  501  502  0.00000000000E+00  0.00000000000E+00  0.17109283913E+04  0.17109283913E+04  0.00000000000E+00 0.  1.
         21   -1    0    0  502  503 -0.00000000000E+00 -0.00000000000E+00 -0.31865743355E+02  0.31865743355E+02  0.00000000000E+00 0.  1.
         -6    2    1    2    0  503  0.12027163463E+03 -0.44539538905E+02  0.48585382412E+03  0.53071237153E+03  0.17074146027E+03 0.  0.
        -24    2    3    3    0    0  0.41958393664E+01 -0.44629665636E+02  0.27503675284E+03  0.29000606519E+03  0.80304983083E+02 0.  0.
          6    2    1    2  501    0 -0.12027163463E+03  0.44539538905E+02  0.11932088238E+04  0.12120817631E+04  0.17013484839E+03 0.  0.
         24    2    5    5    0    0 -0.12151840255E+03  0.56190718318E+02  0.11879873143E+04  0.11984194583E+04  0.83493832565E+02 0.  0.
          5    1    5    5  501    0  0.12467679170E+01 -0.11651179413E+02  0.52215095235E+01  0.13662304844E+02  0.47000000000E+01 0. -1.
        -11    1    6    6    0    0 -0.41954551866E+02  0.63794815921E+02  0.66313472495E+03  0.66751601209E+03  0.00000000000E+00 0.  1.
         12    1    6    6    0    0 -0.79563850682E+02 -0.76040976036E+01  0.52485258933E+03  0.53090344618E+03  0.00000000000E+00 0. -1.
         -5    1    3    3    0  503  0.11607579526E+03  0.90126731727E-01  0.21081707128E+03  0.24070630634E+03  0.47000000000E+01 0.  1.
         11    1    4    4    0    0 -0.15954101656E+02 -0.59804120832E+02  0.14685283927E+03  0.15936380590E+03  0.00000000000E+00 0. -1.
        -12    1    4    4    0    0  0.20149941022E+02  0.15174455196E+02  0.12818391357E+03  0.13064225929E+03  0.00000000000E+00 0.  1.
</event>
<event>
12    1  0.8416569E-002  0.1777786E+03  0.7818608E-02  0.1170473E+00
         21   -1    0    0  503  502  0.00000000000E+00  0.00000000000E+00  0.38746339205E+03  0.38746339205E+03  0.00000000000E+00 0.  1.
         21   -1    0    0  501  503 -0.00000000000E+00 -0.00000000000E+00 -0.96231455588E+02  0.96231455588E+02  0.00000000000E+00 0.  1.
          6    2    1    2  501    0 -0.36263516436E+02  0.25176127694E+02  0.24366241373E+03  0.30162326012E+03  0.17221015983E+03 0.  0.
         24    2    3    3    0    0 -0.74128994176E+02  0.12872823026E+02  0.23713993052E+03  0.26100554850E+03  0.78915982848E+02 0.  0.
         -6    2    1    2    0  502  0.36263516436E+02 -0.25176127694E+02  0.47569522731E+02  0.18207158752E+03  0.17011267871E+03 0.  0.
        -24    2    5    5    0    0  0.27211466901E+02  0.51012506300E+02  0.21666134190E+02  0.10095609524E+03  0.79874727322E+02 0.  0.
          5    1    3    3  501    0  0.37865477740E+02  0.12303304668E+02  0.65224832130E+01  0.40617711623E+02  0.47000000000E+01 0. -1.
        -13    1    4    4    0    0 -0.48467121528E+02 -0.29379981146E+02  0.96285944522E+02  0.11172836826E+03  0.00000000000E+00 0.  1.
         14    1    4    4    0    0 -0.25661872647E+02  0.42252804172E+02  0.14085398600E+03  0.14927718024E+03  0.00000000000E+00 0. -1.
         -5    1    5    5    0  502  0.90520495344E+01 -0.76188633994E+02  0.25903388541E+02  0.81115492284E+02  0.47000000000E+01 0.  1.
         13    1    6    6    0    0 -0.61681316939E+01 -0.14600774096E+02 -0.12124191719E+02  0.19955562574E+02  0.00000000000E+00 0. -1.
        -14    1    6    6    0    0  0.33379598595E+02  0.65613280396E+02  0.33790325909E+02  0.81000532663E+02  0.00000000000E+00 0.  1.
</event>
<event>
12    1  0.8416569E-002  0.2802514E+03  0.7818608E-02  0.1095909E+00
         21   -1    0    0  501  502  0.00000000000E+00  0.00000000000E+00  0.43147928153E+03  0.43147928153E+03  0.00000000000E+00 0.  1.
         21   -1    0    0  502  503 -0.00000000000E+00 -0.00000000000E+00 -0.18039915112E+03  0.18039915112E+03  0.00000000000E+00 0.  1.
         -6    2    1    2    0  503 -0.17890265849E+03 -0.12386477326E+03  0.13169857393E+03  0.30965364312E+03  0.17661319615E+03 0.  0.
        -24    2    3    3    0    0 -0.12704995707E+02 -0.22977585250E+02  0.57508499469E+02  0.10150430979E+03  0.79413544529E+02 0.  0.
          6    2    1    2  501    0  0.17890265849E+03  0.12386477326E+03  0.11938155649E+03  0.30222478953E+03  0.17245064253E+03 0.  0.
         24    2    5    5    0    0  0.80319805098E+02 -0.48469984106E+01  0.68345089936E+02  0.13218917541E+03  0.79549747290E+02 0.  0.
          5    1    5    5  501    0  0.98582853387E+02  0.12871177167E+03  0.51036466556E+02  0.17003561412E+03  0.47000000000E+01 0. -1.
        -13    1    6    6    0    0  0.68520727061E+02  0.19111724127E+02  0.76305971953E+02  0.10432137553E+03  0.00000000000E+00 0.  1.
         14    1    6    6    0    0  0.11799078037E+02 -0.23958722537E+02 -0.79608820169E+01  0.27867799888E+02  0.00000000000E+00 0. -1.
         -5    1    3    3    0  503 -0.16619766278E+03 -0.10088718801E+03  0.74190074457E+02  0.20814933333E+03  0.47000000000E+01 0.  1.
         13    1    4    4    0    0  0.20603343787E+02  0.18566750957E+02  0.81732977910E+01  0.28914093676E+02  0.00000000000E+00 0. -1.
        -14    1    4    4    0    0 -0.33308339494E+02 -0.41544336207E+02  0.49335201678E+02  0.72590216113E+02  0.00000000000E+00 0.  1.
</event>
<event>
12    1  0.8416569E-002  0.1777934E+03  0.7818608E-02  0.1169995E+00
         21   -1    0    0  503  502  0.00000000000E+00  0.00000000000E+00  0.37890810838E+03  0.37890810838E+03  0.00000000000E+00 0. -1.
         21   -1    0    0  501  503 -0.00000000000E+00 -0.00000000000E+00 -0.87765715705E+02  0.87765715705E+02  0.00000000000E+00 0. -1.
          6    2    1    2  501    0 -0.77441400607E+01  0.43255547699E+02  0.93170460302E+02  0.20058476825E+03  0.17211188357E+03 0.  0.
         24    2    3    3    0    0  0.13533374412E+02 -0.21532971355E+02 -0.21711672157E+01  0.83271509144E+02  0.79262911817E+02 0.  0.
         -6    2    1    2    0  502  0.77441400607E+01 -0.43255547699E+02  0.19797193237E+03  0.26608905584E+03  0.17227735056E+03 0.  0.
        -24    2    5    5    0    0 -0.22378002590E+02 -0.25073369317E+02  0.20976740005E+03  0.22868373340E+03  0.84643008854E+02 0.  0.
          5    1    3    3  501    0 -0.21277514473E+02  0.64788519053E+02  0.95341627518E+02  0.11731325910E+03  0.47000000000E+01 0. -1.
        -13    1    4    4    0    0 -0.10574607892E+01  0.31407157259E+01  0.35656282298E+02  0.35809953726E+02  0.00000000000E+00 0.  1.
         14    1    4    4    0    0  0.14590835202E+02 -0.24673687081E+02 -0.37827449513E+02  0.47461555418E+02  0.00000000000E+00 0. -1.
         -5    1    5    5    0  502  0.30122142651E+02 -0.18182178382E+02 -0.11795467684E+02  0.37405322435E+02  0.47000000000E+01 0.  1.
         13    1    6    6    0    0 -0.63436419563E+01  0.21105545046E+02  0.14934993524E+03  0.15096717849E+03  0.00000000000E+00 0. -1.
        -14    1    6    6    0    0 -0.16034360634E+02 -0.46178914362E+02  0.60417464811E+02  0.77716554909E+02  0.00000000000E+00 0.  1.
</event>
<event>
12    1  0.8416569E-002  0.2137299E+03  0.7818608E-02  0.1139047E+00
         21   -1    0    0  501  502  0.00000000000E+00  0.00000000000E+00  0.49690066734E+02  0.49690066734E+02  0.00000000000E+00 0. -1.
         21   -1    0    0  502  503 -0.00000000000E+00 -0.00000000000E+00 -0.98617153810E+03  0.98617153810E+03  0.00000000000E+00 0.  1.
         -6    2    1    2    0  503  0.12128620959E+03  0.27435581773E+02 -0.32264413601E+03  0.38587948647E+03  0.17129122509E+03 0.  0.
        -24    2    3    3    0    0  0.14634150968E+03 -0.13753069285E+00 -0.29497605677E+03  0.33923554578E+03  0.81572207787E+02 0.  0.
          6    2    1    2  501    0 -0.12128620959E+03 -0.27435581773E+02 -0.61383733535E+03  0.64998211836E+03  0.17383159706E+03 0.  0.
         24    2    5    5    0    0 -0.11063162690E+03 -0.43969246657E+02 -0.26068040757E+03  0.29624664114E+03  0.75067609348E+02 0.  0.
          5    1    5    5  501    0 -0.10654582688E+02  0.16533664885E+02 -0.35315692778E+03  0.35373547723E+03  0.47000000000E+01 0. -1.
        -13    1    6    6    0    0 -0.16428828373E+02 -0.28877078604E+02 -0.13164201900E+03  0.13576970662E+03  0.00000000000E+00 0.  1.
         14    1    6    6    0    0 -0.94202798525E+02 -0.15092168053E+02 -0.12903838857E+03  0.16047693452E+03  0.00000000000E+00 0. -1.
         -5    1    3    3    0  503 -0.25055300097E+02  0.27573112465E+02 -0.27668079248E+02  0.46643940692E+02  0.47000000000E+01 0.  1.
         13    1    4    4    0    0  0.29779610824E+02 -0.32507147285E+02 -0.54961455285E+02  0.70457798805E+02  0.00000000000E+00 0. -1.
        -14    1    4    4    0    0  0.11656189886E+03  0.32369616592E+02 -0.24001460148E+03  0.26877774697E+03  0.00000000000E+00 0.  1.
</event>
<event>
12    1  0.8416569E-002  0.1852970E+03  0.7818608E-02  0.1163520E+00
         21   -1    0    0  503  502  0.00000000000E+00  0.00000000000E+00  0.17842977486E+04  0.17842977486E+04  0.00000000000E+00 0.  1.
         21   -1    0    0  501  503 -0.00000000000E+00 -0.00000000000E+00 -0.22767935211E+02  0.22767935211E+02  0.00000000000E+00 0.  1.
          6    2    1    2  501    0  0.24691888305E+02  0.63745820042E+02  0.51538153397E+03  0.54767975031E+03  0.17222591100E+03 0.  0.
         24    2    3    3    0    0 -0.46043514885E+02  0.41224177949E+02  0.20537647325E+03  0.22887581480E+03  0.79907476014E+02 0.  0.
         -6    2    1    2    0  502 -0.24691888305E+02 -0.63745820042E+02  0.12461482794E+04  0.12593859335E+04  0.16880218092E+03 0.  0.
        -24    2    5    5    0    0 -0.35325673443E+02 -0.89180375947E+02  0.11915998747E+04  0.11980865659E+04  0.79373264704E+02 0.  0.
          5    1    3    3  501    0  0.70735403190E+02  0.22521642093E+02  0.31000506072E+03  0.31880393551E+03  0.47000000000E+01 0. -1.
        -13    1    4    4    0    0 -0.45218650003E+01 -0.14750016575E+02  0.42288277626E+01  0.15996663286E+02  0.00000000000E+00 0.  1.
         14    1    4    4    0    0 -0.41521649885E+02  0.55974194524E+02  0.20114764549E+03  0.21287915151E+03  0.00000000000E+00 0. -1.
         -5    1    5    5    0  502  0.10633785138E+02  0.25434555905E+02  0.54548404660E+02  0.61299367626E+02  0.47000000000E+01 0.  1.
         13    1    6    6    0    0 -0.24206156294E+02 -0.51523779767E+02  0.28461437846E+03  0.29025158451E+03  0.00000000000E+00 0. -1.
        -14    1    6    6    0    0 -0.11119517149E+02 -0.37656596180E+02  0.90698549627E+03  0.90783498134E+03  0.00000000000E+00 0.  1.
</event>
<event>
12    1  0.8416569E-002  0.1928631E+03  0.7818608E-02  0.1156255E+00
         21   -1    0    0  503  502  0.00000000000E+00  0.00000000000E+00  0.15104311025E+03  0.15104311025E+03  0.00000000000E+00 0. -1.
         21   -1    0    0  501  503 -0.00000000000E+00 -0.00000000000E+00 -0.44465119502E+03  0.44465119502E+03  0.00000000000E+00 0. -1.
          6    2    1    2  501    0 -0.40099533214E+02 -0.76170890508E+02 -0.34642862540E+03  0.39572880596E+03  0.17081720711E+03 0.  0.
         24    2    3    3    0    0 -0.36008430223E+02  0.14823472352E+02 -0.93882614600E+02  0.12721756082E+03  0.76511568259E+02 0.  0.
         -6    2    1    2    0  502  0.40099533214E+02  0.76170890508E+02  0.52820540633E+02  0.19996549931E+03  0.17258683112E+03 0.  0.
        -24    2    5    5    0    0  0.88994308422E+02  0.25945452215E+02  0.40648301587E+02  0.12866650143E+03  0.79433184167E+02 0.  0.
          5    1    3    3  501    0 -0.40911029906E+01 -0.90994362859E+02 -0.25254601080E+03  0.26851124514E+03  0.47000000000E+01 0. -1.
        -11    1    4    4    0    0  0.22799927691E+02 -0.53815759378E+01 -0.21552717661E+02  0.31832651490E+02  0.00000000000E+00 0.  1.
         12    1    4    4    0    0 -0.58808357914E+02  0.20205048289E+02 -0.72329896939E+02  0.95384909331E+02  0.00000000000E+00 0. -1.
         -5    1    5    5    0  502 -0.48894775208E+02  0.50225438293E+02  0.12172239046E+02  0.71298997874E+02  0.47000000000E+01 0.  1.
         11    1    6    6    0    0  0.43866150551E+02 -0.34373560895E+01 -0.19331148196E+02  0.48059836367E+02  0.00000000000E+00 0. -1.
        -12    1    6    6    0    0  0.45128157871E+02  0.29382808305E+02  0.59979449783E+02  0.80606665065E+02  0.00000000000E+00 0.  1.
</event>
<event>
12    1  0.8416569E-002  0.2489248E+03  0.7818608E-02  0.1115165E+00
         21   -1    0    0  503  502  0.00000000000E+00  0.00000000000E+00  0.15262166050E+03  0.15262166050E+03  0.00000000000E+00 0.  1.
         21   -1    0    0  501  503 -0.00000000000E+00 -0.00000000000E+00 -0.41568274259E+03  0.41568274259E+03  0.00000000000E+00 0.  1.
          6    2    1    2  501    0  0.16781008184E+03 -0.19220350606E+02 -0.19802542385E+03  0.31808433759E+03  0.18284947876E+03 0.  0.
         24    2    3    3    0    0  0.76416840061E+02 -0.81405901715E+01 -0.19705904530E+03  0.22589697608E+03  0.79318180862E+02 0.  0.
         -6    2    1    2    0  502 -0.16781008184E+03  0.19220350606E+02 -0.65035658240E+02  0.25022006551E+03  0.17277383741E+03 0.  0.
        -24    2    5    5    0    0 -0.43189928868E+02 -0.42145447085E+02 -0.14853884001E+02  0.10244914780E+03  0.81446800735E+02 0.  0.
          5    1    3    3  501    0  0.91393241782E+02 -0.11079760434E+02 -0.96637855374E+00  0.92187361510E+02  0.47000000000E+01 0. -1.
        -13    1    4    4    0    0  0.79382554197E+02 -0.26397401269E+02 -0.11763825649E+03  0.14435086454E+03  0.00000000000E+00 0.  1.
         14    1    4    4    0    0 -0.29657141362E+01  0.18256811097E+02 -0.79420788809E+02  0.81546111537E+02  0.00000000000E+00 0. -1.
         -5    1    5    5    0  502 -0.12462015297E+03  0.61365797691E+02 -0.50181774239E+02  0.14777091771E+03  0.47000000000E+01 0.  1.
         13    1    6    6    0    0 -0.11835015862E+02  0.23915871767E+02 -0.12028598620E+02  0.29269842972E+02  0.00000000000E+00 0. -1.
        -14    1    6    6    0    0 -0.31354913006E+02 -0.66061318852E+02 -0.28252853804E+01  0.73179304831E+02  0.00000000000E+00 0.  1.
</event>
<event>
12    1  0.8416569E-002  0.1827388E+03  0.7818608E-02  0.1165846E+00
         21   -1    0    0  501  502  0.00000000000E+00  0.00000000000E+00  0.55246804279E+03  0.55246804279E+03  0.00000000000E+00 0. -1.
         21   -1    0    0  502  503 -0.00000000000E+00 -0.00000000000E+00 -0.65202321599E+02  0.65202321599E+02  0.00000000000E+00 0. -1.
         -6    2    1    2    0  503 -0.84469974122E+01 -0.54859033833E+02  0.33647131012E+03  0.38289214459E+03  0.17410510188E+03 0.  0.
        -24    2    3    3    0    0 -0.63539052071E+02 -0.21006825876E+02  0.27250374542E+03  0.29181500254E+03  0.80119951149E+02 0.  0.
          6    2    1    2  501    0  0.84469974122E+01  0.54859033833E+02  0.15079441107E+03  0.23477821979E+03  0.17117532743E+03 0.  0.
         24    2    5    5    0    0  0.26644757691E+02  0.40708152417E+02  0.38304549564E+02  0.11985448479E+03  0.10261950215E+03 0.  0.
          5    1    5    5  501    0 -0.18197760279E+02  0.14150881416E+02  0.11248986151E+03  0.11492373500E+03  0.47000000000E+01 0.  1.
        -11    1    6    6    0    0 -0.23453855452E+02 -0.17349707738E+02  0.31397525480E+02  0.42859074890E+02  0.00000000000E+00 0.  1.
         12    1    6    6    0    0  0.50098613143E+02  0.58057860155E+02  0.69070240842E+01  0.76995409904E+02  0.00000000000E+00 0. -1.
         -5    1    3    3    0  503  0.55092054659E+02 -0.33852207957E+02  0.63967564699E+02  0.91077142048E+02  0.47000000000E+01 0.  1.
         13    1    4    4    0    0 -0.15681581152E+02 -0.46754693328E+02  0.11248766553E+03  0.12282258844E+03  0.00000000000E+00 0. -1.
        -14    1    4    4    0    0 -0.47857470920E+02  0.25747867452E+02  0.16001607989E+03  0.16899241411E+03  0.00000000000E+00 0.  1.
</event>
<event>
12    1  0.8416569E-002  0.2210546E+03  0.7818608E-02  0.1133152E+00
         21   -1    0    0  503  502  0.00000000000E+00  0.00000000000E+00  0.38449030942E+02  0.38449030942E+02  0.00000000000E+00 0. -1.
         21   -1    0    0  501  503 -0.00000000000E+00 -0.00000000000E+00 -0.13884522531E+04  0.13884522531E+04  0.00000000000E+00 0.  1.
          6    2    1    2  501    0  0.20186826372E+02  0.13573508256E+03 -0.88362598475E+03  0.91078806908E+03  0.17294075649E+03 0.  0.
         24    2    3    3    0    0 -0.35000339690E+02  0.68947835960E+02 -0.68123063551E+03  0.69057878908E+03  0.82734861461E+02 0.  0.
         -6    2    1    2    0  502 -0.20186826372E+02 -0.13573508256E+03 -0.46637723738E+03  0.51611321494E+03  0.17330205563E+03 0.  0.
        -24    2    5    5    0    0 -0.73602139526E+02 -0.68873850386E+02 -0.23298310678E+03  0.26747989004E+03  0.84282153054E+02 0.  0.
          5    1    3    3  501    0  0.55187166062E+02  0.66787246600E+02 -0.20239534924E+03  0.22020928000E+03  0.47000000000E+01 0. -1.
        -13    1    4    4    0    0 -0.30570503203E+02  0.23898664078E+02 -0.95226465803E+02  0.10282889477E+03  0.00000000000E+00 0.  1.
         14    1    4    4    0    0 -0.44298364863E+01  0.45049171882E+02 -0.58600416971E+03  0.58774989430E+03  0.00000000000E+00 0. -1.
         -5    1    5    5    0  502  0.53415313154E+02 -0.66861232173E+02 -0.23339413060E+03  0.24863332489E+03  0.47000000000E+01 0.  1.
         11    1    6    6    0    0 -0.59199065819E+02 -0.88849572178E+02 -0.18872239409E+03  0.21682923673E+03  0.00000000000E+00 0. -1.
        -12    1    6    6    0    0 -0.14403073706E+02  0.19975721791E+02 -0.44260712686E+02  0.50650653311E+02  0.00000000000E+00 0.  1.
</event>
<event>
12    1  0.8416569E-002  0.2045441E+03  0.7818608E-02  0.1148779E+00
         21   -1    0    0  503  502  0.00000000000E+00  0.00000000000E+00  0.51812460297E+03  0.51812460297E+03  0.00000000000E+00 0. -1.
         21   -1    0    0  501  503 -0.00000000000E+00 -0.00000000000E+00 -0.75594413203E+02  0.75594413203E+02  0.00000000000E+00 0.  1.
          6    2    1    2  501    0  0.30191287571E+02 -0.10106447213E+03  0.21361107860E+03  0.28673004258E+03  0.15955840012E+03 0.  0.
         24    2    3    3    0    0 -0.42445663329E+01  0.14613246560E+01  0.81540566655E+02  0.11596096703E+03  0.82328185034E+02 0.  0.
         -6    2    1    2    0  502 -0.30191287571E+02  0.10106447213E+03  0.22891911117E+03  0.30698897359E+03  0.17525047525E+03 0.  0.
        -24    2    5    5    0    0 -0.16797094943E+02 -0.19006205835E+02  0.80121768840E+02  0.11526231611E+03  0.78882985583E+02 0.  0.
          5    1    3    3  501    0  0.34435853904E+02 -0.10252579679E+03  0.13207051194E+03  0.17076907555E+03  0.47000000000E+01 0. -1.
        -11    1    4    4    0    0  0.37548683006E+02  0.62470976429E+00  0.54464539886E+02  0.66156480882E+02  0.00000000000E+00 0.  1.
         12    1    4    4    0    0 -0.41793249339E+02  0.83661489174E+00  0.27076026769E+02  0.49804486147E+02  0.00000000000E+00 0. -1.
         -5    1    5    5    0  502 -0.13394192628E+02  0.12007067797E+03  0.14879734233E+03  0.19172665748E+03  0.47000000000E+01 0.  1.
         13    1    6    6    0    0 -0.24529181668E+02  0.22966409514E+02  0.58391321297E+02  0.67369749310E+02  0.00000000000E+00 0. -1.
        -14    1    6    6    0    0  0.77320867249E+01 -0.41972615349E+02  0.21730447543E+02  0.47892566801E+02  0.00000000000E+00 0.  1.
</event>
<event>
12    1  0.8416569E-002  0.1780671E+03  0.7818608E-02  0.1171827E+00
         21   -1    0    0  503  502  0.00000000000E+00  0.00000000000E+00  0.25758726485E+02  0.25758726485E+02  0.00000000000E+00 0. -1.
         21   -1    0    0  501  503 -0.00000000000E+00 -0.00000000000E+00 -0.24367646495E+04  0.24367646495E+04  0.00000000000E+00 0. -1.
          6    2    1    2  501    0 -0.23958888306E+02  0.37188651683E+02 -0.20779205191E+04  0.20848280343E+04  0.16369857868E+03 0.  0.
         24    2    3    3    0    0  0.26123037923E+02 -0.19613972007E+02 -0.79466860033E+03  0.79933501040E+03  0.79819505763E+02 0.  0.
         -6    2    1    2    0  502  0.23958888306E+02 -0.37188651683E+02 -0.33308540396E+03  0.37769534175E+03  0.17248437816E+03 0.  0.
        -24    2    5    5    0    0  0.58652842249E+02 -0.75898762582E+02 -0.25485614068E+03  0.28365252832E+03  0.79412381352E+02 0.  0.
          5    1    3    3  501    0 -0.50081926229E+02  0.56802623690E+02 -0.12832519188E+04  0.12854930239E+04  0.47000000000E+01 0. -1.
        -11    1    4    4    0    0  0.47943566744E+02  0.10280160319E+02 -0.42556459652E+03  0.42838008018E+03  0.00000000000E+00 0.  1.
         12    1    4    4    0    0 -0.21820528821E+02 -0.29894132327E+02 -0.36910400381E+03  0.37095493022E+03  0.00000000000E+00 0. -1.
         -5    1    5    5    0  502 -0.34693953942E+02  0.38710110899E+02 -0.78229263275E+02  0.94042813434E+02  0.47000000000E+01 0.  1.
         13    1    6    6    0    0  0.39137048317E+01 -0.60115218965E+01  0.52015016925E+01  0.88606490100E+01  0.00000000000E+00 0. -1.
        -14    1    6    6    0    0  0.54739137417E+02 -0.69887240686E+02 -0.26005764237E+03  0.27479187931E+03  0.00000000000E+00 0.  1.
</event>
<event>
12    1  0.8416569E-002  0.2658149E+03  0.7818608E-02  0.1103873E+00
         21   -1    0    0  501  502  0.00000000000E+00  0.00000000000E+00  0.53969674618E+03  0.53969674618E+03  0.00000000000E+00 0.  1.
         21   -1    0    0  502  503 -0.00000000000E+00 -0.00000000000E+00 -0.13638508084E+03  0.13638508084E+03  0.00000000000E+00 0. -1.
         -6    2    1    2    0  503 -0.18142391390E+03 -0.87561313017E+02  0.13090084253E+03  0.29629818692E+03  0.17342423396E+03 0.  0.
        -24    2    3    3    0    0 -0.88708622593E+02 -0.69153432895E+02  0.19053133576E+01  0.13630783771E+03  0.76972588623E+02 0.  0.
          6    2    1    2  501    0  0.18142391390E+03  0.87561313017E+02  0.27241082282E+03  0.37978364010E+03  0.17159934973E+03 0.  0.
         24    2    5    5    0    0  0.16484305740E+03  0.95011504684E+01  0.17113135183E+03  0.25075676296E+03  0.79558212408E+02 0.  0.
          5    1    5    5  501    0  0.16580856507E+02  0.78060162549E+02  0.10127947099E+03  0.12902687714E+03  0.47000000000E+01 0. -1.
        -11    1    6    6    0    0  0.99364345372E+02 -0.20324431238E+02  0.58438718544E+02  0.11705314802E+03  0.00000000000E+00 0.  1.
         12    1    6    6    0    0  0.65478712025E+02  0.29825581706E+02  0.11269263328E+03  0.13370361494E+03  0.00000000000E+00 0. -1.
         -5    1    3    3    0  503 -0.92715291311E+02 -0.18407880122E+02  0.12899552917E+03  0.15999034921E+03  0.47000000000E+01 0.  1.
         11    1    4    4    0    0 -0.85247852340E+02 -0.20714451668E+02  0.75223220110E+00  0.87731697178E+02  0.00000000000E+00 0. -1.
        -12    1    4    4    0    0 -0.34607702531E+01 -0.48438981227E+02  0.11530811565E+01  0.48576140534E+02  0.00000000000E+00 0.  1.
</event>
<event>
12    1  0.8416569E-002  0.1793171E+03  0.7818608E-02  0.1168703E+00
         21   -1    0    0  503  502  0.00000000000E+00  0.00000000000E+00  0.57408226560E+02  0.57408226560E+02  0.00000000000E+00 0. -1.
         21   -1    0    0  501  503 -0.00000000000E+00 -0.00000000000E+00 -0.57468739492E+03  0.57468739492E+03  0.00000000000E+00 0. -1.
          6    2    1    2  501    0 -0.33319198687E+02 -0.34009289846E+02 -0.31329734796E+03  0.36050178264E+03  0.17187060903E+03 0.  0.
         24    2    3    3    0    0 -0.31826247883E+02 -0.87986975987E+02 -0.23648899868E+03  0.26649416581E+03  0.79608265365E+02 0.  0.
         -6    2    1    2    0  502  0.33319198687E+02  0.34009289846E+02 -0.20398182040E+03  0.27159383884E+03  0.17288096901E+03 0.  0.
        -24    2    5    5    0    0 -0.36652420383E+01 -0.43760802235E+02 -0.83853644257E+02  0.12371245130E+03  0.79654850072E+02 0.  0.
          5    1    3    3  501    0 -0.14929508040E+01  0.53977686141E+02 -0.76808349277E+02  0.94007616829E+02  0.47000000000E+01 0. -1.
        -13    1    4    4    0    0 -0.12322282419E+02 -0.96430876636E+02 -0.16103224584E+03  0.18810140035E+03  0.00000000000E+00 0.  1.
         14    1    4    4    0    0 -0.19503965464E+02  0.84439006489E+01 -0.75456752837E+02  0.78392765455E+02  0.00000000000E+00 0. -1.
         -5    1    5    5    0  502  0.36984440725E+02  0.77770092081E+02 -0.12012817614E+03  0.14788138754E+03  0.47000000000E+01 0.  1.
         11    1    6    6    0    0 -0.46788165653E+01 -0.37571356639E+02 -0.99712345175E+02  0.10665856714E+03  0.00000000000E+00 0. -1.
        -12    1    6    6    0    0  0.10135745270E+01 -0.61894455963E+01  0.15858700918E+02  0.17053884159E+02  0.00000000000E+00 0.  1.
</event>
<event>
12    1  0.8416569E-002  0.4186889E+03  0.7818608E-02  0.1037500E+00
         21   -1    0    0  503  502  0.00000000000E+00  0.00000000000E+00  0.26216713419E+03  0.26216713419E+03  0.00000000000E+00 0. -1.
         21   -1    0    0  501  503 -0.00000000000E+00 -0.00000000000E+00 -0.81566176633E+03  0.81566176633E+03  0.00000000000E+00 0.  1.
          6    2    1    2  501    0  0.38147918961E+03 -0.16935140215E+02 -0.50559990508E+03  0.65640947393E+03  0.17154871720E+03 0.  0.
         24    2    3    3    0    0  0.29079532779E+03  0.59377068892E+01 -0.46569390766E+03  0.55461896082E+03  0.78321114950E+02 0.  0.
         -6    2    1    2    0  502 -0.38147918961E+03  0.16935140215E+02 -0.47894727056E+02  0.42141942659E+03  0.17171854050E+03 0.  0.
        -24    2    5    5    0    0 -0.98475955937E+02  0.10926753927E+02 -0.55048804389E+02  0.13822302514E+03  0.79109582004E+02 0.  0.
          5    1    3    3  501    0  0.90683861817E+02 -0.22872847104E+02 -0.39905997423E+02  0.10179051311E+03  0.47000000000E+01 0. -1.
        -13    1    4    4    0    0  0.19316527995E+03 -0.28564817012E+02 -0.26988178807E+03  0.33311402504E+03  0.00000000000E+00 0.  1.
         14    1    4    4    0    0  0.97630047840E+02  0.34502523901E+02 -0.19581211959E+03  0.22150493578E+03  0.00000000000E+00 0. -1.
         -5    1    5    5    0  502 -0.28300323367E+03  0.60083862877E+01  0.71540773334E+01  0.28319640145E+03  0.47000000000E+01 0.  1.
         13    1    6    6    0    0 -0.90748464252E+02 -0.98830999047E+01 -0.15106278665E+02  0.92526531778E+02  0.00000000000E+00 0. -1.
        -14    1    6    6    0    0 -0.77274916846E+01  0.20809853832E+02 -0.39942525724E+02  0.45696493360E+02  0.00000000000E+00 0.  1.
</event>
<event>
12    1  0.8416569E-002  0.2238815E+03  0.7818608E-02  0.1131501E+00
         21   -1    0    0  503  502  0.00000000000E+00  0.00000000000E+00  0.57029628384E+02  0.57029628384E+02  0.00000000000E+00 0.  1.
         21   -1    0    0  501  503 -0.00000000000E+00 -0.00000000000E+00 -0.97986807045E+03  0.97986807045E+03  0.00000000000E+00 0. -1.
          6    2    1    2  501    0  0.13878353912E+03  0.20727760016E+02 -0.63366725165E+03  0.67118890117E+03  0.17108431979E+03 0.  0.
         24    2    3    3    0    0  0.14285610401E+03  0.35227044201E+02 -0.36799444377E+03  0.40504806275E+03  0.83637380395E+02 0.  0.
         -6    2    1    2    0  502 -0.13878353912E+03 -0.20727760016E+02 -0.28917119041E+03  0.36570879766E+03  0.17444895114E+03 0.  0.
        -24    2    5    5    0    0 -0.12385966807E+03  0.46294310814E+02 -0.18111152528E+03  0.23759298625E+03  0.78515361138E+02 0.  0.
          5    1    3    3  501    0 -0.40725648949E+01 -0.14499284185E+02 -0.26567280788E+03  0.26614083842E+03  0.47000000000E+01 0. -1.
        -11    1    4    4    0    0  0.21698738183E+02 -0.70385405956E+01 -0.15285356806E+03  0.15454639938E+03  0.00000000000E+00 0.  1.
         12    1    4    4    0    0  0.12115736583E+03  0.42265584796E+02 -0.21514087571E+03  0.25050166338E+03  0.00000000000E+00 0. -1.
         -5    1    5    5    0  502 -0.14923871043E+02 -0.67022070829E+02 -0.10805966513E+03  0.12811581141E+03  0.47000000000E+01 0.  1.
         11    1    6    6    0    0 -0.15198267334E+01  0.26012000605E+02 -0.14257673963E+02  0.29702109615E+02  0.00000000000E+00 0. -1.
        -12    1    6    6    0    0 -0.12233984134E+03  0.20282310209E+02 -0.16685385132E+03  0.20789087663E+03  0.00000000000E+00 0.  1.
</event>
<event>
12    1  0.8416569E-002  0.1858755E+03  0.7818608E-02  0.1163347E+00
         21   -1    0    0  503  502  0.00000000000E+00  0.00000000000E+00  0.52802823971E+03  0.52802823971E+03  0.00000000000E+00 0.  1.
         21   -1    0    0  501  503 -0.00000000000E+00 -0.00000000000E+00 -0.69555998054E+02  0.69555998054E+02  0.00000000000E+00 0.  1.
          6    2    1    2  501    0  0.12790359283E+02  0.68557526255E+02  0.14583465852E+03  0.23625714231E+03  0.17229614613E+03 0.  0.
         24    2    3    3    0    0  0.50035406431E+02 -0.22061419617E+01  0.37610465456E+02  0.10161221578E+03  0.80013038467E+02 0.  0.
         -6    2    1    2    0  502 -0.12790359283E+02 -0.68557526255E+02  0.31263758314E+03  0.36132709546E+03  0.16718637451E+03 0.  0.
        -24    2    5    5    0    0  0.30633418502E+02 -0.39900092848E+02  0.28866300584E+03  0.30384889678E+03  0.80420130524E+02 0.  0.
          5    1    3    3  501    0 -0.37245047148E+02  0.70763668217E+02  0.10822419306E+03  0.13464492653E+03  0.47000000000E+01 0. -1.
        -13    1    4    4    0    0  0.19673892480E+02  0.17053247876E+02 -0.20595216417E+02  0.33196961423E+02  0.00000000000E+00 0.  1.
         14    1    4    4    0    0  0.30361513951E+02 -0.19259389838E+02  0.58205681874E+02  0.68415254357E+02  0.00000000000E+00 0. -1.
         -5    1    5    5    0  502 -0.43423777785E+02 -0.28657433408E+02  0.23974577299E+02  0.57478198678E+02  0.47000000000E+01 0.  1.
         11    1    6    6    0    0  0.83128013588E+01 -0.39604341844E+02  0.50834162288E+02  0.64974753673E+02  0.00000000000E+00 0. -1.
        -12    1    6    6    0    0  0.22320617143E+02 -0.29575100397E+00  0.23782884355E+03  0.23887414311E+03  0.00000000000E+00 0.  1.
</event>
<event>
12    1  0.8416569E-002  0.1924536E+03  0.7818608E-02  0.1157421E+00
         21   -1    0    0  501  502  0.00000000000E+00  0.00000000000E+00  0.97727596927E+02  0.97727596927E+02  0.00000000000E+00 0.  1.
         21   -1    0    0  502  503 -0.00000000000E+00 -0.00000000000E+00 -0.37077251026E+03  0.37077251026E+03  0.00000000000E+00 0.  1.
         -6    2    1    2    0  503 -0.50708740294E+02  0.64795388127E+02 -0.12199877999E+03  0.22786418694E+03  0.17397863865E+03 0.  0.
        -24    2    3    3    0    0  0.22951597034E+02 -0.29133491870E+01 -0.90466730945E+02  0.12285619429E+03  0.79838284414E+02 0.  0.
          6    2    1    2  501    0  0.50708740294E+02 -0.64795388127E+02 -0.15104613334E+03  0.24063592024E+03  0.16828812510E+03 0.  0.
         24    2    5    5    0    0  0.42793696726E+02 -0.37931070320E+02 -0.17661447368E+03  0.20242375578E+03  0.80700917070E+02 0.  0.
          5    1    5    5  501    0  0.79150435677E+01 -0.26864317807E+02  0.25568340333E+02  0.38212164467E+02  0.47000000000E+01 0. -1.
        -11    1    6    6    0    0  0.57270223224E+02 -0.48768498232E+02 -0.10902122403E+03  0.13245328300E+03  0.00000000000E+00 0.  1.
         12    1    6    6    0    0 -0.14476526498E+02  0.10837427912E+02 -0.67593249646E+02  0.69970472779E+02  0.00000000000E+00 0. -1.
         -5    1    3    3    0  503 -0.73660337328E+02  0.67708737314E+02 -0.31532049046E+02  0.10500799265E+03  0.47000000000E+01 0.  1.
         13    1    4    4    0    0  0.13845979276E+02  0.36772009276E+02 -0.27833874222E+02  0.48152013068E+02  0.00000000000E+00 0. -1.
        -14    1    4    4    0    0  0.91056177582E+01 -0.39685358463E+02 -0.62632856723E+02  0.74704181224E+02  0.00000000000E+00 0.  1.
</event>
<event>
12    1  0.8416569E-002  0.2409122E+03  0.7818608E-02  0.1119269E+00
         21   -1    0    0  503  502  0.00000000000E+00  0.00000000000E+00  0.22506780448E+03  0.22506780448E+03  0.00000000000E+00 0.  1.
         21   -1    0    0  501  503 -0.00000000000E+00 -0.00000000000E+00 -0.27807175308E+03  0.27807175308E+03  0.00000000000E+00 0. -1.
          6    2    1    2  501    0 -0.43152941805E+02 -0.16239607456E+03 -0.95214791689E+02  0.25904543048E+03  0.17263839978E+03 0.  0.
         24    2    3    3    0    0  0.96945673731E+01 -0.12124993471E+03 -0.11961538510E+03  0.18760774428E+03  0.78059554560E+02 0.  0.
         -6    2    1    2    0  502  0.43152941805E+02  0.16239607456E+03  0.42210843084E+02  0.24409412707E+03  0.17194628865E+03 0.  0.
        -24    2    5    5    0    0  0.94315050982E+02  0.10039952455E+03  0.37838641756E+02  0.16345704024E+03  0.79442103592E+02 0.  0.
          5    1    3    3  501    0 -0.52847509178E+02 -0.41146139846E+02  0.24400593412E+02  0.71437686198E+02  0.47000000000E+01 0. -1.
        -13    1    4    4    0    0  0.16400656388E+02 -0.59748504997E+01 -0.49569907094E+02  0.52553363906E+02  0.00000000000E+00 0.  1.
         14    1    4    4    0    0 -0.67060890152E+01 -0.11527508421E+03 -0.70045478006E+02  0.13505438038E+03  0.00000000000E+00 0. -1.
         -5    1    5    5    0  502 -0.51162109177E+02  0.61996550007E+02  0.43722013281E+01  0.80637086831E+02  0.47000000000E+01 0.  1.
         13    1    6    6    0    0  0.97656619583E+02  0.52257934874E+02  0.26334295820E+02  0.11384727595E+03  0.00000000000E+00 0. -1.
        -14    1    6    6    0    0 -0.33415686013E+01  0.48141589678E+02  0.11504345936E+02  0.49609764289E+02  0.00000000000E+00 0.  1.
</event>
<event>
12    1  0.8416569E-002  0.2406723E+03  0.7818608E-02  0.1119361E+00
         21   -1    0    0  501  502  0.00000000000E+00  0.00000000000E+00  0.61545833031E+03  0.61545833031E+03  0.00000000000E+00 0.  1.
         21   -1    0    0  502  503 -0.00000000000E+00 -0.00000000000E+00 -0.99997280398E+02  0.99997280398E+02  0.00000000000E+00 0. -1.
         -6    2    1    2    0  503  0.61917595124E+01 -0.16736208381E+03  0.34480494156E+03  0.42049210447E+03  0.17284315787E+03 0.  0.
        -24    2    3    3    0    0 -0.52657881593E+02 -0.91441352546E+02  0.13308605669E+03  0.18795347564E+03  0.80499919680E+02 0.  0.
          6    2    1    2  501    0 -0.61917595124E+01  0.16736208381E+03  0.17065610836E+03  0.29496350624E+03  0.17271814528E+03 0.  0.
         24    2    5    5    0    0 -0.19965220752E+02  0.15332279083E+03  0.19676214994E+03  0.26194191650E+03  0.77406302979E+02 0.  0.
          5    1    5    5  501    0  0.13773461240E+02  0.14039292972E+02 -0.26106041582E+02  0.33021589737E+02  0.47000000000E+01 0. -1.
        -13    1    6    6    0    0  0.77115522764E+00  0.98622804140E+01  0.65961550420E+02  0.66699215806E+02  0.00000000000E+00 0.  1.
         14    1    6    6    0    0 -0.20736375980E+02  0.14346051042E+03  0.13080059952E+03  0.19524270069E+03  0.00000000000E+00 0. -1.
         -5    1    3    3    0  503  0.58849641106E+02 -0.75920731261E+02  0.21171888486E+03  0.23253862884E+03  0.47000000000E+01 0.  1.
         13    1    4    4    0    0 -0.47004019544E+02 -0.63716731653E+01  0.45707478984E+02  0.65872222578E+02  0.00000000000E+00 0. -1.
        -14    1    4    4    0    0 -0.56538620490E+01 -0.85069679380E+02  0.87378577707E+02  0.12208125306E+03  0.00000000000E+00 0.  1.
</event>
<event>
12    1  0.8416569E-002  0.1876510E+03  0.7818608E-02  0.1160776E+00
         21   -1    0    0  503  502  0.00000000000E+00  0.00000000000E+00  0.28138054415E+02  0.28138054415E+02  0.00000000000E+00 0. -1.
         21   -1    0    0  501  503 -0.00000000000E+00 -0.00000000000E+00 -0.13495487284E+04  0.13495487284E+04  0.00000000000E+00 0.  1.
          6    2    1    2  501    0 -0.17862300421E+02 -0.73508951945E+02 -0.46886758300E+03  0.50473625520E+03  0.17087787784E+03 0.  0.
         24    2    3    3    0    0 -0.87660018221E+01  0.22399442051E+02 -0.14052990908E+03  0.16252450672E+03  0.78019113972E+02 0.  0.
         -6    2    1    2    0  502  0.17862300421E+02  0.73508951945E+02 -0.85254309097E+03  0.87295052760E+03  0.17172732421E+03 0.  0.
        -24    2    5    5    0    0  0.38556888016E+02  0.78957658578E+02 -0.83610381213E+03  0.84555902803E+03  0.90440808080E+02 0.  0.
          5    1    3    3  501    0 -0.90962985991E+01 -0.95908393996E+02 -0.32833767391E+03  0.34221174848E+03  0.47000000000E+01 0. -1.
        -11    1    4    4    0    0 -0.11472440317E+02 -0.23922372842E+02 -0.90414347678E+02  0.94226594310E+02  0.00000000000E+00 0.  1.
         12    1    4    4    0    0  0.27064384954E+01  0.46321814894E+02 -0.50115561403E+02  0.68297912407E+02  0.00000000000E+00 0. -1.
         -5    1    5    5    0  502 -0.20694587595E+02 -0.54487066334E+01 -0.16439278840E+02  0.27391499566E+02  0.47000000000E+01 0.  1.
         11    1    6    6    0    0  0.49117493569E+02  0.22304193605E+02 -0.60414170386E+03  0.60654530216E+03  0.00000000000E+00 0. -1.
        -12    1    6    6    0    0 -0.10560605553E+02  0.56653464973E+02 -0.23196210827E+03  0.23901372587E+03  0.00000000000E+00 0.  1.
</event>
<event>
12    1  0.8416569E-002  0.1966076E+03  0.7818608E-02  0.1153369E+00
         21   -1    0    0  503  502  0.00000000000E+00  0.00000000000E+00  0.99144816571E+03  0.99144816571E+03  0.00000000000E+00 0. -1.
         21   -1    0    0  501  503 -0.00000000000E+00 -0.00000000000E+00 -0.47558484845E+02  0.47558484845E+02  0.00000000000E+00 0. -1.
          6    2    1    2  501    0  0.64974395260E+02 -0.59151036559E+02  0.24628437564E+03  0.31513574530E+03  0.17588071844E+03 0.  0.
         24    2    3    3    0    0  0.44938106360E+02 -0.23532857046E+02  0.25639440702E+03  0.27277526467E+03  0.78070636621E+02 0.  0.
         -6    2    1    2    0  502 -0.64974395260E+02  0.59151036559E+02  0.69760530522E+03  0.72387090525E+03  0.17209127933E+03 0.  0.
        -24    2    5    5    0    0 -0.48096166003E+02  0.55395721169E+02  0.21126488318E+03  0.23720051049E+03  0.79052540784E+02 0.  0.
          5    1    3    3  501    0  0.20036288900E+02 -0.35618179513E+02 -0.10110031384E+02  0.42360480631E+02  0.47000000000E+01 0. -1.
        -11    1    4    4    0    0  0.78240009200E+01  0.28269615371E+02  0.76900950774E+02  0.82305178291E+02  0.00000000000E+00 0.  1.
         12    1    4    4    0    0  0.37114105440E+02 -0.51802472418E+02  0.17949345625E+03  0.19047008638E+03  0.00000000000E+00 0. -1.
         -5    1    5    5    0  502 -0.16878229256E+02  0.37553153901E+01  0.48634042205E+03  0.48667039476E+03  0.47000000000E+01 0.  1.
         13    1    6    6    0    0 -0.57591844880E+02  0.73261182532E+01  0.12875021702E+03  0.14123424155E+03  0.00000000000E+00 0. -1.
        -14    1    6    6    0    0  0.94956788769E+01  0.48069602916E+02  0.82514666159E+02  0.95966268934E+02  0.00000000000E+00 0.  1.
</event>
<event>
12    1  0.8416569E-002  0.1885933E+03  0.7818608E-02  0.1159854E+00
         21   -1    0    0  503  502  0.00000000000E+00  0.00000000000E+00  0.33625734769E+03  0.33625734769E+03  0.00000000000E+00 0.  1.
         21   -1    0    0  501  503 -0.00000000000E+00 -0.00000000000E+00 -0.15507394392E+03  0.15507394392E+03  0.00000000000E+00 0.  1.
          6    2    1    2  501    0  0.79167480429E+02  0.18089877244E+02 -0.48414352115E+02  0.19420747093E+03  0.16964038039E+03 0.  0.
         24    2    3    3    0    0  0.41472546439E+02 -0.28645644673E+02 -0.81395536004E+02  0.12554186420E+03  0.81209490319E+02 0.  0.
         -6    2    1    2    0  502 -0.79167480429E+02 -0.18089877244E+02  0.22959775588E+03  0.29712382068E+03  0.17021369421E+03 0.  0.
        -24    2    5    5    0    0 -0.48373214691E+02  0.55322119221E+02  0.14782753165E+03  0.18290443705E+03  0.78743566109E+02 0.  0.
          5    1    3    3  501    0  0.37694933990E+02  0.46735521917E+02  0.32981183889E+02  0.68665606733E+02  0.47000000000E+01 0. -1.
        -11    1    4    4    0    0  0.54511856837E+02 -0.77354752553E+01 -0.84343630280E+02  0.10072352298E+03  0.00000000000E+00 0.  1.
         12    1    4    4    0    0 -0.13039310399E+02 -0.20910169418E+02  0.29480942760E+01  0.24818341214E+02  0.00000000000E+00 0. -1.
         -5    1    5    5    0  502 -0.30794265738E+02 -0.73411996464E+02  0.81770224226E+02  0.11421938363E+03  0.47000000000E+01 0.  1.
         11    1    6    6    0    0 -0.36103716939E+02  0.61116908700E+02  0.15277578651E+03  0.16846125920E+03  0.00000000000E+00 0. -1.
        -12    1    6    6    0    0 -0.12269497752E+02 -0.57947894793E+01 -0.49482548638E+01  0.14443177849E+02  0.00000000000E+00 0.  1.
</event>
<event>
12    1  0.8416569E-002  0.1779594E+03  0.7818608E-02  0.1169836E+00
         21   -1    0    0  503  502  0.00000000000E+00  0.00000000000E+00  0.40330519507E+02  0.40330519507E+02  0.00000000000E+00 0. -1.
         21   -1    0    0  501  503 -0.00000000000E+00 -0.00000000000E+00 -0.80877383033E+03  0.80877383033E+03  0.00000000000E+00 0. -1.
          6    2    1    2  501    0 -0.18747907914E+02  0.38310100888E+02 -0.31045771014E+03  0.35775890899E+03  0.17259287150E+03 0.  0.
         24    2    3    3    0    0 -0.46583050054E+02 -0.34916367993E+02 -0.15957486113E+03  0.18768646852E+03  0.79830701197E+02 0.  0.
         -6    2    1    2    0  502  0.18747907914E+02 -0.38310100888E+02 -0.45798560069E+03  0.49134544085E+03  0.17277263651E+03 0.  0.
        -24    2    5    5    0    0 -0.23443050810E+02 -0.61989079834E+02 -0.41144929125E+03  0.42405139105E+03  0.78337987824E+02 0.  0.
          5    1    3    3  501    0  0.27835142140E+02  0.73226468881E+02 -0.15088284900E+03  0.17007244046E+03  0.47000000000E+01 0. -1.
        -13    1    4    4    0    0 -0.58258672088E+02 -0.78903987308E+00 -0.69705935894E+02  0.90849397116E+02  0.00000000000E+00 0.  1.
         14    1    4    4    0    0  0.11675622034E+02 -0.34127328120E+02 -0.89868925240E+02  0.96837071405E+02  0.00000000000E+00 0. -1.
         -5    1    5    5    0  502  0.42190958724E+02  0.23678978946E+02 -0.46536309440E+02  0.67294049798E+02  0.47000000000E+01 0.  1.
         11    1    6    6    0    0 -0.27913350363E+02 -0.20753384636E+02 -0.54191483280E+02  0.64393904699E+02  0.00000000000E+00 0. -1.
        -12    1    6    6    0    0  0.44702995538E+01 -0.41235695198E+02 -0.35725780797E+03  0.35965748635E+03  0.00000000000E+00 0.  1.
</event>
<event>
12    1  0.8416569E-002  0.2560079E+03  0.7818608E-02  0.1111817E+00
         21   -1    0    0  503  502  0.00000000000E+00  0.00000000000E+00  0.61320363416E+03  0.61320363416E+03  0.00000000000E+00 0.  1.
         21   -1    0    0  501  503 -0.00000000000E+00 -0.00000000000E+00 -0.54885502383E+03  0.54885502383E+03  0.00000000000E+00 0. -1.
          6    2    1    2  501    0  0.16641311046E+03  0.30357184975E+02 -0.49280088974E+03  0.54890645549E+03  0.17271565630E+03 0.  0.
         24    2    3    3    0    0  0.52575499272E+02 -0.47697317219E+02 -0.21966075844E+03  0.24283599242E+03  0.75360820206E+02 0.  0.
         -6    2    1    2    0  502 -0.16641311046E+03 -0.30357184975E+02  0.55714950007E+03  0.61315220250E+03  0.19215924643E+03 0.  0.
        -24    2    5    5    0    0 -0.75654639415E+02  0.23863070241E+02  0.12758749361E+03  0.17074679619E+03  0.81134636844E+02 0.  0.
          5    1    3    3  501    0  0.11383761119E+03  0.78054502194E+02 -0.27314013130E+03  0.30607046307E+03  0.47000000000E+01 0. -1.
        -13    1    4    4    0    0  0.52151695037E+02 -0.39355771096E+02 -0.22406317201E+03  0.23339447522E+03  0.00000000000E+00 0.  1.
         14    1    4    4    0    0  0.42380423592E+00 -0.83415461228E+01  0.44024135685E+01  0.94415171968E+01  0.00000000000E+00 0. -1.
         -5    1    5    5    0  502 -0.90758471044E+02 -0.54220255217E+02  0.42956200646E+03  0.44240540631E+03  0.47000000000E+01 0.  1.
         11    1    6    6    0    0 -0.17139036136E+02 -0.80570190661E+01 -0.72937997662E+01  0.20294374366E+02  0.00000000000E+00 0. -1.
        -12    1    6    6    0    0 -0.58515603279E+02  0.31920089307E+02  0.13488129338E+03  0.15045242182E+03  0.00000000000E+00 0.  1.
</event>
<event>
12    1  0.8416569E-002  0.2734894E+03  0.7818608E-02  0.1099364E+00
         21   -1    0    0  503  502  0.00000000000E+00  0.00000000000E+00  0.11585116747E+03  0.11585116747E+03  0.00000000000E+00 0. -1.
         21   -1    0    0  501  503 -0.00000000000E+00 -0.00000000000E+00 -0.18110137170E+04  0.18110137170E+04  0.00000000000E+00 0.  1.
          6    2    1    2  501    0  0.19642405524E+03  0.81470033915E+02 -0.16210486923E+04  0.16439572137E+04  0.17197872460E+03 0.  0.
         24    2    3    3    0    0  0.14704549302E+03 -0.26824441178E+00 -0.78818538497E+03  0.80562388663E+03  0.78556964422E+02 0.  0.
         -6    2    1    2    0  502 -0.19642405524E+03 -0.81470033915E+02 -0.74113857200E+02  0.28290767075E+03  0.17124284055E+03 0.  0.
        -24    2    5    5    0    0 -0.20965548830E+03 -0.10489919339E+03 -0.60905484069E+02  0.25256714578E+03  0.71564101259E+02 0.  0.
          5    1    3    3  501    0  0.49378562221E+02  0.81738278326E+02 -0.83286330733E+03  0.83833332705E+03  0.47000000000E+01 0. -1.
        -13    1    4    4    0    0  0.98761480981E+02 -0.24206365107E+02 -0.63820347886E+03  0.64625340128E+03  0.00000000000E+00 0.  1.
         14    1    4    4    0    0  0.48284012037E+02  0.23938120696E+02 -0.14998190611E+03  0.15937048536E+03  0.00000000000E+00 0. -1.
         -5    1    5    5    0  502  0.13231433063E+02  0.23429159479E+02 -0.13208373130E+02  0.30340524972E+02  0.47000000000E+01 0.  1.
         11    1    6    6    0    0 -0.10620610394E+03 -0.37651849777E+02  0.47851998985E+01  0.11278429165E+03  0.00000000000E+00 0. -1.
        -12    1    6    6    0    0 -0.10344938437E+03 -0.67247343616E+02 -0.65690683968E+02  0.13978285413E+03  0.00000000000E+00 0.  1.
</event>
<event>
12    1  0.8416569E-002  0.1871846E+03  0.7818608E-02  0.1162171E+00
         21   -1    0    0  503  502  0.00000000000E+00  0.00000000000E+00  0.28939285193E+03  0.28939285193E+03  0.00000000000E+00 0.  1.
         21   -1    0    0  501  503 -0.00000000000E+00 -0.00000000000E+00 -0.11799686185E+03  0.11799686185E+03  0.00000000000E+00 0.  1.
          6    2    1    2  501    0  0.66891780318E+02 -0.12786780614E+02  0.81610774185E+02  0.20420185476E+03  0.17435614986E+03 0.  0.
         24    2    3    3    0    0  0.95556615009E+02 -0.54562855825E+02  0.70414965741E+02  0.15210243697E+03  0.77901938506E+02 0.  0.
         -6    2    1    2    0  502 -0.66891780318E+02  0.12786780614E+02  0.89785215897E+02  0.20318785901E+03  0.16907367928E+03 0.  0.
        -24    2    5    5    0    0 -0.24604097603E+02 -0.28855461286E+02 -0.76190038835E+01  0.89030089015E+02  0.80189202919E+02 0.  0.
          5    1    3    3  501    0 -0.28664834692E+02  0.41776075210E+02  0.11195808444E+02  0.52099417795E+02  0.47000000000E+01 0. -1.
        -13    1    4    4    0    0 -0.85281174962E+01 -0.21634706275E+02  0.21664464335E+01  0.23355573077E+02  0.00000000000E+00 0.  1.
         14    1    4    4    0    0  0.10408473251E+03 -0.32928149550E+02  0.68248519307E+02  0.12874686389E+03  0.00000000000E+00 0. -1.
         -5    1    5    5    0  502 -0.42287682714E+02  0.41642241900E+02  0.97404219780E+02  0.11415777000E+03  0.47000000000E+01 0.  1.
         11    1    6    6    0    0 -0.38651348538E+02 -0.49472744171E+02  0.53494527875E+00  0.62783479723E+02  0.00000000000E+00 0. -1.
        -12    1    6    6    0    0  0.14047250935E+02  0.20617282885E+02 -0.81539491623E+01  0.26246609292E+02  0.00000000000E+00 0.  1.
</event>
<event>
12    1  0.8416569E-002  0.2322773E+03  0.7818608E-02  0.1125064E+00
         21   -1    0    0  501  502  0.00000000000E+00  0.00000000000E+00  0.26265608595E+03  0.26265608595E+03  0.00000000000E+00 0. -1.
         21   -1    0    0  502  503 -0.00000000000E+00 -0.00000000000E+00 -0.25405242620E+03  0.25405242620E+03  0.00000000000E+00 0. -1.
         -6    2    1    2    0  503  0.16507976588E+02  0.15473844163E+03 -0.10884448009E+03  0.25651483098E+03  0.17244198751E+03 0.  0.
        -24    2    3    3    0    0 -0.21070516669E+02  0.11255526580E+03 -0.13159812545E+03  0.19542979307E+03  0.88102683661E+02 0.  0.
          6    2    1    2  501    0 -0.16507976588E+02 -0.15473844163E+03  0.11744813983E+03  0.26019368117E+03  0.17230840828E+03 0.  0.
         24    2    5    5    0    0 -0.24219144024E+02 -0.17189025610E+03  0.58143014703E+02  0.19780109580E+03  0.74912190358E+02 0.  0.
          5    1    5    5  501    0  0.77111674365E+01  0.17151814468E+02  0.59305125126E+02  0.62392585369E+02  0.47000000000E+01 0. -1.
        -11    1    6    6    0    0  0.89987010107E+01  0.39610434038E+01  0.54614062941E+01  0.11246930401E+02  0.00000000000E+00 0.  1.
         12    1    6    6    0    0 -0.33217845035E+02 -0.17585129950E+03  0.52681608409E+02  0.18655416540E+03  0.00000000000E+00 0. -1.
         -5    1    3    3    0  503  0.37578493257E+02  0.42183175829E+02  0.22753645359E+02  0.61085037903E+02  0.47000000000E+01 0.  1.
         11    1    4    4    0    0  0.89754768515E+01  0.91483056279E+02 -0.12931893554E+03  0.15866031596E+03  0.00000000000E+00 0. -1.
        -12    1    4    4    0    0 -0.30045993520E+02  0.21072209520E+02 -0.22791899055E+01  0.36769477115E+02  0.00000000000E+00 0.  1.
</event>
<event>
12    1  0.8416569E-002  0.2067418E+03  0.7818608E-02  0.1144529E+00
         21   -1    0    0  503  502  0.00000000000E+00  0.00000000000E+00  0.22747815919E+03  0.22747815919E+03  0.00000000000E+00 0.  1.
         21   -1    0    0  501  503 -0.00000000000E+00 -0.00000000000E+00 -0.75442869703E+03  0.75442869703E+03  0.00000000000E+00 0.  1.
          6    2    1    2  501    0  0.43329398273E+02 -0.10292148275E+03 -0.68979634789E+03  0.72011191928E+03  0.17398823629E+03 0.  0.
         24    2    3    3    0    0  0.74965099761E+02 -0.12647448904E+03 -0.56175983132E+03  0.58605595601E+03  0.79195409766E+02 0.  0.
         -6    2    1    2    0  502 -0.43329398273E+02  0.10292148275E+03  0.16284581005E+03  0.26179493694E+03  0.17189404525E+03 0.  0.
        -24    2    5    5    0    0  0.38193348203E+02  0.72017069402E+02  0.11738058523E+03  0.16335603393E+03  0.79131548083E+02 0.  0.
          5    1    3    3  501    0 -0.31635701487E+02  0.23553006298E+02 -0.12803651656E+03  0.13405596327E+03  0.47000000000E+01 0. -1.
        -11    1    4    4    0    0  0.36808089054E+02 -0.73490054997E+02 -0.16924624728E+03  0.18814865352E+03  0.00000000000E+00 0.  1.
         12    1    4    4    0    0  0.38157010706E+02 -0.52984434048E+02 -0.39251358405E+03  0.39790730250E+03  0.00000000000E+00 0. -1.
         -5    1    5    5    0  502 -0.81522746476E+02  0.30904413345E+02  0.45465224826E+02  0.98438903009E+02  0.47000000000E+01 0.  1.
         13    1    6    6    0    0  0.37358617807E+02  0.59854295769E+02  0.32635522270E+02  0.77738538450E+02  0.00000000000E+00 0. -1.
        -14    1    6    6    0    0  0.83473039541E+00  0.12162773633E+02  0.84745062956E+02  0.85617495483E+02  0.00000000000E+00 0.  1.
</event>
<event>
12    1  0.8416569E-002  0.1752097E+03  0.7818608E-02  0.1172555E+00
         21   -1    0    0  503  502  0.00000000000E+00  0.00000000000E+00  0.75709787208E+02  0.75709787208E+02  0.00000000000E+00 0.  1.
         21   -1    0    0  501  503 -0.00000000000E+00 -0.00000000000E+00 -0.44200685446E+03  0.44200685446E+03  0.00000000000E+00 0.  1.
          6    2    1    2  501    0  0.19144668079E+02 -0.28120439671E+02 -0.25781727914E+03  0.31164312657E+03  0.17173937077E+03 0.  0.
         24    2    3    3    0    0  0.37504256082E+02 -0.76154936942E+02 -0.13861615473E+03  0.18173783238E+03  0.81289960748E+02 0.  0.
         -6    2    1    2    0  502 -0.19144668079E+02  0.28120439671E+02 -0.10847978811E+03  0.20607351510E+03  0.17187539601E+03 0.  0.
        -24    2    5    5    0    0 -0.57163548037E+02 -0.18648995511E+02 -0.10317824051E+03  0.14538569336E+03  0.82920409199E+02 0.  0.
          5    1    3    3  501    0 -0.18359588002E+02  0.48034497271E+02 -0.11920112441E+03  0.12990529420E+03  0.47000000000E+01 0. -1.
        -13    1    4    4    0    0 -0.24039130351E+02 -0.31717054965E+02 -0.63528829901E+02  0.74965082487E+02  0.00000000000E+00 0.  1.
         14    1    4    4    0    0  0.61543386433E+02 -0.44437881977E+02 -0.75087324833E+02  0.10677274989E+03  0.00000000000E+00 0. -1.
         -5    1    5    5    0  502  0.38018879958E+02  0.46769435183E+02 -0.53015476054E+01  0.60687821740E+02  0.47000000000E+01 0.  1.
         11    1    6    6    0    0 -0.39561843342E+01  0.26084491828E+02 -0.54417140367E+02  0.60475427027E+02  0.00000000000E+00 0. -1.
        -12    1    6    6    0    0 -0.53207363703E+02 -0.44733487339E+02 -0.48761100140E+02  0.84910266333E+02  0.00000000000E+00 0.  1.
</event>
<event>
12    1  0.8416569E-002  0.2251372E+03  0.7818608E-02  0.1130117E+00
         21   -1    0    0  501  502  0.00000000000E+00  0.00000000000E+00  0.64581775093E+03  0.64581775093E+03  0.00000000000E+00 0. -1.
         21   -1    0    0  502  503 -0.00000000000E+00 -0.00000000000E+00 -0.87721350340E+02  0.87721350340E+02  0.00000000000E+00 0.  1.
         -6    2    1    2    0  503 -0.12338395014E+02 -0.14525976039E+03  0.15992393674E+03  0.27612452841E+03  0.17151226099E+03 0.  0.
        -24    2    3    3    0    0  0.40191079825E+02 -0.34301492646E+02  0.45516284179E+02  0.10824872946E+03  0.82789733724E+02 0.  0.
          6    2    1    2  501    0  0.12338395014E+02  0.14525976039E+03  0.39817246385E+03  0.45741457285E+03  0.17156382636E+03 0.  0.
         24    2    5    5    0    0  0.51859638925E+02  0.11251318298E+03  0.37061372106E+03  0.39896937326E+03  0.80457392849E+02 0.  0.
          5    1    5    5  501    0 -0.39521243911E+02  0.32746577406E+02  0.27558742784E+02  0.58445199597E+02  0.47000000000E+01 0. -1.
        -11    1    6    6    0    0  0.33494638236E+02  0.52513524983E+01  0.50169542716E+02  0.60551222201E+02  0.00000000000E+00 0.  1.
         12    1    6    6    0    0  0.18365000688E+02  0.10726183049E+03  0.32044417835E+03  0.33841815106E+03  0.00000000000E+00 0. -1.
         -5    1    3    3    0  503 -0.52529474839E+02 -0.11095826775E+03  0.11440765256E+03  0.16787579895E+03  0.47000000000E+01 0.  1.
         13    1    4    4    0    0 -0.17035522387E+02  0.13366564041E+02  0.14320975796E+01  0.21700805532E+02  0.00000000000E+00 0. -1.
        -14    1    4    4    0    0  0.57226602212E+02 -0.47668056686E+02  0.44084186599E+02  0.86547923933E+02  0.00000000000E+00 0.  1.
</event>
<event>
12    1  0.8416569E-002  0.2369255E+03  0.7818608E-02  0.1121874E+00
         21   -1    0    0  501  502  0.00000000000E+00  0.00000000000E+00  0.91113457254E+03  0.91113457254E+03  0.00000000000E+00 0. -1.
         21   -1    0    0  502  503 -0.00000000000E+00 -0.00000000000E+00 -0.88824725561E+02  0.88824725561E+02  0.00000000000E+00 0. -1.
         -6    2    1    2    0  503 -0.12327469430E+03 -0.10572005417E+03  0.68798120710E+03  0.72760312031E+03  0.17237975301E+03 0.  0.
        -24    2    3    3    0    0 -0.10676761521E+03 -0.74365210534E+02  0.28554331241E+03  0.32358089448E+03  0.78994327735E+02 0.  0.
          6    2    1    2  501    0  0.12327469430E+03  0.10572005417E+03  0.13432863988E+03  0.27235617780E+03  0.17251180824E+03 0.  0.
         24    2    5    5    0    0  0.98696201854E+02  0.50668412906E+01  0.10743175489E+03  0.16520813079E+03  0.77366216016E+02 0.  0.
          5    1    5    5  501    0  0.24578492444E+02  0.10065321288E+03  0.26896884992E+02  0.10714804700E+03  0.47000000000E+01 0. -1.
        -11    1    6    6    0    0  0.14451662766E+02 -0.78193637150E+01  0.70389097366E+02  0.72281519309E+02  0.00000000000E+00 0.  1.
         12    1    6    6    0    0  0.84244539088E+02  0.12886205006E+02  0.37042657524E+02  0.92926611485E+02  0.00000000000E+00 0. -1.
         -5    1    3    3    0  503 -0.16507079085E+02 -0.31354843639E+02  0.40243789469E+03  0.40402222583E+03  0.47000000000E+01 0.  1.
         11    1    4    4    0    0 -0.44362299041E+01 -0.44215504457E+02  0.67111623306E+02  0.80490129537E+02  0.00000000000E+00 0. -1.
        -12    1    4    4    0    0 -0.10233138531E+03 -0.30149706078E+02  0.21843168910E+03  0.24309076494E+03  0.00000000000E+00 0.  1.
</event>
<event>
12    1  0.8416569E-002  0.1884364E+03  0.7818608E-02  0.1160738E+00
         21   -1    0    0  501  502  0.00000000000E+00  0.00000000000E+00  0.84075301567E+03  0.84075301567E+03  0.00000000000E+00 0.  1.
         21   -1    0    0  502  503 -0.00000000000E+00 -0.00000000000E+00 -0.76857510156E+02  0.76857510156E+02  0.00000000000E+00 0.  1.
         -6    2    1    2    0  503  0.13504434939E+02  0.75476822221E+02  0.68278684257E+02  0.19692263718E+03  0.16803995315E+03 0.  0.
        -24    2    3    3    0    0  0.69271665770E+02  0.24405889168E+02  0.43002097516E+02  0.11705261730E+03  0.80361207818E+02 0.  0.
          6    2    1    2  501    0 -0.13504434939E+02 -0.75476822221E+02  0.69561682126E+03  0.72068788865E+03  0.17213120105E+03 0.  0.
         24    2    5    5    0    0  0.23932041928E+02 -0.73568944258E+02  0.25434608377E+03  0.27780293342E+03  0.80606496652E+02 0.  0.
          5    1    5    5  501    0 -0.37436476867E+02 -0.19078779631E+01  0.44127073750E+03  0.44288495523E+03  0.47000000000E+01 0. -1.
        -11    1    6    6    0    0  0.68225919604E+01 -0.71538624053E+02  0.24987391263E+03  0.26000248981E+03  0.00000000000E+00 0.  1.
         12    1    6    6    0    0  0.17109449968E+02 -0.20303202043E+01  0.44721711352E+01  0.17800443618E+02  0.00000000000E+00 0. -1.
         -5    1    3    3    0  503 -0.55767230831E+02  0.51070933053E+02  0.25276586741E+02  0.79870019874E+02  0.47000000000E+01 0.  1.
         11    1    4    4    0    0  0.39576870534E+02 -0.10562748872E+02  0.55989599671E+02  0.69373882811E+02  0.00000000000E+00 0. -1.
        -12    1    4    4    0    0  0.29694795236E+02  0.34968638040E+02 -0.12987502155E+02  0.47678734491E+02  0.00000000000E+00 0.  1.
</event>
<event>
12    1  0.8416569E-002  0.1952117E+03  0.7818608E-02  0.1154184E+00
         21   -1    0    0  503  502  0.00000000000E+00  0.00000000000E+00  0.71454683435E+03  0.71454683435E+03  0.00000000000E+00 0. -1.
         21   -1    0    0  501  503 -0.00000000000E+00 -0.00000000000E+00 -0.74295189326E+02  0.74295189326E+02  0.00000000000E+00 0. -1.
          6    2    1    2  501    0 -0.25010261410E+02 -0.84740025266E+02  0.10757876875E+03  0.22152554032E+03  0.17231943730E+03 0.  0.
         24    2    3    3    0    0 -0.52068198764E+02  0.35626696461E+01  0.38992646660E+02  0.10639238243E+03  0.84113748033E+02 0.  0.
         -6    2    1    2    0  502  0.25010261410E+02  0.84740025266E+02  0.53267287628E+03  0.56731648336E+03  0.17407243926E+03 0.  0.
        -24    2    5    5    0    0  0.53050435482E+02  0.76712307182E+02  0.52115673234E+03  0.53560832682E+03  0.81072888937E+02 0.  0.
          5    1    3    3  501    0  0.27057937354E+02 -0.88302694912E+02  0.68586122088E+02  0.11513315789E+03  0.47000000000E+01 0. -1.
        -13    1    4    4    0    0 -0.11240012397E+02  0.24610020757E+02  0.52030083189E+02  0.58644015526E+02  0.00000000000E+00 0.  1.
         14    1    4    4    0    0 -0.40828186366E+02 -0.21047351111E+02 -0.13037436529E+02  0.47748366904E+02  0.00000000000E+00 0. -1.
         -5    1    5    5    0  502 -0.28040174072E+02  0.80277180839E+01  0.11516143938E+02  0.31708156535E+02  0.47000000000E+01 0.  1.
         13    1    6    6    0    0 -0.10632967556E+02  0.49669261812E+02  0.15949126958E+03  0.16738446953E+03  0.00000000000E+00 0. -1.
        -14    1    6    6    0    0  0.63683403038E+02  0.27043045370E+02  0.36166546276E+03  0.36822385729E+03  0.00000000000E+00 0.  1.
</event>
<event>
12    1  0.8416569E-002  0.1843656E+03  0.7818608E-02  0.1163721E+00
         21   -1    0    0  503  502  0.00000000000E+00  0.00000000000E+00  0.17095527732E+03  0.17095527732E+03  0.00000000000E+00 0.  1.
         21   -1    0    0  501  503 -0.00000000000E+00 -0.00000000000E+00 -0.34165555797E+03  0.34165555797E+03  0.00000000000E+00 0.  1.
          6    2    1    2  501    0  0.61607305237E+02 -0.22860390808E+02 -0.25131973680E+03  0.31169261315E+03  0.17225741627E+03 0.  0.
         24    2    3    3    0    0  0.53304048202E+02 -0.78086378377E+02 -0.20125207136E+03  0.23654133303E+03  0.80688301290E+02 0.  0.
         -6    2    1    2    0  502 -0.61607305237E+02  0.22860390808E+02  0.80619456150E+02  0.20091822214E+03  0.17190281484E+03 0.  0.
        -24    2    5    5    0    0 -0.40923031784E+02  0.56536056038E+02  0.11040443391E+03  0.15120781581E+03  0.76181653787E+02 0.  0.
          5    1    3    3  501    0  0.83032570358E+01  0.55225987568E+02 -0.50067665444E+02  0.75151280118E+02  0.47000000000E+01 0. -1.
        -11    1    4    4    0    0  0.58701661564E+02 -0.18755039166E+02 -0.12846535520E+03  0.14248152179E+03  0.00000000000E+00 0.  1.
         12    1    4    4    0    0 -0.53976133626E+01 -0.59331339211E+02 -0.72786716160E+02  0.94059811248E+02  0.00000000000E+00 0. -1.
         -5    1    5    5    0  502 -0.20684273453E+02 -0.33675665230E+02 -0.29784977758E+02  0.49710406325E+02  0.47000000000E+01 0.  1.
         13    1    6    6    0    0  0.23623600370E+00  0.58822392469E+02  0.82910053829E+02  0.10165730023E+03  0.00000000000E+00 0. -1.
        -14    1    6    6    0    0 -0.41159267788E+02 -0.22863364303E+01  0.27494380080E+02  0.49550515588E+02  0.00000000000E+00 0.  1.
</event>
<event>
12    1  0.8416569E-002  0.2172230E+03  0.7818608E-02  0.1136100E+00
         21   -1    0    0  503  502  0.00000000000E+00  0.00000000000E+00  0.17695318434E+03  0.17695318434E+03  0.00000000000E+00 0. -1.
         21   -1    0    0  501  503 -0.00000000000E+00 -0.00000000000E+00 -0.53669669936E+03  0.53669669936E+03  0.00000000000E+00 0. -1.
          6    2    1    2  501    0  0.17262278162E+02  0.13041417040E+03 -0.43323138528E+03  0.48433283905E+03  0.17199716191E+03 0.  0.
         24    2    3    3    0    0  0.76087557348E+02  0.77016260760E+02 -0.30428334466E+03  0.33280252062E+03  0.80301575875E+02 0.  0.
         -6    2    1    2    0  502 -0.17262278162E+02 -0.13041417040E+03  0.73487870252E+02  0.22931704465E+03  0.17285831714E+03 0.  0.
        -24    2    5    5    0    0  0.45478978414E+01 -0.42872874001E+02 -0.27036618443E+02  0.94163705140E+02  0.79227886057E+02 0.  0.
          5    1    3    3  501    0 -0.58825279187E+02  0.53397909642E+02 -0.12894804061E+03  0.15153031843E+03  0.47000000000E+01 0. -1.
        -11    1    4    4    0    0  0.28790806548E+02  0.47447988733E+02 -0.24578645086E+03  0.25197460508E+03  0.00000000000E+00 0.  1.
         12    1    4    4    0    0  0.47296750800E+02  0.29568272027E+02 -0.58496893803E+02  0.80827915546E+02  0.00000000000E+00 0. -1.
         -5    1    5    5    0  502 -0.21810176003E+02 -0.87541296401E+02  0.10052448869E+03  0.13515333951E+03  0.47000000000E+01 0.  1.
         13    1    6    6    0    0  0.30161969160E+02  0.15816640543E+01  0.89427537961E+01  0.31499506191E+02  0.00000000000E+00 0. -1.
        -14    1    6    6    0    0 -0.25614071319E+02 -0.44454538055E+02 -0.35979372239E+02  0.62664198949E+02  0.00000000000E+00 0.  1.
</event>
<event>
12    1  0.8416569E-002  0.2844563E+03  0.7818608E-02  0.1093290E+00
         21   -1    0    0  501  502  0.00000000000E+00  0.00000000000E+00  0.16853699499E+04  0.16853699499E+04  0.00000000000E+00 0.  1.
         21   -1    0    0  502  503 -0.00000000000E+00 -0.00000000000E+00 -0.13599932088E+03  0.13599932088E+03  0.00000000000E+00 0. -1.
         -6    2    1    2    0  503 -0.22585490868E+03 -0.17605551042E+02  0.42158418996E+02  0.28756341294E+03  0.17203194170E+03 0.  0.
        -24    2    3    3    0    0 -0.22166793219E+03  0.23657829851E+02  0.55842854898E+02  0.24363675633E+03  0.80895485144E+02 0.  0.
          6    2    1    2  501    0  0.22585490868E+03  0.17605551042E+02  0.15072122100E+04  0.15338058578E+04  0.17190511420E+03 0.  0.
         24    2    5    5    0    0  0.19642852662E+03 -0.12372478260E+02  0.14310176761E+04  0.14466721032E+04  0.79443945644E+02 0.  0.
          5    1    5    5  501    0  0.29426382060E+02  0.29978029301E+02  0.76194533915E+02  0.87133754656E+02  0.47000000000E+01 0. -1.
        -11    1    6    6    0    0  0.96223903498E+02 -0.38697286101E+02  0.56090117929E+03  0.57040919740E+03  0.00000000000E+00 0.  1.
         12    1    6    6    0    0  0.10020462312E+03  0.26324807841E+02  0.87011649679E+03  0.87626290575E+03  0.00000000000E+00 0. -1.
         -5    1    3    3    0  503 -0.41869764920E+01 -0.41263380892E+02 -0.13684435902E+02  0.43926656608E+02  0.47000000000E+01 0.  1.
         13    1    4    4    0    0 -0.21950494225E+01 -0.13355475687E+02  0.88105025389E+01  0.16149672684E+02  0.00000000000E+00 0. -1.
        -14    1    4    4    0    0 -0.21947288277E+03  0.37013305538E+02  0.47032352359E+02  0.22748708365E+03  0.00000000000E+00 0.  1.
</event>
<event>
12    1  0.8416569E-002  0.2110147E+03  0.7818608E-02  0.1142487E+00
         21   -1    0    0  501  502  0.00000000000E+00  0.00000000000E+00  0.67925103436E+03  0.67925103436E+03  0.00000000000E+00 0. -1.
         21   -1    0    0  502  503 -0.00000000000E+00 -0.00000000000E+00 -0.63422114297E+02  0.63422114297E+02  0.00000000000E+00 0. -1.
         -6    2    1    2    0  503  0.10405033117E+03  0.23120466180E+02  0.26856873980E+03  0.33632744122E+03  0.17212191129E+03 0.  0.
        -24    2    3    3    0    0  0.53449539871E+02 -0.52863146025E+02  0.15319562816E+03  0.18913031389E+03  0.81547591174E+02 0.  0.
          6    2    1    2  501    0 -0.10405033117E+03 -0.23120466180E+02  0.34726018027E+03  0.40634570744E+03  0.18211582518E+03 0.  0.
         24    2    5    5    0    0 -0.24270193573E+02 -0.72035695501E+02  0.22900359250E+03  0.25546734397E+03  0.83921002925E+02 0.  0.
          5    1    5    5  501    0 -0.79780137598E+02  0.48915229321E+02  0.11825658776E+03  0.15087836347E+03  0.47000000000E+01 0. -1.
        -11    1    6    6    0    0 -0.40488617660E+02 -0.51371833456E+02  0.21689352276E+03  0.22654181435E+03  0.00000000000E+00 0.  1.
         12    1    6    6    0    0  0.16218424087E+02 -0.20663862045E+02  0.12110069740E+02  0.28925529617E+02  0.00000000000E+00 0. -1.
         -5    1    3    3    0  503  0.50600791299E+02  0.75983612205E+02  0.11537311164E+03  0.14719712733E+03  0.47000000000E+01 0.  1.
         13    1    4    4    0    0  0.41767936004E+02 -0.65164212805E+02  0.70444626632E+02  0.10465839923E+03  0.00000000000E+00 0. -1.
        -14    1    4    4    0    0  0.11681603868E+02  0.12301066780E+02  0.82751001526E+02  0.84471914660E+02  0.00000000000E+00 0.  1.
</event>
<event>
12    1  0.8416569E-002  0.1747405E+03  0.7818608E-02  0.1173060E+00
         21   -1    0    0  503  502  0.00000000000E+00  0.00000000000E+00  0.11093264839E+04  0.11093264839E+04  0.00000000000E+00 0. -1.
         21   -1    0    0  501  503 -0.00000000000E+00 -0.00000000000E+00 -0.38794414882E+02  0.38794414882E+02  0.00000000000E+00 0. -1.
          6    2    1    2  501    0  0.20971539566E+02  0.26286528035E+02  0.22499139889E+03  0.28471296543E+03  0.17120033903E+03 0.  0.
         24    2    3    3    0    0  0.45818632887E+02 -0.33417240175E+02  0.82606223374E+02  0.12825994951E+03  0.80067268265E+02 0.  0.
         -6    2    1    2    0  502 -0.20971539566E+02 -0.26286528035E+02  0.84554067011E+03  0.86340793333E+03  0.17147433481E+03 0.  0.
        -24    2    5    5    0    0 -0.11353748841E+02 -0.38725187137E+02  0.84178249930E+03  0.84657237612E+03  0.80364570331E+02 0.  0.
          5    1    3    3  501    0 -0.24847093321E+02  0.59703768210E+02  0.14238517551E+03  0.15645301592E+03  0.47000000000E+01 0. -1.
        -11    1    4    4    0    0  0.18843272234E+02 -0.57375035909E+02  0.62704872087E+02  0.87056674859E+02  0.00000000000E+00 0.  1.
         12    1    4    4    0    0  0.26975360653E+02  0.23957795734E+02  0.19901351287E+02  0.41203274650E+02  0.00000000000E+00 0. -1.
         -5    1    5    5    0  502 -0.96177907250E+01  0.12438659103E+02  0.37581708197E+01  0.16835557211E+02  0.47000000000E+01 0.  1.
         11    1    6    6    0    0 -0.37043968300E+02 -0.21790786069E+02  0.22776221977E+03  0.23178162719E+03  0.00000000000E+00 0. -1.
        -12    1    6    6    0    0  0.25690219458E+02 -0.16934401068E+02  0.61402027952E+03  0.61479074894E+03  0.00000000000E+00 0.  1.
</event>
<event>
12    1  0.8416569E-002  0.1984302E+03  0.7818608E-02  0.1153438E+00
         21   -1    0    0  503  502  0.00000000000E+00  0.00000000000E+00  0.74396596217E+03  0.74396596217E+03  0.00000000000E+00 0. -1.
         21   -1    0    0  501  503 -0.00000000000E+00 -0.00000000000E+00 -0.53314316612E+02  0.53314316612E+02  0.00000000000E+00 0. -1.
          6    2    1    2  501    0 -0.80709289973E+02  0.30890422195E+01  0.23823744025E+03  0.30326289852E+03  0.16937466167E+03 0.  0.
         24    2    3    3    0    0 -0.12882302707E+02 -0.44659662226E+02  0.17617081028E+03  0.19955756822E+03  0.81404112218E+02 0.  0.
         -6    2    1    2    0  502  0.80709289973E+02 -0.30890422195E+01  0.45241420531E+03  0.49401738026E+03  0.18124852320E+03 0.  0.
        -24    2    5    5    0    0  0.56093184177E+02  0.68481320841E+02  0.28168348161E+03  0.30720373100E+03  0.84808088736E+02 0.  0.
          5    1    3    3  501    0 -0.67826987265E+02  0.47748704446E+02  0.62066629972E+02  0.10370533031E+03  0.47000000000E+01 0. -1.
        -11    1    4    4    0    0  0.15960173417E+02 -0.99191960786E+01  0.11725252604E+01  0.18827968606E+02  0.00000000000E+00 0.  1.
         12    1    4    4    0    0 -0.28842476124E+02 -0.34740466148E+02  0.17499828502E+03  0.18072959961E+03  0.00000000000E+00 0. -1.
         -5    1    5    5    0  502  0.24616105795E+02 -0.71570363061E+02  0.17073072370E+03  0.18681364926E+03  0.47000000000E+01 0.  1.
         13    1    6    6    0    0  0.55126624795E+02  0.42292801079E+01  0.96871127746E+02  0.11153854474E+03  0.00000000000E+00 0. -1.
        -14    1    6    6    0    0  0.96655938232E+00  0.64252040733E+02  0.18481235386E+03  0.19566518626E+03  0.00000000000E+00 0.  1.
</event>
<event>
12    1  0.8416569E-002  0.2125785E+03  0.7818608E-02  0.1139855E+00
         21   -1    0    0  501  502  0.00000000000E+00  0.00000000000E+00  0.95214939178E+02  0.95214939178E+02  0.00000000000E+00 0.  1.
         21   -1    0    0  502  503 -0.00000000000E+00 -0.00000000000E+00 -0.56363404779E+03  0.56363404779E+03  0.00000000000E+00 0.  1.
         -6    2    1    2    0  503  0.25107330318E+02  0.12018537099E+03 -0.10141887944E+03  0.23553219840E+03  0.17353594999E+03 0.  0.
        -24    2    3    3    0    0  0.36040243659E+02  0.47312977403E+02 -0.12371649638E+03  0.15840121849E+03  0.79042757725E+02 0.  0.
          6    2    1    2  501    0 -0.25107330318E+02 -0.12018537099E+03 -0.36700022916E+03  0.42331678857E+03  0.17156058358E+03 0.  0.
         24    2    5    5    0    0 -0.67345193552E+02 -0.10747986241E+03 -0.33671292886E+03  0.36960573199E+03  0.84531087417E+02 0.  0.
          5    1    5    5  501    0  0.42237863234E+02 -0.12705508579E+02 -0.30287300308E+02  0.53711056579E+02  0.47000000000E+01 0. -1.
        -13    1    6    6    0    0 -0.72515687203E+02 -0.11350165189E+03 -0.26315541100E+03  0.29562124452E+03  0.00000000000E+00 0.  1.
         14    1    6    6    0    0  0.51704936509E+01  0.60217894726E+01 -0.73557517854E+02  0.73984487468E+02  0.00000000000E+00 0. -1.
         -5    1    3    3    0  503 -0.10932913341E+02  0.72872393589E+02  0.22297616932E+02  0.77130979913E+02  0.47000000000E+01 0.  1.
         11    1    4    4    0    0  0.14831551514E+02 -0.35210880492E+01  0.68348219069E+01  0.16705920264E+02  0.00000000000E+00 0. -1.
        -12    1    4    4    0    0  0.21208692144E+02  0.50834065453E+02 -0.13055131828E+03  0.14169529822E+03  0.00000000000E+00 0.  1.
</event>
<event>
12    1  0.8416569E-002  0.1994656E+03  0.7818608E-02  0.1150545E+00
         21   -1    0    0  501  502  0.00000000000E+00  0.00000000000E+00  0.11696586456E+04  0.11696586456E+04  0.00000000000E+00 0.  1.
         21   -1    0    0  502  503 -0.00000000000E+00 -0.00000000000E+00 -0.41143857884E+02  0.41143857884E+02  0.00000000000E+00 0.  1.
         -6    2    1    2    0  503 -0.88080993485E+02 -0.48686074181E+02  0.30924771820E+03  0.36799547859E+03  0.17221476655E+03 0.  0.
        -24    2    3    3    0    0 -0.80402432307E+02 -0.71403265882E+01  0.30521754726E+03  0.32529487294E+03  0.78380276993E+02 0.  0.
          6    2    1    2  501    0  0.88080993485E+02  0.48686074181E+02  0.81926706954E+03  0.84280702491E+03  0.17028374786E+03 0.  0.
         24    2    5    5    0    0  0.80160265726E+02 -0.18550215358E+01  0.29065853298E+03  0.31170796145E+03  0.79059225495E+02 0.  0.
          5    1    5    5  501    0  0.79207277587E+01  0.50541095717E+02  0.52860853656E+03  0.53109906346E+03  0.47000000000E+01 0. -1.
        -11    1    6    6    0    0  0.48151905797E+02 -0.16805658829E+02  0.61744021976E+02  0.80083459281E+02  0.00000000000E+00 0.  1.
         12    1    6    6    0    0  0.32008359929E+02  0.14950637293E+02  0.22891451100E+03  0.23162450217E+03  0.00000000000E+00 0. -1.
         -5    1    3    3    0  503 -0.76785611775E+01 -0.41545747593E+02  0.40301709376E+01  0.42700605647E+02  0.47000000000E+01 0.  1.
         13    1    4    4    0    0 -0.32931990099E+02  0.35503012428E+02  0.12051526889E+03  0.12988036764E+03  0.00000000000E+00 0. -1.
        -14    1    4    4    0    0 -0.47470442209E+02 -0.42643339016E+02  0.18470227838E+03  0.19541450531E+03  0.00000000000E+00 0.  1.
</event>
<event>
12    1  0.8416569E-002  0.2183564E+03  0.7818608E-02  0.1137973E+00
         21   -1    0    0  501  502  0.00000000000E+00  0.00000000000E+00  0.28954038738E+03  0.28954038738E+03  0.00000000000E+00 0.  1.
         21   -1    0    0  502  503 -0.00000000000E+00 -0.00000000000E+00 -0.68516521730E+03  0.68516521730E+03  0.00000000000E+00 0.  1.
         -6    2    1    2    0  503  0.10744923626E+03  0.77863397317E+02 -0.62538929172E+03  0.65773363093E+03  0.15457592326E+03 0.  0.
        -24    2    3    3    0    0  0.34906060534E+02 -0.30860256570E+01 -0.36243233353E+03  0.37315715038E+03  0.81615598239E+02 0.  0.
          6    2    1    2  501    0 -0.10744923626E+03 -0.77863397317E+02  0.22976446180E+03  0.31697197374E+03  0.17341129496E+03 0.  0.
         24    2    5    5    0    0 -0.66676868517E+02 -0.97118461779E+02  0.86926348959E+02  0.16711217273E+03  0.80575974825E+02 0.  0.
          5    1    5    5  501    0 -0.40772367743E+02  0.19255064462E+02  0.14283811284E+03  0.14985980101E+03  0.47000000000E+01 0. -1.
        -11    1    6    6    0    0 -0.47495194924E+02 -0.51349397524E+02  0.93804091346E+02  0.11701180163E+03  0.00000000000E+00 0.  1.
         12    1    6    6    0    0 -0.19181673593E+02 -0.45769064255E+02 -0.68777423875E+01  0.50100371106E+02  0.00000000000E+00 0. -1.
         -5    1    3    3    0  503  0.72543175727E+02  0.80949422974E+02 -0.26295695819E+03  0.28457648056E+03  0.47000000000E+01 0.  1.
         13    1    4    4    0    0 -0.83304912492E+01  0.32467747989E+01 -0.89157957267E+00  0.89851847606E+01  0.00000000000E+00 0. -1.
        -14    1    4    4    0    0  0.43236551783E+02 -0.63328004558E+01 -0.36154075395E+03  0.36417196562E+03  0.00000000000E+00 0.  1.
</event>
<event>
12    1  0.8416569E-002  0.1840266E+03  0.7818608E-02  0.1164343E+00
         21   -1    0    0  503  502  0.00000000000E+00  0.00000000000E+00  0.18755266383E+03  0.18755266383E+03  0.00000000000E+00 0.  1.
         21   -1    0    0  501  503 -0.00000000000E+00 -0.00000000000E+00 -0.24775660031E+03  0.24775660031E+03  0.00000000000E+00 0.  1.
          6    2    1    2  501    0  0.64580159444E+02  0.29709246863E+01 -0.14486879538E+03  0.23420668848E+03  0.17229736408E+03 0.  0.
         24    2    3    3    0    0  0.10127336269E+03  0.27591120393E+02 -0.13698462091E+03  0.18907581869E+03  0.77248397608E+02 0.  0.
         -6    2    1    2    0  502 -0.64580159444E+02 -0.29709246863E+01  0.84664858897E+02  0.20110257565E+03  0.17057163954E+03 0.  0.
        -24    2    5    5    0    0  0.24961719060E+02 -0.20960456858E+02  0.29205804095E+02  0.94148529291E+02  0.83357893475E+02 0.  0.
          5    1    3    3  501    0 -0.36693203247E+02 -0.24620195706E+02 -0.78841744706E+01  0.45130869792E+02  0.47000000000E+01 0. -1.
        -11    1    4    4    0    0  0.73579447192E+02  0.91024488755E+01 -0.35371334504E+02  0.82145729830E+02  0.00000000000E+00 0.  1.
         12    1    4    4    0    0  0.27693915499E+02  0.18488671517E+02 -0.10161328640E+03  0.10693008886E+03  0.00000000000E+00 0. -1.
         -5    1    5    5    0  502 -0.89541878505E+02  0.17989532171E+02  0.55459054802E+02  0.10695404636E+03  0.47000000000E+01 0.  1.
         11    1    6    6    0    0  0.30152598139E+02  0.10241899273E+02  0.47815458839E+02  0.57449053771E+02  0.00000000000E+00 0. -1.
        -12    1    6    6    0    0 -0.51908790785E+01 -0.31202356130E+02 -0.18609654744E+02  0.36699475519E+02  0.00000000000E+00 0.  1.
</event>
<event>
12    1  0.8416569E-002  0.1814984E+03  0.7818608E-02  0.1167189E+00
         21   -1    0    0  501  502  0.00000000000E+00  0.00000000000E+00  0.15135576346E+03  0.15135576346E+03  0.00000000000E+00 0.  1.
         21   -1    0    0  502  503 -0.00000000000E+00 -0.00000000000E+00 -0.27724881379E+03  0.27724881379E+03  0.00000000000E+00 0. -1.
         -6    2    1    2    0  503  0.37645389085E+02 -0.27532302801E+02 -0.16519729230E+03  0.24289922872E+03  0.17185658822E+03 0.  0.
        -24    2    3    3    0    0  0.78438132819E+02 -0.42267111662E+02 -0.16115685375E+03  0.19908624347E+03  0.75662087062E+02 0.  0.
          6    2    1    2  501    0 -0.37645389085E+02  0.27532302801E+02  0.39304241976E+02  0.18570534853E+03  0.17540367732E+03 0.  0.
         24    2    5    5    0    0 -0.13663895746E+02 -0.25481928795E+02  0.77249215868E+02  0.11608112991E+03  0.81678373069E+02 0.  0.
          5    1    5    5  501    0 -0.23981493338E+02  0.53014231596E+02 -0.37944973893E+02  0.69624218618E+02  0.47000000000E+01 0. -1.
        -13    1    6    6    0    0  0.16980477840E+02 -0.46234557216E+02  0.38676929628E+02  0.62624881589E+02  0.00000000000E+00 0.  1.
         14    1    6    6    0    0 -0.30644373586E+02  0.20752628421E+02  0.38572286241E+02  0.53456248323E+02  0.00000000000E+00 0. -1.
         -5    1    3    3    0  503 -0.40792743734E+02  0.14734808860E+02 -0.40404385549E+01  0.43812985258E+02  0.47000000000E+01 0.  1.
         13    1    4    4    0    0  0.21329684565E+01 -0.51334103560E+01 -0.84640247532E+02  0.84822596981E+02  0.00000000000E+00 0. -1.
        -14    1    4    4    0    0  0.76305164363E+02 -0.37133701306E+02 -0.76516606218E+02  0.11426364649E+03  0.00000000000E+00 0.  1.
</event>
<event>
12    1  0.8416569E-002  0.1807697E+03  0.7818608E-02  0.1167101E+00
         21   -1    0    0  503  502  0.00000000000E+00  0.00000000000E+00  0.39630839888E+02  0.39630839888E+02  0.00000000000E+00 0. -1.
         21   -1    0    0  501  503 -0.00000000000E+00 -0.00000000000E+00 -0.84696757257E+03  0.84696757257E+03  0.00000000000E+00 0. -1.
          6    2    1    2  501    0  0.28368322389E+02 -0.47914409595E+02 -0.33049401658E+03  0.37670143430E+03  0.17198000827E+03 0.  0.
         24    2    3    3    0    0  0.76785374987E+02 -0.38897415362E+02 -0.29028166786E+03  0.31294690382E+03  0.79141109273E+02 0.  0.
         -6    2    1    2    0  502 -0.28368322389E+02  0.47914409595E+02 -0.47684271610E+03  0.50989697816E+03  0.17180046588E+03 0.  0.
        -24    2    5    5    0    0 -0.80017548042E+02  0.58456116824E+02 -0.35203027886E+03  0.37432779069E+03  0.79850185088E+02 0.  0.
          5    1    3    3  501    0 -0.48417052598E+02 -0.90169942337E+01 -0.40212348716E+02  0.63754530479E+02  0.47000000000E+01 0. -1.
        -11    1    4    4    0    0  0.34629531988E+02 -0.56703378719E+02 -0.12643468660E+03  0.14282929538E+03  0.00000000000E+00 0.  1.
         12    1    4    4    0    0  0.42155842999E+02  0.17805963357E+02 -0.16384698127E+03  0.17011760844E+03  0.00000000000E+00 0. -1.
         -5    1    5    5    0  502  0.51649225653E+02 -0.10541707229E+02 -0.12481243724E+03  0.13556918747E+03  0.47000000000E+01 0.  1.
         11    1    6    6    0    0 -0.84957928093E+01  0.52319171607E+02 -0.11421994849E+03  0.12591930292E+03  0.00000000000E+00 0. -1.
        -12    1    6    6    0    0 -0.71521755232E+02  0.61369452172E+01 -0.23781033037E+03  0.24840848777E+03  0.00000000000E+00 0.  1.
</event>
<event>
12    1  0.8416569E-002  0.3540178E+03  0.7818608E-02  0.1061068E+00
         21   -1    0    0  501  502  0.00000000000E+00  0.00000000000E+00  0.14983867466E+03  0.14983867466E+03  0.00000000000E+00 0.  1.
         21   -1    0    0  502  503 -0.00000000000E+00 -0.00000000000E+00 -0.97217148229E+03  0.97217148229E+03  0.00000000000E+00 0. -1.
         -6    2    1    2    0  503 -0.29765283012E+03  0.84588392867E+02 -0.62285275737E+03  0.71643152315E+03  0.17197722672E+03 0.  0.
        -24    2    3    3    0    0 -0.18733393891E+03  0.24515933233E+02 -0.50625602515E+03  0.54497935452E+03  0.70797586103E+02 0.  0.
          6    2    1    2  501    0  0.29765283012E+03 -0.84588392867E+02 -0.19948005027E+03  0.40557863381E+03  0.17014503890E+03 0.  0.
         24    2    5    5    0    0  0.22419444735E+03  0.16753633125E+01 -0.15436154617E+03  0.28353217118E+03  0.79353941872E+02 0.  0.
          5    1    5    5  501    0  0.73458382764E+02 -0.86263756179E+02 -0.45118504095E+02  0.12204646263E+03  0.47000000000E+01 0. -1.
        -13    1    6    6    0    0  0.11149712219E+03  0.15089370732E+02 -0.32736360172E+02  0.11717920738E+03  0.00000000000E+00 0.  1.
         14    1    6    6    0    0  0.11269732516E+03 -0.13414007419E+02 -0.12162518600E+03  0.16635296379E+03  0.00000000000E+00 0. -1.
         -5    1    3    3    0  503 -0.11031889121E+03  0.60072459634E+02 -0.11659673221E+03  0.17145216863E+03  0.47000000000E+01 0.  1.
         13    1    4    4    0    0 -0.55968057849E+02 -0.24452763779E+01 -0.24490530667E+03  0.25123099354E+03  0.00000000000E+00 0. -1.
        -14    1    4    4    0    0 -0.13136588106E+03  0.26961209611E+02 -0.26135071848E+03  0.29374836098E+03  0.00000000000E+00 0.  1.
</event>
<event>
12    1  0.8416569E-002  0.2440291E+03  0.7818608E-02  0.1117325E+00
         21   -1    0    0  501  502  0.00000000000E+00  0.00000000000E+00  0.98430742244E+02  0.98430742244E+02  0.00000000000E+00 0. -1.
         21   -1    0    0  502  503 -0.00000000000E+00 -0.00000000000E+00 -0.65315706237E+03  0.65315706237E+03  0.00000000000E+00 0. -1.
         -6    2    1    2    0  503 -0.13968442283E+03 -0.10113606296E+03 -0.38176916894E+03  0.45248180757E+03  0.17103171232E+03 0.  0.
        -24    2    3    3    0    0 -0.15355745096E+03 -0.47102380899E+02 -0.23387703133E+03  0.29434808545E+03  0.78382425268E+02 0.  0.
          6    2    1    2  501    0  0.13968442283E+03  0.10113606296E+03 -0.17295715118E+03  0.29910599704E+03  0.17265566919E+03 0.  0.
         24    2    5    5    0    0  0.99044040240E+02  0.11019198192E+03 -0.18429675262E+03  0.25569716238E+03  0.97281812471E+02 0.  0.
          5    1    5    5  501    0  0.40640382592E+02 -0.90559189570E+01  0.11339601435E+02  0.43408834655E+02  0.47000000000E+01 0. -1.
        -11    1    6    6    0    0  0.31113166477E+02 -0.71295521981E+01 -0.75161563090E+02  0.81658558699E+02  0.00000000000E+00 0.  1.
         12    1    6    6    0    0  0.67930873763E+02  0.11732153412E+03 -0.10913518953E+03  0.17403860368E+03  0.00000000000E+00 0. -1.
         -5    1    3    3    0  503  0.13873028129E+02 -0.54033682065E+02 -0.14789213761E+03  0.15813372213E+03  0.47000000000E+01 0.  1.
         11    1    4    4    0    0 -0.99314668884E+02 -0.38425843151E+00 -0.17682489276E+03  0.20280678936E+03  0.00000000000E+00 0. -1.
        -12    1    4    4    0    0 -0.54242782077E+02 -0.46718122467E+02 -0.57052138569E+02  0.91541296089E+02  0.00000000000E+00 0.  1.
</event>
<event>
12    1  0.8416569E-002  0.1783867E+03  0.7818608E-02  0.1169914E+00
         21   -1    0    0  501  502  0.00000000000E+00  0.00000000000E+00  0.18351346106E+03  0.18351346106E+03  0.00000000000E+00 0.  1.
         21   -1    0    0  502  503 -0.00000000000E+00 -0.00000000000E+00 -0.22059657702E+03  0.22059657702E+03  0.00000000000E+00 0.  1.
         -6    2    1    2    0  503 -0.13495884942E+02 -0.42778586407E+02 -0.11399057107E+03  0.20985101767E+03  0.17038618770E+03 0.  0.
        -24    2    3    3    0    0  0.34805747822E+02 -0.67837180471E+02 -0.38526020559E+02  0.11669539923E+03  0.79499929592E+02 0.  0.
          6    2    1    2  501    0  0.13495884942E+02  0.42778586407E+02  0.76907455119E+02  0.19425902041E+03  0.17265475374E+03 0.  0.
         24    2    5    5    0    0  0.61358783225E+02  0.20973588063E+02  0.33157515602E+01  0.10368229151E+03  0.80834594629E+02 0.  0.
          5    1    5    5  501    0 -0.47862898284E+02  0.21804998345E+02  0.73591703559E+02  0.90576728897E+02  0.47000000000E+01 0. -1.
        -11    1    6    6    0    0  0.41756621196E+02  0.19226608259E+02 -0.36874616056E+02  0.58932293254E+02  0.00000000000E+00 0.  1.
         12    1    6    6    0    0  0.19602162029E+02  0.17469798040E+01  0.40190367616E+02  0.44749998255E+02  0.00000000000E+00 0. -1.
         -5    1    3    3    0  503 -0.48301632764E+02  0.25058594064E+02 -0.75464550513E+02  0.93155618447E+02  0.47000000000E+01 0.  1.
         11    1    4    4    0    0  0.28223044952E+02 -0.24715079104E+02  0.20926075145E+02  0.42956676110E+02  0.00000000000E+00 0. -1.
        -12    1    4    4    0    0  0.65827028701E+01 -0.43122101367E+02 -0.59452095704E+02  0.73738723117E+02  0.00000000000E+00 0.  1.
</event>
<event>
12    1  0.8416569E-002  0.2040595E+03  0.7818608E-02  0.1146480E+00
         21   -1    0    0  503  502  0.00000000000E+00  0.00000000000E+00  0.70304809936E+02  0.70304809936E+02  0.00000000000E+00 0.  1.
         21   -1    0    0  501  503 -0.00000000000E+00 -0.00000000000E+00 -0.59150761935E+03  0.59150761935E+03  0.00000000000E+00 0.  1.
          6    2    1    2  501    0 -0.58508046462E+02 -0.92294297034E+02 -0.24778634036E+03  0.32099588641E+03  0.17233357147E+03 0.  0.
         24    2    3    3    0    0 -0.10089055487E+03 -0.94179637082E+02 -0.22945032910E+03  0.27454019962E+03  0.60631341574E+02 0.  0.
         -6    2    1    2    0  502  0.58508046462E+02  0.92294297034E+02 -0.27341646905E+03  0.34081654288E+03  0.17163310165E+03 0.  0.
        -24    2    5    5    0    0  0.10444973528E+02  0.73656633764E+02 -0.26725219698E+03  0.28868680355E+03  0.79887023884E+02 0.  0.
          5    1    3    3  501    0  0.42382508406E+02  0.18853400478E+01 -0.18336011255E+02  0.46455686785E+02  0.47000000000E+01 0. -1.
        -13    1    4    4    0    0 -0.45548710360E+02 -0.52945805020E+02 -0.16874193202E+03  0.18262470509E+03  0.00000000000E+00 0.  1.
         14    1    4    4    0    0 -0.55341844508E+02 -0.41233832062E+02 -0.60708397080E+02  0.91915494537E+02  0.00000000000E+00 0. -1.
         -5    1    5    5    0  502  0.48063072934E+02  0.18637663270E+02 -0.61642720757E+01  0.52129739326E+02  0.47000000000E+01 0.  1.
         11    1    6    6    0    0 -0.61175764616E+01 -0.13587273332E+02 -0.14512340902E+02  0.20800162903E+02  0.00000000000E+00 0. -1.
        -12    1    6    6    0    0  0.16562549990E+02  0.87243907096E+02 -0.25273985608E+03  0.26788664065E+03  0.00000000000E+00 0.  1.
</event>
<event>
12    1  0.8416569E-002  0.1739688E+03  0.7818608E-02  0.1173807E+00
         21   -1    0    0  503  502  0.00000000000E+00  0.00000000000E+00  0.23875688474E+03  0.23875688474E+03  0.00000000000E+00 0. -1.
         21   -1    0    0  501  503 -0.00000000000E+00 -0.00000000000E+00 -0.15731048084E+03  0.15731048084E+03  0.00000000000E+00 0. -1.
          6    2    1    2  501    0 -0.22829030597E+02 -0.30151062644E+01 -0.46680058238E+02  0.18012265553E+03  0.17243806916E+03 0.  0.
         24    2    3    3    0    0  0.24826980098E+02  0.51484719244E+02 -0.44679682345E+02  0.10754567682E+03  0.79389818813E+02 0.  0.
         -6    2    1    2    0  502  0.22829030597E+02  0.30151062644E+01  0.12812646214E+03  0.21594471005E+03  0.17229472422E+03 0.  0.
        -24    2    5    5    0    0  0.57178886527E+02 -0.16882909019E+02  0.20760220605E+02  0.10137838238E+03  0.79322959933E+02 0.  0.
          5    1    3    3  501    0 -0.47656010696E+02 -0.54499825509E+02 -0.20003758922E+01  0.72576978716E+02  0.47000000000E+01 0. -1.
        -11    1    4    4    0    0  0.12913632299E+02 -0.15978439230E+02 -0.31768508278E+02  0.37832664955E+02  0.00000000000E+00 0.  1.
         12    1    4    4    0    0  0.11913347799E+02  0.67463158474E+02 -0.12911174067E+02  0.69713011862E+02  0.00000000000E+00 0. -1.
         -5    1    5    5    0  502 -0.34349855930E+02  0.19898015283E+02  0.10736624153E+03  0.11456632767E+03  0.47000000000E+01 0.  1.
         13    1    6    6    0    0  0.50536681043E+02  0.18479540671E+02 -0.91589743586E+01  0.54583297496E+02  0.00000000000E+00 0. -1.
        -14    1    6    6    0    0  0.66422054842E+01 -0.35362449690E+02  0.29919194963E+02  0.46795084881E+02  0.00000000000E+00 0.  1.
</event>
<event>
12    1  0.8416569E-002  0.2193121E+03  0.7818608E-02  0.1134425E+00
         21   -1    0    0  501  502  0.00000000000E+00  0.00000000000E+00  0.14065232466E+03  0.14065232466E+03  0.00000000000E+00 0.  1.
         21   -1    0    0  502  503 -0.00000000000E+00 -0.00000000000E+00 -0.35181529518E+03  0.35181529518E+03  0.00000000000E+00 0. -1.
         -6    2    1    2    0  503  0.50986388692E+02  0.12488532115E+03 -0.14731844014E+03  0.26419790369E+03  0.17292152626E+03 0.  0.
        -24    2    3    3    0    0  0.98932730601E+02  0.12561745502E+03 -0.11021099381E+03  0.20338310043E+03  0.60421785776E+02 0.  0.
          6    2    1    2  501    0 -0.50986388692E+02 -0.12488532115E+03 -0.63844530387E+02  0.22826971615E+03  0.17272806367E+03 0.  0.
         24    2    5    5    0    0 -0.10023586038E+03 -0.81924677029E+02 -0.54565021795E+02  0.16209323479E+03  0.80857867579E+02 0.  0.
          5    1    5    5  501    0  0.49249471689E+02 -0.42960644116E+02 -0.92795085921E+01  0.66176481353E+02  0.47000000000E+01 0. -1.
        -13    1    6    6    0    0 -0.84910686934E+02 -0.64851743658E+02 -0.75665565577E+02  0.13092307369E+03  0.00000000000E+00 0.  1.
         14    1    6    6    0    0 -0.15325173446E+02 -0.17072933370E+02  0.21100543782E+02  0.31170161099E+02  0.00000000000E+00 0. -1.
         -5    1    3    3    0  503 -0.47946341909E+02 -0.73213387485E+00 -0.37107446329E+02  0.60814803260E+02  0.47000000000E+01 0.  1.
         13    1    4    4    0    0  0.25700879689E+02  0.74691609966E+02 -0.33747302962E+02  0.85896753567E+02  0.00000000000E+00 0. -1.
        -14    1    4    4    0    0  0.73231850912E+02  0.50925845054E+02 -0.76463690847E+02  0.11748634687E+03  0.00000000000E+00 0.  1.
</event>
<event>
12    1  0.8416569E-002  0.2081596E+03  0.7818608E-02  0.1144330E+00
         21   -1    0    0  503  502  0.00000000000E+00  0.00000000000E+00  0.15066496355E+03  0.15066496355E+03  0.00000000000E+00 0.  1.
         21   -1    0    0  501  503 -0.00000000000E+00 -0.00000000000E+00 -0.38856305228E+03  0.38856305228E+03  0.00000000000E+00 0. -1.
          6    2    1    2  501    0  0.11211620403E+01  0.10477328194E+03 -0.26352791207E+03  0.33582342655E+03  0.17986582712E+03 0.  0.
         24    2    3    3    0    0  0.59254580867E+02  0.32096427293E+02 -0.89976399158E+02  0.13883703814E+03  0.81478124391E+02 0.  0.
         -6    2    1    2    0  502 -0.11211620403E+01 -0.10477328194E+03  0.25629823337E+02  0.20340458928E+03  0.17244663372E+03 0.  0.
        -24    2    5    5    0    0  0.15454779081E+02 -0.11594078455E+03 -0.28938676288E+02  0.14510119238E+03  0.80844253519E+02 0.  0.
          5    1    3    3  501    0 -0.58133418827E+02  0.72676854647E+02 -0.17355151291E+03  0.19698638841E+03  0.47000000000E+01 0. -1.
        -11    1    4    4    0    0  0.22340082764E+02 -0.25405518782E+02 -0.13889865480E+02  0.36571136782E+02  0.00000000000E+00 0.  1.
         12    1    4    4    0    0  0.36914498103E+02  0.57501946075E+02 -0.76086533678E+02  0.10226590135E+03  0.00000000000E+00 0. -1.
         -5    1    5    5    0  502 -0.16575941122E+02  0.11167502607E+02  0.54568499625E+02  0.58303396898E+02  0.47000000000E+01 0.  1.
         13    1    6    6    0    0  0.13748098672E+02 -0.78135558480E+01  0.20752008069E+02  0.26090375830E+02  0.00000000000E+00 0. -1.
        -14    1    6    6    0    0  0.17066804097E+01 -0.10812722870E+03 -0.49690684356E+02  0.11901081655E+03  0.00000000000E+00 0.  1.
</event>
<event>
12    1  0.8416569E-002  0.1829917E+03  0.7818608E-02  0.1165891E+00
         21   -1    0    0  501  502  0.00000000000E+00  0.00000000000E+00  0.76183483235E+03  0.76183483235E+03  0.00000000000E+00 0. -1.
         21   -1    0    0  502  503 -0.00000000000E+00 -0.00000000000E+00 -0.73805603349E+02  0.73805603349E+02  0.00000000000E+00 0. -1.
         -6    2    1    2    0  503  0.60958183258E+01 -0.49818028449E+02  0.71910963126E+02  0.19292146607E+03  0.17183861759E+03 0.  0.
        -24    2    3    3    0    0 -0.86326795874E+01  0.31992604933E+02  0.10122832189E+01  0.83565985197E+02  0.76708534319E+02 0.  0.
          6    2    1    2  501    0 -0.60958183258E+01  0.49818028449E+02  0.61611826587E+03  0.64271896962E+03  0.17597432031E+03 0.  0.
         24    2    5    5    0    0  0.65619049089E+02  0.32225781943E+02  0.34140729586E+03  0.35821814995E+03  0.80105809191E+02 0.  0.
          5    1    5    5  501    0 -0.71714867414E+02  0.17592246507E+02  0.27471097002E+03  0.28450081967E+03  0.47000000000E+01 0. -1.
        -13    1    6    6    0    0  0.21997368407E+01  0.43897290260E+02  0.13568758576E+03  0.14262865022E+03  0.00000000000E+00 0.  1.
         14    1    6    6    0    0  0.63419312248E+02 -0.11671508317E+02  0.20571971010E+03  0.21558949974E+03  0.00000000000E+00 0. -1.
         -5    1    3    3    0  503  0.14728497913E+02 -0.81810633383E+02  0.70898679907E+02  0.10935548088E+03  0.47000000000E+01 0.  1.
         13    1    4    4    0    0  0.32492855802E+02  0.26652397083E+02 -0.11207620718E+01  0.42040362226E+02  0.00000000000E+00 0. -1.
        -14    1    4    4    0    0 -0.41125535390E+02  0.53402078506E+01  0.21330452907E+01  0.41525622972E+02  0.00000000000E+00 0.  1.
</event>
<event>
12    1  0.8416569E-002  0.1746094E+03  0.7818608E-02  0.1174159E+00
         21   -1    0    0  503  502  0.00000000000E+00  0.00000000000E+00  0.99059317828E+02  0.99059317828E+02  0.00000000000E+00 0. -1.
         21   -1    0    0  501  503 -0.00000000000E+00 -0.00000000000E+00 -0.42511828016E+03  0.42511828016E+03  0.00000000000E+00 0. -1.
          6    2    1    2  501    0 -0.15691148058E+02 -0.21865823494E+02 -0.30347073928E+03  0.34811316652E+03  0.16841603469E+03 0.  0.
         24    2    3    3    0    0 -0.56572507762E+02 -0.58356996790E+02 -0.20281551591E+03  0.23341157415E+03  0.82102629346E+02 0.  0.
         -6    2    1    2    0  502  0.15691148058E+02  0.21865823494E+02 -0.22588223052E+02  0.17606443147E+03  0.17252283862E+03 0.  0.
        -24    2    5    5    0    0  0.24637431996E+02  0.66800215224E+02  0.24391667010E+02  0.11027434387E+03  0.80599042716E+02 0.  0.
          5    1    3    3  501    0  0.40881359703E+02  0.36491173296E+02 -0.10065522337E+03  0.11470159237E+03  0.47000000000E+01 0. -1.
        -11    1    4    4    0    0 -0.41501458861E+02  0.10952403917E+02 -0.96403571510E+02  0.10552712845E+03  0.00000000000E+00 0.  1.
         12    1    4    4    0    0 -0.15071048900E+02 -0.69309400707E+02 -0.10641194440E+03  0.12788444570E+03  0.00000000000E+00 0. -1.
         -5    1    5    5    0  502 -0.89462839377E+01 -0.44934391730E+02 -0.46979890062E+02  0.65790087602E+02  0.47000000000E+01 0.  1.
         13    1    6    6    0    0  0.32943372695E+02  0.14034977627E+02  0.40905818595E+02  0.54364808437E+02  0.00000000000E+00 0. -1.
        -14    1    6    6    0    0 -0.83059406986E+01  0.52765237597E+02 -0.16514151585E+02  0.55909535431E+02  0.00000000000E+00 0.  1.
</event>
<event>
12    1  0.8416569E-002  0.1925349E+03  0.7818608E-02  0.1156396E+00
         21   -1    0    0  503  502  0.00000000000E+00  0.00000000000E+00  0.54899665052E+02  0.54899665052E+02  0.00000000000E+00 0.  1.
         21   -1    0    0  501  503 -0.00000000000E+00 -0.00000000000E+00 -0.13087551802E+04  0.13087551802E+04  0.00000000000E+00 0. -1.
          6    2    1    2  501    0  0.63674993573E+02 -0.56750146509E+02 -0.11032507136E+04  0.11199249169E+04  0.17261111953E+03 0.  0.
         24    2    3    3    0    0  0.24055676037E+02 -0.17867704259E+02 -0.98969517119E+03  0.99343979588E+03  0.80797065272E+02 0.  0.
         -6    2    1    2    0  502 -0.63674993573E+02  0.56750146509E+02 -0.15060480153E+03  0.24372992830E+03  0.17160241189E+03 0.  0.
        -24    2    5    5    0    0 -0.45265968493E+02 -0.34740585657E+02 -0.82791376582E+02  0.12827345650E+03  0.79647670464E+02 0.  0.
          5    1    3    3  501    0  0.39619317536E+02 -0.38882442250E+02 -0.11355554242E+03  0.12648512106E+03  0.47000000000E+01 0. -1.
        -11    1    4    4    0    0 -0.11018953588E+02 -0.27165557354E+02 -0.14333373182E+03  0.14630086645E+03  0.00000000000E+00 0.  1.
         12    1    4    4    0    0  0.35074629625E+02  0.92978530950E+01 -0.84636143936E+03  0.84713892943E+03  0.00000000000E+00 0. -1.
         -5    1    5    5    0  502 -0.18409025080E+02  0.91490732167E+02 -0.67813424951E+02  0.11545647180E+03  0.47000000000E+01 0.  1.
         13    1    6    6    0    0  0.19517011046E+02  0.52833233840E+01 -0.86492500262E+01  0.21991742817E+02  0.00000000000E+00 0. -1.
        -14    1    6    6    0    0 -0.64782979539E+02 -0.40023909041E+02 -0.74142126556E+02  0.10628171368E+03  0.00000000000E+00 0.  1.
</event>
<event>
12    1  0.8416569E-002  0.1821176E+03  0.7818608E-02  0.1165821E+00
         21   -1    0    0  501  502  0.00000000000E+00  0.00000000000E+00  0.66751014226E+02  0.66751014226E+02  0.00000000000E+00 0.  1.
         21   -1    0    0  502  503 -0.00000000000E+00 -0.00000000000E+00 -0.50695565987E+03  0.50695565987E+03  0.00000000000E+00 0. -1.
         -6    2    1    2    0  503 -0.40144095983E+01  0.58808059379E+02 -0.26160405123E+03  0.31862825039E+03  0.17208363952E+03 0.  0.
        -24    2    3    3    0    0  0.53556708443E+02  0.38559180162E+02 -0.22382792413E+03  0.24670067208E+03  0.80044678721E+02 0.  0.
          6    2    1    2  501    0  0.40144095983E+01 -0.58808059379E+02 -0.17860059441E+03  0.25507842371E+03  0.17231461512E+03 0.  0.
         24    2    5    5    0    0 -0.50221356128E+02 -0.29850525191E+02 -0.55972914181E+02  0.11782065515E+03  0.85647540498E+02 0.  0.
          5    1    5    5  501    0  0.54235765727E+02 -0.28957534188E+02 -0.12262768023E+03  0.13725776855E+03  0.47000000000E+01 0. -1.
        -11    1    6    6    0    0 -0.60665219957E+02 -0.73373208231E+01 -0.52261901609E+01  0.61330402354E+02  0.00000000000E+00 0.  1.
         12    1    6    6    0    0  0.10443863829E+02 -0.22513204368E+02 -0.50746724020E+02  0.56490252800E+02  0.00000000000E+00 0. -1.
         -5    1    3    3    0  503 -0.57571118041E+02  0.20248879217E+02 -0.37776127106E+02  0.71927578307E+02  0.47000000000E+01 0.  1.
         11    1    4    4    0    0  0.72297907231E+01  0.40217968889E+02 -0.17362466343E+03  0.17836837905E+03  0.00000000000E+00 0. -1.
        -12    1    4    4    0    0  0.46326917720E+02 -0.16587887269E+01 -0.50203260697E+02  0.68332293025E+02  0.00000000000E+00 0.  1.
</event>
<event>
12    1  0.8416569E-002  0.5119896E+03  0.7818608E-02  0.1010725E+00
         21   -1    0    0  501  502  0.00000000000E+00  0.00000000000E+00  0.26523109735E+03  0.26523109735E+03  0.00000000000E+00 0.  1.
         21   -1    0    0  502  503 -0.00000000000E+00 -0.00000000000E+00 -0.18502509205E+04  0.18502509205E+04  0.00000000000E+00 0. -1.
         -6    2    1    2    0  503  0.27833608543E+01 -0.48195057632E+03 -0.15149982062E+04  0.15991725709E+04  0.17276933093E+03 0.  0.
        -24    2    3    3    0    0 -0.16605571167E+02 -0.42857962354E+03 -0.14421403896E+04  0.15066807295E+04  0.79760132434E+02 0.  0.
          6    2    1    2  501    0 -0.27833608543E+01  0.48195057632E+03 -0.70021616932E+02  0.51630944689E+03  0.17143019863E+03 0.  0.
         24    2    5    5    0    0  0.39948664776E+02  0.42348052814E+03 -0.32873375399E+02  0.43478120395E+03  0.83799659704E+02 0.  0.
          5    1    5    5  501    0 -0.42732025630E+02  0.58470048175E+02 -0.37148241533E+02  0.81528242941E+02  0.47000000000E+01 0. -1.
        -11    1    6    6    0    0  0.59065339223E+02  0.28425085528E+03  0.55951387416E+00  0.29032322690E+03  0.00000000000E+00 0.  1.
         12    1    6    6    0    0 -0.19116674446E+02  0.13922967287E+03 -0.33432889273E+02  0.14445797705E+03  0.00000000000E+00 0. -1.
         -5    1    3    3    0  503  0.19388932021E+02 -0.53370952782E+02 -0.72857816620E+02  0.92491841415E+02  0.47000000000E+01 0.  1.
         11    1    4    4    0    0  0.23499496066E+02 -0.30890722831E+03 -0.10016364488E+04  0.10484519434E+04  0.00000000000E+00 0. -1.
        -12    1    4    4    0    0 -0.40105067233E+02 -0.11967239523E+03 -0.44050394075E+03  0.45822878610E+03  0.00000000000E+00 0.  1.
</event>
<event>
12    1  0.8416569E-002  0.1833375E+03  0.7818608E-02  0.1169293E+00
         21   -1    0    0  501  502  0.00000000000E+00  0.00000000000E+00  0.69963866200E+03  0.69963866200E+03  0.00000000000E+00 0.  1.
         21   -1    0    0  502  503 -0.00000000000E+00 -0.00000000000E+00 -0.16150091191E+03  0.16150091191E+03  0.00000000000E+00 0.  1.
         -6    2    1    2    0  503  0.54750595459E+02  0.40195714870E+01 -0.10307539389E+03  0.19423109564E+03  0.15520115021E+03 0.  0.
        -24    2    3    3    0    0 -0.86628745094E+01  0.64439585317E+01 -0.10254573851E+03  0.13059528527E+03  0.80143184685E+02 0.  0.
          6    2    1    2  501    0 -0.54750595459E+02 -0.40195714870E+01  0.64121314399E+03  0.66690847828E+03  0.17492523466E+03 0.  0.
         24    2    5    5    0    0 -0.88171402412E+02  0.40120165058E+02  0.48684750117E+03  0.50284718375E+03  0.80317974111E+02 0.  0.
          5    1    5    5  501    0  0.33420806953E+02 -0.44139736545E+02  0.15436564282E+03  0.16406129453E+03  0.47000000000E+01 0. -1.
        -13    1    6    6    0    0  0.16921564507E+01 -0.89786079989E+01  0.16164874243E+03  0.16190674700E+03  0.00000000000E+00 0.  1.
         14    1    6    6    0    0 -0.89863558863E+02  0.49098773057E+02  0.32519875874E+03  0.34094043675E+03  0.00000000000E+00 0. -1.
         -5    1    3    3    0  503  0.63413469968E+02 -0.24243870448E+01 -0.52965538014E+00  0.63635810364E+02  0.47000000000E+01 0.  1.
         13    1    4    4    0    0 -0.15448063008E+02  0.54546855641E+01  0.90991117694E+01  0.18740066176E+02  0.00000000000E+00 0. -1.
        -14    1    4    4    0    0  0.67851884987E+01  0.98927296764E+00 -0.11164485028E+03  0.11185521909E+03  0.00000000000E+00 0.  1.
</event>
<event>
12    1  0.8416569E-002  0.2033981E+03  0.7818608E-02  0.1148694E+00
         21   -1    0    0  503  502  0.00000000000E+00  0.00000000000E+00  0.11460805986E+03  0.11460805986E+03  0.00000000000E+00 0. -1.
         21   -1    0    0  501  503 -0.00000000000E+00 -0.00000000000E+00 -0.38183094915E+03  0.38183094915E+03  0.00000000000E+00 0. -1.
          6    2    1    2  501    0  0.52853314074E+02  0.75381476887E+02 -0.20696939595E+03  0.28430400809E+03  0.17180395307E+03 0.  0.
         24    2    3    3    0    0  0.61155555601E+02  0.89896273320E+02 -0.80170092744E+02  0.15632057235E+03  0.78660890100E+02 0.  0.
         -6    2    1    2    0  502 -0.52853314074E+02 -0.75381476887E+02 -0.60253493337E+02  0.21213500092E+03  0.18136960961E+03 0.  0.
        -24    2    5    5    0    0 -0.74283701198E+02 -0.10956929452E+03 -0.71127395655E+02  0.17008265118E+03  0.79658667157E+02 0.  0.
          5    1    3    3  501    0 -0.83022415268E+01 -0.14514796433E+02 -0.12679930321E+03  0.12798343574E+03  0.47000000000E+01 0. -1.
        -11    1    4    4    0    0 -0.92515508479E+00 -0.59670085322E+01  0.94033665908E+01  0.11175169171E+02  0.00000000000E+00 0.  1.
         12    1    4    4    0    0  0.62080710685E+02  0.95863281852E+02 -0.89573459335E+02  0.14514540318E+03  0.00000000000E+00 0. -1.
         -5    1    5    5    0  502  0.21430387124E+02  0.34187817638E+02  0.10873902318E+02  0.42052349741E+02  0.47000000000E+01 0.  1.
         13    1    6    6    0    0 -0.87656802242E+02 -0.96595732579E+02 -0.44982111982E+02  0.13797768273E+03  0.00000000000E+00 0. -1.
        -14    1    6    6    0    0  0.13373101045E+02 -0.12973561945E+02 -0.26145283673E+02  0.32104968454E+02  0.00000000000E+00 0.  1.
</event>
<event>
12    1  0.8416569E-002  0.1909759E+03  0.7818608E-02  0.1159674E+00
         21   -1    0    0  503  502  0.00000000000E+00  0.00000000000E+00  0.11596208370E+03  0.11596208370E+03  0.00000000000E+00 0.  1.
         21   -1    0    0  501  503 -0.00000000000E+00 -0.00000000000E+00 -0.33286758844E+03  0.33286758844E+03  0.00000000000E+00 0. -1.
          6    2    1    2  501    0 -0.44819296189E+02 -0.39525503626E+02 -0.18162767650E+03  0.26355339070E+03  0.18138561722E+03 0.  0.
         24    2    3    3    0    0  0.10978146765E+02 -0.15318300674E+02 -0.13153684150E+02  0.84374933818E+02  0.81184604502E+02 0.  0.
         -6    2    1    2    0  502  0.44819296189E+02  0.39525503626E+02 -0.35277828245E+02  0.18527628143E+03  0.17178981503E+03 0.  0.
        -24    2    5    5    0    0  0.50621833275E+02 -0.75498062521E+01  0.34859326593E+02  0.10047613564E+03  0.79124658639E+02 0.  0.
          5    1    3    3  501    0 -0.55797442954E+02 -0.24207202952E+02 -0.16847399235E+03  0.17917845689E+03  0.47000000000E+01 0. -1.
        -13    1    4    4    0    0  0.46353090831E+02 -0.83135202040E+01 -0.10258493266E+02  0.48197098790E+02  0.00000000000E+00 0.  1.
         14    1    4    4    0    0 -0.35374944065E+02 -0.70047804698E+01 -0.28951908833E+01  0.36177835028E+02  0.00000000000E+00 0. -1.
         -5    1    5    5    0  502 -0.58025370859E+01  0.47075309878E+02 -0.70137154838E+02  0.84800145787E+02  0.47000000000E+01 0.  1.
         13    1    6    6    0    0  0.58110914317E+02 -0.21419051123E+02 -0.31305459055E+00  0.61933449096E+02  0.00000000000E+00 0. -1.
        -14    1    6    6    0    0 -0.74890810422E+01  0.13869244871E+02  0.35172381183E+02  0.38542686547E+02  0.00000000000E+00 0.  1.
</event>
<event>
12    1  0.8416569E-002  0.1765141E+03  0.7818608E-02  0.1172160E+00
         21   -1    0    0  501  502  0.00000000000E+00  0.00000000000E+00  0.33713777431E+03  0.33713777431E+03  0.00000000000E+00 0.  1.
         21   -1    0    0  502  503 -0.00000000000E+00 -0.00000000000E+00 -0.11982995567E+03  0.11982995567E+03  0.00000000000E+00 0.  1.
         -6    2    1    2    0  503 -0.11061423032E+02 -0.10317959944E+02 -0.35631178781E+01  0.17655007362E+03  0.17586476995E+03 0.  0.
        -24    2    3    3    0    0 -0.71735836931E+02  0.22359315466E+02 -0.29611728909E+01  0.10747300674E+03  0.76783522615E+02 0.  0.
          6    2    1    2  501    0  0.11061423032E+02  0.10317959944E+02  0.22087093652E+03  0.28041765636E+03  0.17210832642E+03 0.  0.
         24    2    5    5    0    0  0.20144850881E+02 -0.39150806567E+02  0.20978628803E+03  0.22870086070E+03  0.79719485490E+02 0.  0.
          5    1    5    5  501    0 -0.90834278491E+01  0.49468766510E+02  0.11084648489E+02  0.51716795663E+02  0.47000000000E+01 0. -1.
        -11    1    6    6    0    0  0.20529224440E+02 -0.40780619049E+02  0.45675110032E+02  0.64581139836E+02  0.00000000000E+00 0.  1.
         12    1    6    6    0    0 -0.38437355946E+00  0.16298124820E+01  0.16411117800E+03  0.16411972087E+03  0.00000000000E+00 0. -1.
         -5    1    3    3    0  503  0.60674413900E+02 -0.32677275409E+02 -0.60194498719E+00  0.69077066875E+02  0.47000000000E+01 0.  1.
         11    1    4    4    0    0 -0.34296858039E+02 -0.25628395338E+02  0.12638665412E+02  0.44641068338E+02  0.00000000000E+00 0. -1.
        -12    1    4    4    0    0 -0.37438978892E+02  0.47987710803E+02 -0.15599838303E+02  0.62831938405E+02  0.00000000000E+00 0.  1.
</event>
<event>
12    1  0.8416569E-002  0.1976686E+03  0.7818608E-02  0.1151814E+00
         21   -1    0    0  501  502  0.00000000000E+00  0.00000000000E+00  0.71693516039E+02  0.71693516039E+02  0.00000000000E+00 0. -1.
         21   -1    0    0  502  503 -0.00000000000E+00 -0.00000000000E+00 -0.56998114163E+03  0.56998114163E+03  0.00000000000E+00 0. -1.
         -6    2    1    2    0  503 -0.83689964086E+02 -0.51979485615E+02 -0.31816106395E+03  0.37456554747E+03  0.17136805341E+03 0.  0.
        -24    2    3    3    0    0  0.21452849407E+02 -0.37121403478E+02 -0.14669705608E+03  0.17282866480E+03  0.80693852134E+02 0.  0.
          6    2    1    2  501    0  0.83689964086E+02  0.51979485615E+02 -0.18012656165E+03  0.26710911020E+03  0.17086784814E+03 0.  0.
         24    2    5    5    0    0  0.69370211807E+02 -0.29556888877E+02 -0.12794673559E+03  0.16913942143E+03  0.80944059491E+02 0.  0.
          5    1    5    5  501    0  0.14319752279E+02  0.81536374492E+02 -0.52179826058E+02  0.97969688772E+02  0.47000000000E+01 0.  1.
        -11    1    6    6    0    0  0.33822810688E+02 -0.48610648549E+02 -0.11014070958E+03  0.12505180359E+03  0.00000000000E+00 0.  1.
         12    1    6    6    0    0  0.35547401120E+02  0.19053759672E+02 -0.17806026007E+02  0.44087617833E+02  0.00000000000E+00 0. -1.
         -5    1    3    3    0  503 -0.10514281349E+03 -0.14858082137E+02 -0.17146400787E+03  0.20173688267E+03  0.47000000000E+01 0.  1.
         11    1    4    4    0    0 -0.24161419401E+01 -0.53385776122E+02 -0.12722899856E+03  0.13799672790E+03  0.00000000000E+00 0. -1.
        -12    1    4    4    0    0  0.23868991348E+02  0.16264372644E+02 -0.19468057511E+02  0.34831936907E+02  0.00000000000E+00 0.  1.
</event>
<event>
12    1  0.8416569E-002  0.2524296E+03  0.7818608E-02  0.1111988E+00
         21   -1    0    0  501  502  0.00000000000E+00  0.00000000000E+00  0.22088024626E+03  0.22088024626E+03  0.00000000000E+00 0.  1.
         21   -1    0    0  502  503 -0.00000000000E+00 -0.00000000000E+00 -0.36410515147E+03  0.36410515147E+03  0.00000000000E+00 0. -1.
         -6    2    1    2    0  503  0.14794485584E+03 -0.11016729446E+03  0.62871475341E+02  0.26014135784E+03  0.17232582660E+03 0.  0.
        -24    2    3    3    0    0  0.97841868029E+02 -0.10105971434E+03 -0.16684927663E+02  0.16556562807E+03  0.85717520887E+02 0.  0.
          6    2    1    2  501    0 -0.14794485584E+03  0.11016729446E+03 -0.20609638055E+03  0.32484403989E+03  0.17036261045E+03 0.  0.
         24    2    5    5    0    0 -0.98531717063E+01  0.55792776603E+02 -0.11146992696E+03  0.14876974552E+03  0.80603806685E+02 0.  0.
          5    1    5    5  501    0 -0.13809168413E+03  0.54374517857E+02 -0.94626453589E+02  0.17607429437E+03  0.47000000000E+01 0. -1.
        -11    1    6    6    0    0  0.16973210905E+02  0.14094153008E+02  0.46146867087E+01  0.22539529074E+02  0.00000000000E+00 0.  1.
         12    1    6    6    0    0 -0.26826382612E+02  0.41698623595E+02 -0.11608461367E+03  0.12623021645E+03  0.00000000000E+00 0. -1.
         -5    1    3    3    0  503  0.50102987807E+02 -0.91075801243E+01  0.79556403004E+02  0.94575729772E+02  0.47000000000E+01 0.  1.
         13    1    4    4    0    0  0.19450724983E+02 -0.27710845538E+01 -0.33387940138E+02  0.38739697451E+02  0.00000000000E+00 0. -1.
        -14    1    4    4    0    0  0.78391143046E+02 -0.98288629781E+02  0.16703012474E+02  0.12682593062E+03  0.00000000000E+00 0.  1.
</event>
<event>
12    1  0.8416569E-002  0.3048641E+03  0.7818608E-02  0.1082880E+00
         21   -1    0    0  503  502  0.00000000000E+00  0.00000000000E+00  0.41714909598E+02  0.41714909598E+02  0.00000000000E+00 0.  1.
         21   -1    0    0  501  503 -0.00000000000E+00 -0.00000000000E+00 -0.25319723693E+04  0.25319723693E+04  0.00000000000E+00 0.  1.
          6    2    1    2  501    0  0.23286058329E+03 -0.94235123955E+02 -0.79658762523E+03  0.85279807955E+03  0.17207094461E+03 0.  0.
         24    2    3    3    0    0  0.19257830617E+03 -0.12649654830E+03 -0.57283308204E+03  0.62312081262E+03  0.83988252096E+02 0.  0.
         -6    2    1    2    0  502 -0.23286058329E+03  0.94235123955E+02 -0.16936698345E+04  0.17208891994E+04  0.17273626830E+03 0.  0.
        -24    2    5    5    0    0 -0.13153652066E+03  0.20806588622E+02 -0.12591730288E+04  0.12687079529E+04  0.79802148967E+02 0.  0.
          5    1    3    3  501    0  0.40282277119E+02  0.32261424348E+02 -0.22375454319E+03  0.22967726694E+03  0.47000000000E+01 0. -1.
        -13    1    4    4    0    0  0.88874975289E+02 -0.10507114624E+03 -0.35980488051E+03  0.38522494603E+03  0.00000000000E+00 0.  1.
         14    1    4    4    0    0  0.10370333089E+03 -0.21425402065E+02 -0.21302820153E+03  0.23789586658E+03  0.00000000000E+00 0. -1.
         -5    1    5    5    0  502 -0.10132406264E+03  0.73428535333E+02 -0.43449680571E+03  0.45218124645E+03  0.47000000000E+01 0.  1.
         11    1    6    6    0    0  0.62553119688E+01 -0.89499783496E+01 -0.18537209148E+03  0.18569341222E+03  0.00000000000E+00 0. -1.
        -12    1    6    6    0    0 -0.13779183263E+03  0.29756566972E+02 -0.10738009373E+04  0.10830145407E+04  0.00000000000E+00 0.  1.
</event>
<event>
12    1  0.8416569E-002  0.2226299E+03  0.7818608E-02  0.1131987E+00
         21   -1    0    0  503  502  0.00000000000E+00  0.00000000000E+00  0.18129889565E+03  0.18129889565E+03  0.00000000000E+00 0.  1.
         21   -1    0    0  501  503 -0.00000000000E+00 -0.00000000000E+00 -0.30699266965E+03  0.30699266965E+03  0.00000000000E+00 0. -1.
          6    2    1    2  501    0 -0.11182395805E+02 -0.14068225212E+03 -0.14399228911E+03  0.26491090791E+03  0.17183558353E+03 0.  0.
         24    2    3    3    0    0 -0.67006354995E+02 -0.97239007766E+02 -0.12426803458E+03  0.19132581352E+03  0.84957320221E+02 0.  0.
         -6    2    1    2    0  502  0.11182395805E+02  0.14068225212E+03  0.18298515110E+02  0.22338065740E+03  0.17218461142E+03 0.  0.
        -24    2    5    5    0    0  0.50647387788E+02  0.10229316189E+03 -0.37401356334E+02  0.14492191971E+03  0.81082997592E+02 0.  0.
          5    1    3    3  501    0  0.55823959190E+02 -0.43443244350E+02 -0.19724254531E+02  0.73585094388E+02  0.47000000000E+01 0. -1.
        -11    1    4    4    0    0 -0.57335756551E+02 -0.53037680887E+02 -0.24631653689E+02  0.81896904316E+02  0.00000000000E+00 0.  1.
         12    1    4    4    0    0 -0.96705984446E+01 -0.44201326879E+02 -0.99636380892E+02  0.10942890920E+03  0.00000000000E+00 0. -1.
         -5    1    5    5    0  502 -0.39464991983E+02  0.38389090224E+02  0.55699871445E+02  0.78458737687E+02  0.47000000000E+01 0.  1.
         13    1    6    6    0    0  0.56597102599E+02  0.45062123061E+02  0.63710863345E+01  0.72625186391E+02  0.00000000000E+00 0. -1.
        -14    1    6    6    0    0 -0.59497148103E+01  0.57231038830E+02 -0.43772442669E+02  0.72296733323E+02  0.00000000000E+00 0.  1.
</event>
<event>
12    1  0.8416569E-002  0.1765389E+03  0.7818608E-02  0.1171490E+00
         21   -1    0    0  503  502  0.00000000000E+00  0.00000000000E+00  0.33307715986E+03  0.33307715986E+03  0.00000000000E+00 0.  1.
         21   -1    0    0  501  503 -0.00000000000E+00 -0.00000000000E+00 -0.10575620272E+03  0.10575620272E+03  0.00000000000E+00 0. -1.
          6    2    1    2  501    0 -0.13009336282E+01  0.35925201256E+02  0.36957351075E+02  0.17921002599E+03  0.17163354889E+03 0.  0.
         24    2    3    3    0    0  0.40022472233E+02 -0.88161025669E+01 -0.22615505650E+02  0.93884628843E+02  0.81383908048E+02 0.  0.
         -6    2    1    2    0  502  0.13009336282E+01 -0.35925201256E+02  0.19036360607E+03  0.25962333659E+03  0.17283998922E+03 0.  0.
        -24    2    5    5    0    0  0.22524841491E+02 -0.76356544710E+00  0.51597057947E+02  0.11483024361E+03  0.10007885362E+03 0.  0.
          5    1    3    3  501    0 -0.41323405861E+02  0.44741303822E+02  0.59572856725E+02  0.85325397146E+02  0.47000000000E+01 0. -1.
        -11    1    4    4    0    0  0.31985200142E+02  0.24057976420E+02  0.15494186685E+02  0.42917468222E+02  0.00000000000E+00 0.  1.
         12    1    4    4    0    0  0.80372720903E+01 -0.32874078987E+02 -0.38109692335E+02  0.50967160621E+02  0.00000000000E+00 0. -1.
         -5    1    5    5    0  502 -0.21223907862E+02 -0.35161635808E+02  0.13876654812E+03  0.14479309298E+03  0.47000000000E+01 0.  1.
         13    1    6    6    0    0 -0.24093795355E+02  0.12459088950E+02  0.59817753125E+02  0.65680312583E+02  0.00000000000E+00 0. -1.
        -14    1    6    6    0    0  0.46618636846E+02 -0.13222654398E+02 -0.82206951787E+01  0.49149931026E+02  0.00000000000E+00 0.  1.
</event>
<event>
12    1  0.8416569E-002  0.1931586E+03  0.7818608E-02  0.1159820E+00
         21   -1    0    0  501  502  0.00000000000E+00  0.00000000000E+00  0.70656847020E+03  0.70656847020E+03  0.00000000000E+00 0. -1.
         21   -1    0    0  502  503 -0.00000000000E+00 -0.00000000000E+00 -0.71204610806E+03  0.71204610806E+03  0.00000000000E+00 0. -1.
         -6    2    1    2    0  503 -0.68963617963E+02  0.47538470204E+02 -0.68767147642E+03  0.71428445840E+03  0.17405269685E+03 0.  0.
        -24    2    3    3    0    0 -0.75589575405E+02  0.15722903447E+02 -0.66537039421E+03  0.67459111049E+03  0.79965062806E+02 0.  0.
          6    2    1    2  501    0  0.68963617963E+02 -0.47538470204E+02  0.68219383855E+03  0.70433011985E+03  0.15387201702E+03 0.  0.
         24    2    5    5    0    0 -0.33159476951E+01 -0.63143443385E+02  0.40386147844E+03  0.41630435107E+03  0.78785334907E+02 0.  0.
          5    1    5    5  501    0  0.72279565658E+02  0.15604973181E+02  0.27833236011E+03  0.28802576879E+03  0.47000000000E+01 0. -1.
        -13    1    6    6    0    0 -0.73155380461E+01  0.17829314360E+02  0.98267587119E+02  0.10013950382E+03  0.00000000000E+00 0.  1.
         14    1    6    6    0    0  0.39995903510E+01 -0.80972757745E+02  0.30559389132E+03  0.31616484725E+03  0.00000000000E+00 0. -1.
         -5    1    3    3    0  503  0.66259574417E+01  0.31815566757E+02 -0.22301082210E+02  0.39693347904E+02  0.47000000000E+01 0.  1.
         11    1    4    4    0    0 -0.10275903154E+02 -0.17534010342E+02 -0.35903440546E+03  0.35960914895E+03  0.00000000000E+00 0. -1.
        -12    1    4    4    0    0 -0.65313672250E+02  0.33256913789E+02 -0.30633598875E+03  0.31498196155E+03  0.00000000000E+00 0.  1.
</event>
<event>
12    1  0.8416569E-002  0.1976745E+03  0.7818608E-02  0.1153283E+00
         21   -1    0    0  501  502  0.00000000000E+00  0.00000000000E+00  0.17782271269E+03  0.17782271269E+03  0.00000000000E+00 0.  1.
         21   -1    0    0  502  503 -0.00000000000E+00 -0.00000000000E+00 -0.23343326659E+03  0.23343326659E+03  0.00000000000E+00 0.  1.
         -6    2    1    2    0  503 -0.64485609418E+02 -0.73727358384E+02 -0.90805098550E+02  0.21753338173E+03  0.17170057964E+03 0.  0.
        -24    2    3    3    0    0 -0.19101228828E+02  0.28971331879E+02 -0.34031545350E+02  0.91628301110E+02  0.77674992577E+02 0.  0.
          6    2    1    2  501    0  0.64485609418E+02  0.73727358384E+02  0.35194544644E+02  0.19372259754E+03  0.16338810125E+03 0.  0.
         24    2    5    5    0    0  0.47927846628E+01  0.18900692949E+02 -0.32119038867E+02  0.88259783742E+02  0.79862067276E+02 0.  0.
          5    1    5    5  501    0  0.59692824756E+02  0.54826665435E+02  0.67313583512E+02  0.10546281380E+03  0.47000000000E+01 0. -1.
        -13    1    6    6    0    0  0.35287289333E+02  0.33251273836E+02 -0.17986469219E+02  0.51714147727E+02  0.00000000000E+00 0.  1.
         14    1    6    6    0    0 -0.30494504670E+02 -0.14350580886E+02 -0.14132569648E+02  0.36545636015E+02  0.00000000000E+00 0. -1.
         -5    1    3    3    0  503 -0.45384380591E+02 -0.10269869026E+03 -0.56773553200E+02  0.12590508062E+03  0.47000000000E+01 0.  1.
         13    1    4    4    0    0 -0.83014854635E+01  0.27213865881E+02 -0.58374592484E+02  0.64939219311E+02  0.00000000000E+00 0. -1.
        -14    1    4    4    0    0 -0.10799743364E+02  0.17574659979E+01  0.24343047134E+02  0.26689081798E+02  0.00000000000E+00 0.  1.
</event>
<event>
12    1  0.8416569E-002  0.2172143E+03  0.7818608E-02  0.1136431E+00
         21   -1    0    0  503  502  0.00000000000E+00  0.00000000000E+00  0.90891701368E+02  0.90891701368E+02  0.00000000000E+00 0.  1.
         21   -1    0    0  501  503 -0.00000000000E+00 -0.00000000000E+00 -0.52247551917E+03  0.52247551917E+03  0.00000000000E+00 0.  1.
          6    2    1    2  501    0 -0.12132927859E+03  0.50038393835E+02 -0.17660542117E+03  0.27994918546E+03  0.17308216821E+03 0.  0.
         24    2    3    3    0    0 -0.14923888898E+03  0.68980672441E+02 -0.14640785531E+03  0.23443282296E+03  0.80578590415E+02 0.  0.
         -6    2    1    2    0  502  0.12132927859E+03 -0.50038393835E+02 -0.25497839663E+03  0.33341803508E+03  0.17008518061E+03 0.  0.
        -24    2    5    5    0    0  0.65827806793E+02  0.23200553735E+02 -0.74027547726E+02  0.13041641801E+03  0.81589205306E+02 0.  0.
          5    1    3    3  501    0  0.27909610388E+02 -0.18942278606E+02 -0.30197565864E+02  0.45516362496E+02  0.47000000000E+01 0. -1.
        -11    1    4    4    0    0 -0.59678930338E+02  0.68773770836E+02 -0.93008776176E+02  0.13016158699E+03  0.00000000000E+00 0.  1.
         12    1    4    4    0    0 -0.89559958642E+02  0.20690160519E+00 -0.53399079130E+02  0.10427123598E+03  0.00000000000E+00 0. -1.
         -5    1    5    5    0  502  0.55501471799E+02 -0.73238947570E+02 -0.18095084891E+03  0.20300161707E+03  0.47000000000E+01 0.  1.
         13    1    6    6    0    0  0.12549241317E+02  0.36387732424E+02 -0.63909246363E+02  0.74605243108E+02  0.00000000000E+00 0. -1.
        -14    1    6    6    0    0  0.53278565477E+02 -0.13187178689E+02 -0.10118301363E+02  0.55811174898E+02  0.00000000000E+00 0.  1.
</event>
<event>
12    1  0.8416569E-002  0.2124339E+03  0.7818608E-02  0.1140178E+00
         21   -1    0    0  501  502  0.00000000000E+00  0.00000000000E+00  0.12956493606E+03  0.12956493606E+03  0.00000000000E+00 0. -1.
         21   -1    0    0  502  503 -0.00000000000E+00 -0.00000000000E+00 -0.34525701362E+03  0.34525701362E+03  0.00000000000E+00 0.  1.
         -6    2    1    2    0  503  0.50696622138E+02 -0.10912197633E+03 -0.12319186374E+03  0.24556953262E+03  0.17507257594E+03 0.  0.
        -24    2    3    3    0    0  0.24714837283E+02 -0.60274444079E+02  0.75751013454E+01  0.10350185963E+03  0.80071349408E+02 0.  0.
          6    2    1    2  501    0 -0.50696622138E+02  0.10912197633E+03 -0.92500213818E+02  0.22925241705E+03  0.17182150027E+03 0.  0.
         24    2    5    5    0    0  0.10750454134E+02  0.43364614944E+02 -0.10442594775E+03  0.13834539374E+03  0.78984854952E+02 0.  0.
          5    1    5    5  501    0 -0.61447076271E+02  0.65757361383E+02  0.11925733932E+02  0.90907023316E+02  0.47000000000E+01 0. -1.
        -13    1    6    6    0    0  0.25313959467E+02  0.62056612494E+02 -0.78652499612E+02  0.10333457985E+03  0.00000000000E+00 0.  1.
         14    1    6    6    0    0 -0.14563505333E+02 -0.18691997550E+02 -0.25773448138E+02  0.35010813886E+02  0.00000000000E+00 0. -1.
         -5    1    3    3    0  503  0.25981784855E+02 -0.48847532249E+02 -0.13076696508E+03  0.14206767299E+03  0.47000000000E+01 0.  1.
         11    1    4    4    0    0 -0.24360891833E+02 -0.41106383009E+02 -0.82512497131E+01  0.48489905102E+02  0.00000000000E+00 0. -1.
        -12    1    4    4    0    0  0.49075729116E+02 -0.19168061069E+02  0.15826351058E+02  0.55011954530E+02  0.00000000000E+00 0.  1.
</event>
<event>
12    1  0.8416569E-002  0.2052276E+03  0.7818608E-02  0.1146200E+00
         21   -1    0    0  501  502  0.00000000000E+00  0.00000000000E+00  0.19643703055E+03  0.19643703055E+03  0.00000000000E+00 0. -1.
         21   -1    0    0  502  503 -0.00000000000E+00 -0.00000000000E+00 -0.21066856550E+03  0.21066856550E+03  0.00000000000E+00 0. -1.
         -6    2    1    2    0  503  0.29435799528E+02  0.10059974580E+03  0.42597327397E+00  0.20135523941E+03  0.17192142344E+03 0.  0.
        -24    2    3    3    0    0  0.27802498359E+02  0.28692626091E+01  0.43219868871E+02  0.94550171566E+02  0.79313090313E+02 0.  0.
          6    2    1    2  501    0 -0.29435799528E+02 -0.10059974580E+03 -0.14657508224E+02  0.20575035663E+03  0.17644146779E+03 0.  0.
         24    2    5    5    0    0  0.45845617975E+02 -0.54994855663E+02 -0.41926210815E+02  0.11348568318E+03  0.77426986874E+02 0.  0.
          5    1    5    5  501    0 -0.75281417503E+02 -0.45604890137E+02  0.27268702590E+02  0.92264673449E+02  0.47000000000E+01 0. -1.
        -13    1    6    6    0    0  0.17478760951E+02  0.16115783969E+02  0.41443950125E+01  0.24132997894E+02  0.00000000000E+00 0.  1.
         14    1    6    6    0    0  0.28366857024E+02 -0.71110639633E+02 -0.46070605827E+02  0.89352685285E+02  0.00000000000E+00 0. -1.
         -5    1    3    3    0  503  0.16333011683E+01  0.97730483191E+02 -0.42793895597E+02  0.10680506785E+03  0.47000000000E+01 0.  1.
         11    1    4    4    0    0  0.10803938861E+01  0.16263350742E+02 -0.19294304504E+02  0.25257355653E+02  0.00000000000E+00 0. -1.
        -12    1    4    4    0    0  0.26722104473E+02 -0.13394088133E+02  0.62514173375E+02  0.69292815913E+02  0.00000000000E+00 0.  1.
</event>
<event>
12    1  0.8416569E-002  0.2491227E+03  0.7818608E-02  0.1114259E+00
         21   -1    0    0  501  502  0.00000000000E+00  0.00000000000E+00  0.50021378903E+03  0.50021378903E+03  0.00000000000E+00 0.  1.
         21   -1    0    0  502  503 -0.00000000000E+00 -0.00000000000E+00 -0.14513939592E+03  0.14513939592E+03  0.00000000000E+00 0. -1.
         -6    2    1    2    0  503 -0.12904448599E+03 -0.12184522798E+03  0.50277016777E+02  0.25169904652E+03  0.17124804425E+03 0.  0.
        -24    2    3    3    0    0 -0.66140216104E+02 -0.13804983633E+03  0.64266442386E+01  0.17318483333E+03  0.80742796831E+02 0.  0.
          6    2    1    2  501    0  0.12904448599E+03  0.12184522798E+03  0.30479737632E+03  0.39365413843E+03  0.17482391467E+03 0.  0.
         24    2    5    5    0    0  0.12744568697E+03  0.66322051183E+02  0.29561190962E+03  0.33715774811E+03  0.75152700564E+02 0.  0.
          5    1    5    5  501    0  0.15987990192E+01  0.55523176795E+02  0.91854667022E+01  0.56496390312E+02  0.47000000000E+01 0. -1.
        -11    1    6    6    0    0  0.65987764704E+02  0.75005957043E+02  0.18973930319E+03  0.21443246456E+03  0.00000000000E+00 0.  1.
         12    1    6    6    0    0  0.61457922269E+02 -0.86839058602E+01  0.10587260643E+03  0.12272528355E+03  0.00000000000E+00 0. -1.
         -5    1    3    3    0  503 -0.62904269889E+02  0.16204608355E+02  0.43850372539E+02  0.78514213197E+02  0.47000000000E+01 0.  1.
         11    1    4    4    0    0 -0.49822000854E+02 -0.69802592743E+02 -0.33940618539E+02  0.92231227410E+02  0.00000000000E+00 0. -1.
        -12    1    4    4    0    0 -0.16318215249E+02 -0.68247243590E+02  0.40367262778E+02  0.80953605916E+02  0.00000000000E+00 0.  1.
</event>
<event>
12    1  0.8416569E-002  0.1860298E+03  0.7818608E-02  0.1163752E+00
         21   -1    0    0  503  502  0.00000000000E+00  0.00000000000E+00  0.18783842399E+03  0.18783842399E+03  0.00000000000E+00 0.  1.
         21   -1    0    0  501  503 -0.00000000000E+00 -0.00000000000E+00 -0.24708333030E+03  0.24708333030E+03  0.00000000000E+00 0.  1.
          6    2    1    2  501    0 -0.66932459069E+02 -0.25704204408E+02 -0.14553924068E+03  0.23619643811E+03  0.17165787659E+03 0.  0.
         24    2    3    3    0    0 -0.99734652432E+02 -0.44649585857E+02 -0.14353465705E+03  0.19797315040E+03  0.81551113378E+02 0.  0.
         -6    2    1    2    0  502  0.66932459069E+02  0.25704204408E+02  0.86294334369E+02  0.19872531618E+03  0.16402554357E+03 0.  0.
        -24    2    5    5    0    0  0.10719464493E+03  0.98801871421E+01  0.77361821080E+02  0.15430321665E+03  0.78970382486E+02 0.  0.
          5    1    3    3  501    0  0.32802193362E+02  0.18945381449E+02 -0.20045836306E+01  0.38223287707E+02  0.47000000000E+01 0. -1.
        -11    1    4    4    0    0 -0.33540081538E+02 -0.32646546595E+02 -0.91518217302E+01  0.47691612629E+02  0.00000000000E+00 0.  1.
         12    1    4    4    0    0 -0.66194570893E+02 -0.12003039262E+02 -0.13438283532E+03  0.15028153777E+03  0.00000000000E+00 0. -1.
         -5    1    5    5    0  502 -0.40262185857E+02  0.15824017266E+02  0.89325132887E+01  0.44422099523E+02  0.47000000000E+01 0.  1.
         13    1    6    6    0    0  0.10172514350E+02 -0.25273250197E+02  0.30713112818E+02  0.41054993883E+02  0.00000000000E+00 0. -1.
        -14    1    6    6    0    0  0.97022130576E+02  0.35153437339E+02  0.46648708261E+02  0.11324822277E+03  0.00000000000E+00 0.  1.
</event>
<event>
12    1  0.8416569E-002  0.3177860E+03  0.7818608E-02  0.1076761E+00
         21   -1    0    0  503  502  0.00000000000E+00  0.00000000000E+00  0.42501500897E+03  0.42501500897E+03  0.00000000000E+00 0. -1.
         21   -1    0    0  501  503 -0.00000000000E+00 -0.00000000000E+00 -0.24473496745E+03  0.24473496745E+03  0.00000000000E+00 0.  1.
          6    2    1    2  501    0  0.13498409261E+03  0.23003034409E+03  0.14941150228E+03  0.35046828097E+03  0.17137547809E+03 0.  0.
         24    2    3    3    0    0  0.28140679795E+02  0.42753245683E+02  0.13266179021E+02  0.95427371512E+02  0.79439623943E+02 0.  0.
         -6    2    1    2    0  502 -0.13498409261E+03 -0.23003034409E+03  0.30868539235E+02  0.31928169545E+03  0.17278098818E+03 0.  0.
        -24    2    5    5    0    0 -0.15730955580E+03 -0.16131730054E+03  0.49926863016E+02  0.24441368916E+03  0.80472305769E+02 0.  0.
          5    1    3    3  501    0  0.10684341281E+03  0.18727709841E+03  0.13614532326E+03  0.25504090945E+03  0.47000000000E+01 0. -1.
        -13    1    4    4    0    0  0.39513638728E+02  0.47245599999E+02  0.34742156345E+02  0.70714155530E+02  0.00000000000E+00 0.  1.
         14    1    4    4    0    0 -0.11372958933E+02 -0.44923543158E+01 -0.21475977324E+02  0.24713215983E+02  0.00000000000E+00 0. -1.
         -5    1    5    5    0  502  0.22325463196E+02 -0.68713043551E+02 -0.19058323781E+02  0.74868006293E+02  0.47000000000E+01 0.  1.
         13    1    6    6    0    0 -0.11790350297E+02 -0.57918949979E+02  0.21336419621E+00  0.59107213190E+02  0.00000000000E+00 0. -1.
        -14    1    6    6    0    0 -0.14551920551E+03 -0.10339835056E+03  0.49713498820E+02  0.18530647597E+03  0.00000000000E+00 0.  1.
</event>
<event>
12    1  0.8416569E-002  0.2121649E+03  0.7818608E-02  0.1139965E+00
         21   -1    0    0  501  502  0.00000000000E+00  0.00000000000E+00  0.35175101170E+02  0.35175101170E+02  0.00000000000E+00 0. -1.
         21   -1    0    0  502  503 -0.00000000000E+00 -0.00000000000E+00 -0.13536071324E+04  0.13536071324E+04  0.00000000000E+00 0. -1.
         -6    2    1    2    0  503  0.12054773423E+03  0.28264877823E+02 -0.82411859018E+03  0.85086056566E+03  0.17164379382E+03 0.  0.
        -24    2    3    3    0    0  0.10936587533E+03 -0.20798057557E+02 -0.38393418910E+03  0.40778427138E+03  0.80554928692E+02 0.  0.
          6    2    1    2  501    0 -0.12054773423E+03 -0.28264877823E+02 -0.49431344107E+03  0.53792166794E+03  0.17228837241E+03 0.  0.
         24    2    5    5    0    0 -0.68022000873E+02 -0.59055266259E+02 -0.15960169195E+03  0.19768491848E+03  0.74108770358E+02 0.  0.
          5    1    5    5  501    0 -0.52525733354E+02  0.30790388436E+02 -0.33471174912E+03  0.34023674947E+03  0.47000000000E+01 0. -1.
        -11    1    6    6    0    0 -0.52536709164E+01 -0.44823994905E+02 -0.10107075276E+03  0.11068915322E+03  0.00000000000E+00 0.  1.
         12    1    6    6    0    0 -0.62768329956E+02 -0.14231271354E+02 -0.58530939191E+02  0.86995765255E+02  0.00000000000E+00 0. -1.
         -5    1    3    3    0  503  0.11181858897E+02  0.49062935380E+02 -0.44018440108E+03  0.44307629428E+03  0.47000000000E+01 0.  1.
         11    1    4    4    0    0  0.42399279808E+02  0.25451744425E+02 -0.21010692615E+03  0.21584811938E+03  0.00000000000E+00 0. -1.
        -12    1    4    4    0    0  0.66966595521E+02 -0.46249801982E+02 -0.17382726295E+03  0.19193615200E+03  0.00000000000E+00 0.  1.
</event>
<event>
12    1  0.8416569E-002  0.2231395E+03  0.7818608E-02  0.1131997E+00
         21   -1    0    0  503  502  0.00000000000E+00  0.00000000000E+00  0.71539404075E+02  0.71539404075E+02  0.00000000000E+00 0.  1.
         21   -1    0    0  501  503 -0.00000000000E+00 -0.00000000000E+00 -0.76365603669E+03  0.76365603669E+03  0.00000000000E+00 0. -1.
          6    2    1    2  501    0  0.53144220391E+02 -0.13099781316E+03 -0.47525685437E+03  0.52403729505E+03  0.16959149086E+03 0.  0.
         24    2    3    3    0    0  0.23807693215E+02 -0.31415221435E+00 -0.23178476901E+03  0.24611716730E+03  0.79262702111E+02 0.  0.
         -6    2    1    2    0  502 -0.53144220391E+02  0.13099781316E+03 -0.21685977825E+03  0.31115814571E+03  0.17264557048E+03 0.  0.
        -24    2    5    5    0    0 -0.51128244226E+02  0.10111259095E+03 -0.23725313319E+03  0.27461817318E+03  0.79298413746E+02 0.  0.
          5    1    3    3  501    0  0.29336527177E+02 -0.13068366094E+03 -0.24347208535E+03  0.27792012775E+03  0.47000000000E+01 0. -1.
        -11    1    4    4    0    0 -0.16611014004E+02  0.28060454290E+02 -0.76230732874E+02  0.82912239842E+02  0.00000000000E+00 0.  1.
         12    1    4    4    0    0  0.40418707219E+02 -0.28374606504E+02 -0.15555403614E+03  0.16320492746E+03  0.00000000000E+00 0. -1.
         -5    1    5    5    0  502 -0.20159761650E+01  0.29885222211E+02  0.20393354948E+02  0.36539972530E+02  0.47000000000E+01 0.  1.
         13    1    6    6    0    0 -0.33589024684E+02  0.10888457979E+03 -0.16979874366E+03  0.20448884479E+03  0.00000000000E+00 0. -1.
        -14    1    6    6    0    0 -0.17539219542E+02 -0.77719888403E+01 -0.67454389530E+02  0.70129328384E+02  0.00000000000E+00 0.  1.
</event>
<event>
12    1  0.8416569E-002  0.2380850E+03  0.7818608E-02  0.1121271E+00
         21   -1    0    0  501  502  0.00000000000E+00  0.00000000000E+00  0.29811550546E+03  0.29811550546E+03  0.00000000000E+00 0. -1.
         21   -1    0    0  502  503 -0.00000000000E+00 -0.00000000000E+00 -0.19062776029E+03  0.19062776029E+03  0.00000000000E+00 0.  1.
         -6    2    1    2    0  503 -0.85757383088E+02  0.14041981353E+03  0.32589903982E+02  0.23915526407E+03  0.17047312312E+03 0.  0.
        -24    2    3    3    0    0 -0.10956700569E+03  0.87843340562E+02  0.59198145783E+02  0.17542715277E+03  0.86884315322E+02 0.  0.
          6    2    1    2  501    0  0.85757383088E+02 -0.14041981353E+03  0.74897841184E+02  0.24958800168E+03  0.17208262895E+03 0.  0.
         24    2    5    5    0    0  0.63875793388E+02 -0.60537518525E+02  0.10597360062E+03  0.16100031717E+03  0.83341406112E+02 0.  0.
          5    1    5    5  501    0  0.21881589700E+02 -0.79882295002E+02 -0.31075759431E+02  0.88587684510E+02  0.47000000000E+01 0. -1.
        -13    1    6    6    0    0  0.50035170960E+02 -0.75312781358E+02  0.54223685481E+02  0.10543121661E+03  0.00000000000E+00 0.  1.
         14    1    6    6    0    0  0.13840622428E+02  0.14775262834E+02  0.51749915134E+02  0.55569100563E+02  0.00000000000E+00 0. -1.
         -5    1    3    3    0  503  0.23809622599E+02  0.52576472965E+02 -0.26608241801E+02  0.63728111297E+02  0.47000000000E+01 0.  1.
         11    1    4    4    0    0  0.10618248675E+02  0.29312411283E+02  0.72497214903E+01  0.32008172735E+02  0.00000000000E+00 0. -1.
        -12    1    4    4    0    0 -0.12018525436E+03  0.58530929279E+02  0.51948424293E+02  0.14341898004E+03  0.00000000000E+00 0.  1.
</event>
<event>
12    1  0.8416569E-002  0.1929442E+03  0.7818608E-02  0.1156013E+00
         21   -1    0    0  503  502  0.00000000000E+00  0.00000000000E+00  0.17156612181E+03  0.17156612181E+03  0.00000000000E+00 0. -1.
         21   -1    0    0  501  503 -0.00000000000E+00 -0.00000000000E+00 -0.36543723376E+03  0.36543723376E+03  0.00000000000E+00 0. -1.
          6    2    1    2  501    0 -0.76015707993E+02 -0.41967942042E+02 -0.26871537826E+03  0.33081024269E+03  0.17230138169E+03 0.  0.
         24    2    3    3    0    0  0.79327287299E+01 -0.66024503855E+02 -0.16458235750E+03  0.19482555896E+03  0.80296218655E+02 0.  0.
         -6    2    1    2    0  502  0.76015707993E+02  0.41967942042E+02  0.74844266317E+02  0.20619311289E+03  0.17138914663E+03 0.  0.
        -24    2    5    5    0    0  0.12652887052E+02 -0.30804603687E+02  0.96007306018E+01  0.89619104456E+02  0.82646177747E+02 0.  0.
          5    1    3    3  501    0 -0.83948436723E+02  0.24056561814E+02 -0.10413302076E+03  0.13598468372E+03  0.47000000000E+01 0. -1.
        -11    1    4    4    0    0  0.29584670855E+02  0.13756655419E+01 -0.26899850930E+02  0.40009338727E+02  0.00000000000E+00 0.  1.
         12    1    4    4    0    0 -0.21651942126E+02 -0.67400169397E+02 -0.13768250657E+03  0.15481622024E+03  0.00000000000E+00 0. -1.
         -5    1    5    5    0  502  0.63362820940E+02  0.72772545729E+02  0.65243535715E+02  0.11657400843E+03  0.47000000000E+01 0.  1.
         11    1    6    6    0    0  0.32587066110E+02  0.29819109106E+01  0.30877774002E+02  0.44991616971E+02  0.00000000000E+00 0. -1.
        -12    1    6    6    0    0 -0.19934179057E+02 -0.33786514597E+02 -0.21277043400E+02  0.44627487485E+02  0.00000000000E+00 0.  1.
</event>
<event>
12    1  0.8416569E-002  0.1846013E+03  0.7818608E-02  0.1164197E+00
         21   -1    0    0  501  502  0.00000000000E+00  0.00000000000E+00  0.17610529419E+03  0.17610529419E+03  0.00000000000E+00 0. -1.
         21   -1    0    0  502  503 -0.00000000000E+00 -0.00000000000E+00 -0.24608895663E+03  0.24608895663E+03  0.00000000000E+00 0. -1.
         -6    2    1    2    0  503  0.32711392979E+02  0.47896172643E+02 -0.13592961989E+03  0.22924771606E+03  0.17525288920E+03 0.  0.
        -24    2    3    3    0    0  0.23159284900E+02  0.11691820442E+02  0.60768000942E+01  0.82312658287E+02  0.77880646328E+02 0.  0.
          6    2    1    2  501    0 -0.32711392979E+02 -0.47896172643E+02  0.65945957453E+02  0.19294653476E+03  0.17180051626E+03 0.  0.
         24    2    5    5    0    0  0.40326416434E+02 -0.23581463186E+02  0.23728924756E+01  0.92999792490E+02  0.80380504577E+02 0.  0.
          5    1    5    5  501    0 -0.73037809413E+02 -0.24314709456E+02  0.63573064978E+02  0.99946742270E+02  0.47000000000E+01 0. -1.
        -13    1    6    6    0    0  0.77851615492E+01 -0.25760534660E+02  0.36791574506E+02  0.45583262728E+02  0.00000000000E+00 0.  1.
         14    1    6    6    0    0  0.32541254885E+02  0.21790714742E+01 -0.34418682030E+02  0.47416529762E+02  0.00000000000E+00 0. -1.
         -5    1    3    3    0  503  0.95521080787E+01  0.36204352200E+02 -0.14200641998E+03  0.14693505777E+03  0.47000000000E+01 0.  1.
         13    1    4    4    0    0  0.22791688051E+02  0.33122201164E+02 -0.22899915103E+02  0.46270372442E+02  0.00000000000E+00 0. -1.
        -14    1    4    4    0    0  0.36759684837E+00 -0.21430380721E+02  0.28976715197E+02  0.36042285845E+02  0.00000000000E+00 0.  1.
</event>
<event>
12    1  0.8416569E-002  0.1941242E+03  0.7818608E-02  0.1154928E+00
         21   -1    0    0  501  502  0.00000000000E+00  0.00000000000E+00  0.60767129214E+03  0.60767129214E+03  0.00000000000E+00 0. -1.
         21   -1    0    0  502  503 -0.00000000000E+00 -0.00000000000E+00 -0.61929962787E+02  0.61929962787E+02  0.00000000000E+00 0. -1.
         -6    2    1    2    0  503 -0.29247085563E+02 -0.85303797984E+02  0.25907415445E+03  0.32373389222E+03  0.17190720026E+03 0.  0.
        -24    2    3    3    0    0 -0.80416966710E+01 -0.10254357867E+03  0.11346981111E+03  0.17551245869E+03  0.85728470836E+02 0.  0.
          6    2    1    2  501    0  0.29247085563E+02  0.85303797984E+02  0.28666717490E+03  0.34586736271E+03  0.17121341494E+03 0.  0.
         24    2    5    5    0    0  0.79456287894E+02  0.76013415722E+02  0.24032982316E+03  0.27675502396E+03  0.82119293286E+02 0.  0.
          5    1    5    5  501    0 -0.50209202331E+02  0.92903822621E+01  0.46337351742E+02  0.69112338752E+02  0.47000000000E+01 0. -1.
        -11    1    6    6    0    0  0.67648774375E+01 -0.25373509431E+01  0.10004948776E+03  0.10031002800E+03  0.00000000000E+00 0.  1.
         12    1    6    6    0    0  0.72691410457E+02  0.78550766665E+02  0.14028033540E+03  0.17644499595E+03  0.00000000000E+00 0. -1.
         -5    1    3    3    0  503 -0.21205388892E+02  0.17239780683E+02  0.14560434334E+03  0.14822143353E+03  0.47000000000E+01 0.  1.
         13    1    4    4    0    0 -0.35379646889E+02 -0.89321061199E+02  0.10818945751E+03  0.14468908080E+03  0.00000000000E+00 0. -1.
        -14    1    4    4    0    0  0.27337950218E+02 -0.13222517469E+02  0.52803535992E+01  0.30823377889E+02  0.00000000000E+00 0.  1.
</event>
<event>
12    1  0.8416569E-002  0.2450648E+03  0.7818608E-02  0.1116478E+00
         21   -1    0    0  503  502  0.00000000000E+00  0.00000000000E+00  0.48836350422E+03  0.48836350422E+03  0.00000000000E+00 0. -1.
         21   -1    0    0  501  503 -0.00000000000E+00 -0.00000000000E+00 -0.30758593617E+03  0.30758593617E+03  0.00000000000E+00 0.  1.
          6    2    1    2  501    0 -0.17152112200E+03 -0.31345821245E+02 -0.21797402388E+03  0.32791140328E+03  0.17207892815E+03 0.  0.
         24    2    3    3    0    0 -0.11718982384E+03  0.42188800965E+02 -0.16680689691E+03  0.22303340032E+03  0.80037535325E+02 0.  0.
         -6    2    1    2    0  502  0.17152112200E+03  0.31345821245E+02  0.39875159193E+03  0.46803803711E+03  0.17220544797E+03 0.  0.
        -24    2    5    5    0    0  0.15173844233E+03  0.72419932951E+02  0.24733402013E+03  0.30983624155E+03  0.80964050634E+02 0.  0.
          5    1    3    3  501    0 -0.54331298162E+02 -0.73534622210E+02 -0.51167126969E+02  0.10487800296E+03  0.47000000000E+01 0. -1.
        -13    1    4    4    0    0 -0.40255535620E+02 -0.23658701605E+02 -0.49007396037E+02  0.67690229546E+02  0.00000000000E+00 0.  1.
         14    1    4    4    0    0 -0.76934288223E+02  0.65847502570E+02 -0.11779950087E+03  0.15534317077E+03  0.00000000000E+00 0. -1.
         -5    1    5    5    0  502  0.19782679677E+02 -0.41074111706E+02  0.15141757181E+03  0.15820179556E+03  0.47000000000E+01 0.  1.
         11    1    6    6    0    0  0.74573262792E+02 -0.74063766727E+01  0.11248278598E+03  0.13516065656E+03  0.00000000000E+00 0. -1.
        -12    1    6    6    0    0  0.77165179536E+02  0.79826309624E+02  0.13485123415E+03  0.17467558499E+03  0.00000000000E+00 0.  1.
</event>
<event>
12    1  0.8416569E-002  0.1916880E+03  0.7818608E-02  0.1157005E+00
         21   -1    0    0  503  502  0.00000000000E+00  0.00000000000E+00  0.87393387632E+03  0.87393387632E+03  0.00000000000E+00 0.  1.
         21   -1    0    0  501  503 -0.00000000000E+00 -0.00000000000E+00 -0.44587214202E+02  0.44587214202E+02  0.00000000000E+00 0. -1.
          6    2    1    2  501    0 -0.57392181387E+02 -0.60536006386E+02  0.30405850277E+03  0.35943824542E+03  0.17258565585E+03 0.  0.
         24    2    3    3    0    0  0.23576205577E+02 -0.29353542962E+02  0.79400577914E+02  0.11856172329E+03  0.79592477668E+02 0.  0.
         -6    2    1    2    0  502  0.57392181387E+02  0.60536006386E+02  0.52528815934E+03  0.55908284510E+03  0.17230062910E+03 0.  0.
        -24    2    5    5    0    0  0.25623311337E+02 -0.11775952499E+02  0.12660887708E+03  0.15262800062E+03  0.80437998949E+02 0.  0.
          5    1    3    3  501    0 -0.80968386964E+02 -0.31182463424E+02  0.22465792486E+03  0.24087652213E+03  0.47000000000E+01 0. -1.
        -13    1    4    4    0    0  0.10118193344E+02 -0.16410310097E+02  0.93308415397E+02  0.95279255338E+02  0.00000000000E+00 0.  1.
         14    1    4    4    0    0  0.13458012233E+02 -0.12943232865E+02 -0.13907837482E+02  0.23282467947E+02  0.00000000000E+00 0. -1.
         -5    1    5    5    0  502  0.31768870050E+02  0.72311958884E+02  0.39867928226E+03  0.40645484449E+03  0.47000000000E+01 0.  1.
         11    1    6    6    0    0  0.13609128248E+02 -0.46488810807E+02  0.74941901897E+02  0.89233998912E+02  0.00000000000E+00 0. -1.
        -12    1    6    6    0    0  0.12014183088E+02  0.34712858308E+02  0.51666975184E+02  0.63394001703E+02  0.00000000000E+00 0.  1.
</event>
<event>
12    1  0.8416569E-002  0.2128145E+03  0.7818608E-02  0.1139445E+00
         21   -1    0    0  501  502  0.00000000000E+00  0.00000000000E+00  0.35880667939E+03  0.35880667939E+03  0.00000000000E+00 0. -1.
         21   -1    0    0  502  503 -0.00000000000E+00 -0.00000000000E+00 -0.12599240558E+03  0.12599240558E+03  0.00000000000E+00 0. -1.
         -6    2    1    2    0  503  0.44484484710E+01  0.12380645815E+03  0.12048928534E+03  0.24416049403E+03  0.17247855284E+03 0.  0.
        -24    2    3    3    0    0 -0.61095789881E+02  0.87284956869E+02  0.10526631461E+03  0.16745523948E+03  0.74892596446E+02 0.  0.
          6    2    1    2  501    0 -0.44484484710E+01 -0.12380645815E+03  0.11232498847E+03  0.24063859094E+03  0.17303814794E+03 0.  0.
         24    2    5    5    0    0 -0.47074572286E+02 -0.14038500484E+03  0.69664560290E+02  0.17791828503E+03  0.69841250329E+02 0.  0.
          5    1    5    5  501    0  0.42626123815E+02  0.16578546687E+02  0.42660428178E+02  0.62720305915E+02  0.47000000000E+01 0. -1.
        -11    1    6    6    0    0 -0.41032626394E+02 -0.54615237897E+02  0.17244727544E+01  0.68333552854E+02  0.00000000000E+00 0.  1.
         12    1    6    6    0    0 -0.60419458916E+01 -0.85769766938E+02  0.67940087536E+02  0.10958473217E+03  0.00000000000E+00 0. -1.
         -5    1    3    3    0  503  0.65544238352E+02  0.36521501278E+02  0.15222970736E+02  0.76705254545E+02  0.47000000000E+01 0.  1.
         11    1    4    4    0    0 -0.61640656940E+02  0.25065719473E+02  0.41831452013E+02  0.78598544886E+02  0.00000000000E+00 0. -1.
        -12    1    4    4    0    0  0.54486705933E+00  0.62219237396E+02  0.63434862593E+02  0.88856694596E+02  0.00000000000E+00 0.  1.
</event>
<event>
12    1  0.8416569E-002  0.2046872E+03  0.7818608E-02  0.1145868E+00
         21   -1    0    0  501  502  0.00000000000E+00  0.00000000000E+00  0.53935371366E+02  0.53935371366E+02  0.00000000000E+00 0. -1.
         21   -1    0    0  502  503 -0.00000000000E+00 -0.00000000000E+00 -0.77915692759E+03  0.77915692759E+03  0.00000000000E+00 0. -1.
         -6    2    1    2    0  503 -0.70871728866E+02 -0.85857108796E+02 -0.33748439868E+03  0.39464394337E+03  0.17162132036E+03 0.  0.
        -24    2    3    3    0    0 -0.33285181374E+02  0.16283971868E+02 -0.10043867024E+03  0.13376405475E+03  0.80198658507E+02 0.  0.
          6    2    1    2  501    0  0.70871728866E+02  0.85857108796E+02 -0.38773715755E+03  0.43844835559E+03  0.17176324430E+03 0.  0.
         24    2    5    5    0    0 -0.19248728376E+02  0.46840424658E+01 -0.18107656015E+03  0.19877888313E+03  0.79573047858E+02 0.  0.
          5    1    5    5  501    0  0.90120457242E+02  0.81173066331E+02 -0.20666059740E+03  0.23966947246E+03  0.47000000000E+01 0. -1.
        -13    1    6    6    0    0 -0.10816424815E+01 -0.35135668970E+02 -0.54542268738E+02  0.64888706749E+02  0.00000000000E+00 0.  1.
         14    1    6    6    0    0 -0.18167085895E+02  0.39819711436E+02 -0.12653429141E+03  0.13389017638E+03  0.00000000000E+00 0. -1.
         -5    1    3    3    0  503 -0.37586547492E+02 -0.10214108066E+03 -0.23704572844E+03  0.26087988862E+03  0.47000000000E+01 0.  1.
         11    1    4    4    0    0 -0.37372947540E+02  0.19542607607E+02 -0.11275503315E+03  0.12038416931E+03  0.00000000000E+00 0. -1.
        -12    1    4    4    0    0  0.40877661657E+01 -0.32586357393E+01  0.12316362912E+02  0.13379885444E+02  0.00000000000E+00 0.  1.
</event>
<event>
12    1  0.8416569E-002  0.1751383E+03  0.7818608E-02  0.1172677E+00
         21   -1    0    0  503  502  0.00000000000E+00  0.00000000000E+00  0.27263526484E+02  0.27263526484E+02  0.00000000000E+00 0.  1.
         21   -1    0    0  501  503 -0.00000000000E+00 -0.00000000000E+00 -0.12980648572E+04  0.12980648572E+04  0.00000000000E+00 0.  1.
          6    2    1    2  501    0 -0.31579091419E+01  0.34895381208E+02 -0.87829184784E+03  0.89551781405E+03  0.17125397886E+03 0.  0.
         24    2    3    3    0    0 -0.25090292602E+01 -0.47228698668E+02 -0.48798708507E+03  0.49663852982E+03  0.79256475492E+02 0.  0.
         -6    2    1    2    0  502  0.31579091419E+01 -0.34895381208E+02 -0.39250948289E+03  0.42981056965E+03  0.17159770280E+03 0.  0.
        -24    2    5    5    0    0  0.66129914115E+02 -0.43878381925E+01 -0.23796425396E+03  0.26009757258E+03  0.81433054910E+02 0.  0.
          5    1    3    3  501    0 -0.64887988165E+00  0.82124079876E+02 -0.39030476277E+03  0.39887928422E+03  0.47000000000E+01 0. -1.
        -13    1    4    4    0    0 -0.12893228549E+02 -0.39263800357E+02 -0.47896121139E+03  0.48074080685E+03  0.00000000000E+00 0.  1.
         14    1    4    4    0    0  0.10384199289E+02 -0.79648983109E+01 -0.90258736818E+01  0.15897722972E+02  0.00000000000E+00 0. -1.
         -5    1    5    5    0  502 -0.62972004973E+02 -0.30507543015E+02 -0.15454522893E+03  0.16971299707E+03  0.47000000000E+01 0.  1.
         13    1    6    6    0    0  0.67171010795E+02  0.15574072477E+02 -0.22712036704E+03  0.23735660419E+03  0.00000000000E+00 0. -1.
        -14    1    6    6    0    0 -0.10410966804E+01 -0.19961910669E+02 -0.10843886919E+02  0.22740968391E+02  0.00000000000E+00 0.  1.
</event>
<event>
12    1  0.8416569E-002  0.2145306E+03  0.7818608E-02  0.1138095E+00
         21   -1    0    0  503  502  0.00000000000E+00  0.00000000000E+00  0.64794493343E+02  0.64794493343E+02  0.00000000000E+00 0. -1.
         21   -1    0    0  501  503 -0.00000000000E+00 -0.00000000000E+00 -0.73977822140E+03  0.73977822140E+03  0.00000000000E+00 0. -1.
          6    2    1    2  501    0 -0.64319327179E+02 -0.10730642987E+03 -0.25589764625E+03  0.33392658659E+03  0.17427482358E+03 0.  0.
         24    2    3    3    0    0 -0.45235255350E+02 -0.14531698508E+03 -0.20504172832E+03  0.26746292363E+03  0.79567899875E+02 0.  0.
         -6    2    1    2    0  502  0.64319327179E+02  0.10730642987E+03 -0.41908608181E+03  0.47064612816E+03  0.17384760062E+03 0.  0.
        -24    2    5    5    0    0  0.73361971455E+02  0.17147927285E+02 -0.14159899816E+03  0.17870178998E+03  0.78791009604E+02 0.  0.
          5    1    3    3  501    0 -0.19084071829E+02  0.38010555203E+02 -0.50855917933E+02  0.66463662953E+02  0.47000000000E+01 0. -1.
        -13    1    4    4    0    0  0.71664961609E+01 -0.86245000176E+02 -0.71216224674E+02  0.11207724738E+03  0.00000000000E+00 0.  1.
         14    1    4    4    0    0 -0.52401751511E+02 -0.59071984899E+02 -0.13382550364E+03  0.15538567626E+03  0.00000000000E+00 0. -1.
         -5    1    5    5    0  502 -0.90426442756E+01  0.90158502587E+02 -0.27748708365E+03  0.29194433818E+03  0.47000000000E+01 0.  1.
         11    1    6    6    0    0  0.26594065333E+02  0.32573022317E+02 -0.11560742030E+03  0.12301756672E+03  0.00000000000E+00 0. -1.
        -12    1    6    6    0    0  0.46767906122E+02 -0.15425095032E+02 -0.25991577863E+02  0.55684223255E+02  0.00000000000E+00 0.  1.
</event>
<event>
12    1  0.8416569E-002  0.2002211E+03  0.7818608E-02  0.1149722E+00
         21   -1    0    0  501  502  0.00000000000E+00  0.00000000000E+00  0.27525695518E+02  0.27525695518E+02  0.00000000000E+00 0. -1.
         21   -1    0    0  502  503 -0.00000000000E+00 -0.00000000000E+00 -0.15594132037E+04  0.15594132037E+04  0.00000000000E+00 0. -1.
         -6    2    1    2    0  503  0.90692605027E+02  0.51057785411E+02 -0.97413518395E+03  0.99433771713E+03  0.17010612288E+03 0.  0.
        -24    2    3    3    0    0  0.99162001374E+02 -0.14970545772E+02 -0.73303150627E+03  0.74416868511E+03  0.79966386372E+02 0.  0.
          6    2    1    2  501    0 -0.90692605027E+02 -0.51057785411E+02 -0.55775232423E+03  0.59260118209E+03  0.17104519803E+03 0.  0.
         24    2    5    5    0    0 -0.78401255087E+02 -0.93929620980E+02 -0.49000588230E+03  0.51135623171E+03  0.80061854329E+02 0.  0.
          5    1    5    5  501    0 -0.12291349940E+02  0.42871835570E+02 -0.67746441934E+02  0.81244950386E+02  0.47000000000E+01 0. -1.
        -11    1    6    6    0    0 -0.43431396457E+02 -0.99596649157E+01 -0.81904321127E+02  0.93240543450E+02  0.00000000000E+00 0.  1.
         12    1    6    6    0    0 -0.34969858630E+02 -0.83969956065E+02 -0.40810156117E+03  0.41811568826E+03  0.00000000000E+00 0. -1.
         -5    1    3    3    0  503 -0.84693963469E+01  0.66028331183E+02 -0.24110367768E+03  0.25016903203E+03  0.47000000000E+01 0.  1.
         13    1    4    4    0    0 -0.67905084972E+01 -0.17008635438E+02 -0.56673531134E+02  0.59559162320E+02  0.00000000000E+00 0. -1.
        -14    1    4    4    0    0  0.10595250987E+03  0.20380896657E+01 -0.67635797514E+03  0.68460952279E+03  0.00000000000E+00 0.  1.
</event>
<event>
12    1  0.8416569E-002  0.1881046E+03  0.7818608E-02  0.1160631E+00
         21   -1    0    0  503  502  0.00000000000E+00  0.00000000000E+00  0.70116092993E+03  0.70116092993E+03  0.00000000000E+00 0.  1.
         21   -1    0    0  501  503 -0.00000000000E+00 -0.00000000000E+00 -0.12565745010E+03  0.12565745010E+03  0.00000000000E+00 0.  1.
          6    2    1    2  501    0 -0.26081622610E+02 -0.71848241570E+02 -0.32558211221E+02  0.19090151510E+03  0.17187475235E+03 0.  0.
         24    2    3    3    0    0  0.37064879474E+02 -0.58713049471E+02  0.18788166071E+02  0.10832697630E+03  0.80998216901E+02 0.  0.
         -6    2    1    2    0  502  0.26081622610E+02  0.71848241570E+02  0.60806169106E+03  0.63591686493E+03  0.16973160614E+03 0.  0.
        -24    2    5    5    0    0  0.44566588054E+02  0.66575480927E+02  0.60549769092E+03  0.61596291673E+03  0.79777099724E+02 0.  0.
          5    1    3    3  501    0 -0.63146502084E+02 -0.13135192100E+02 -0.51346377292E+02  0.82574538800E+02  0.47000000000E+01 0. -1.
        -13    1    4    4    0    0 -0.92887255131E+01  0.74202621168E+01 -0.16381400750E+02  0.20240825133E+02  0.00000000000E+00 0.  1.
         14    1    4    4    0    0  0.46353604987E+02 -0.66133311587E+02  0.35169566821E+02  0.88086151166E+02  0.00000000000E+00 0. -1.
         -5    1    5    5    0  502 -0.18484965444E+02  0.52727606438E+01  0.25640001332E+01  0.19953948205E+02  0.47000000000E+01 0.  1.
         13    1    6    6    0    0 -0.11532030245E+02 -0.11895382785E+02  0.94110036076E+02  0.95557243280E+02  0.00000000000E+00 0. -1.
        -14    1    6    6    0    0  0.56098618300E+02  0.78470863712E+02  0.51138765485E+03  0.52040567345E+03  0.00000000000E+00 0.  1.
</event>
<event>
12    1  0.8416569E-002  0.1759006E+03  0.7818608E-02  0.1172457E+00
         21   -1    0    0  501  502  0.00000000000E+00  0.00000000000E+00  0.85723152660E+03  0.85723152660E+03  0.00000000000E+00 0.  1.
         21   -1    0    0  502  503 -0.00000000000E+00 -0.00000000000E+00 -0.40065521082E+02  0.40065521082E+02  0.00000000000E+00 0.  1.
         -6    2    1    2    0  503 -0.11017776900E+02  0.30925393646E+02  0.56121115055E+03  0.58813175965E+03  0.17280983717E+03 0.  0.
        -24    2    3    3    0    0 -0.63757274905E+02  0.28496205976E+01  0.44412768051E+03  0.45660103077E+03  0.84628566484E+02 0.  0.
          6    2    1    2  501    0  0.11017776900E+02 -0.30925393646E+02  0.25595485496E+03  0.30916528803E+03  0.17027188894E+03 0.  0.
         24    2    5    5    0    0  0.10384348069E+02 -0.55600061551E+02  0.26486357469E+03  0.28250641042E+03  0.80361416101E+02 0.  0.
          5    1    5    5  501    0  0.63342883063E+00  0.24674667905E+02 -0.89087197310E+01  0.26658877612E+02  0.47000000000E+01 0. -1.
        -11    1    6    6    0    0 -0.27431075855E+02 -0.35651806438E+01  0.13229862136E+03  0.13515953407E+03  0.00000000000E+00 0.  1.
         12    1    6    6    0    0  0.37815423924E+02 -0.52034880907E+02  0.13256495333E+03  0.14734687635E+03  0.00000000000E+00 0. -1.
         -5    1    3    3    0  503  0.52739498005E+02  0.28075773048E+02  0.11708347004E+03  0.13153072888E+03  0.47000000000E+01 0.  1.
         13    1    4    4    0    0  0.61685613718E+01  0.79541728115E+01  0.24996258160E+03  0.25016516987E+03  0.00000000000E+00 0. -1.
        -14    1    4    4    0    0 -0.69925836277E+02 -0.51045522139E+01  0.19416509890E+03  0.20643586090E+03  0.00000000000E+00 0.  1.
</event>
<event>
12    1  0.8416569E-002  0.1799642E+03  0.7818608E-02  0.1169659E+00
         21   -1    0    0  503  502  0.00000000000E+00  0.00000000000E+00  0.13663572372E+03  0.13663572372E+03  0.00000000000E+00 0.  1.
         21   -1    0    0  501  503 -0.00000000000E+00 -0.00000000000E+00 -0.88578059423E+03  0.88578059423E+03  0.00000000000E+00 0.  1.
          6    2    1    2  501    0 -0.67999630655E+00  0.13518166035E+02 -0.81727252357E+03  0.83685213785E+03  0.17945450575E+03 0.  0.
         24    2    3    3    0    0 -0.12729264617E+02 -0.36852096648E+02 -0.72847758742E+03  0.73394937347E+03  0.80510721335E+02 0.  0.
         -6    2    1    2    0  502  0.67999630655E+00 -0.13518166035E+02  0.68127653057E+02  0.18556418010E+03  0.17207406724E+03 0.  0.
        -24    2    5    5    0    0  0.69956706978E+01 -0.62190428167E+02 -0.99859476223E+00  0.10065596505E+03  0.78829165576E+02 0.  0.
          5    1    3    3  501    0  0.12049268310E+02  0.50370262683E+02 -0.88794936154E+02  0.10290276438E+03  0.47000000000E+01 0. -1.
        -13    1    4    4    0    0  0.21649573470E+02  0.17520146151E+01 -0.66516762260E+02  0.69973232369E+02  0.00000000000E+00 0.  1.
         14    1    4    4    0    0 -0.34378838087E+02 -0.38604111263E+02 -0.66196082516E+03  0.66397614110E+03  0.00000000000E+00 0. -1.
         -5    1    5    5    0  502 -0.63156743913E+01  0.48672262132E+02  0.69126247819E+02  0.84908215042E+02  0.47000000000E+01 0.  1.
         13    1    6    6    0    0 -0.23556134120E+01 -0.55806602854E+02  0.32962482474E+02  0.64857159108E+02  0.00000000000E+00 0. -1.
        -14    1    6    6    0    0  0.93512841098E+01 -0.63838253128E+01 -0.33961077237E+02  0.35798805947E+02  0.00000000000E+00 0.  1.
</event>
<event>
12    1  0.8416569E-002  0.2023044E+03  0.7818608E-02  0.1148041E+00
         21   -1    0    0  503  502  0.00000000000E+00  0.00000000000E+00  0.40316944858E+02  0.40316944858E+02  0.00000000000E+00 0. -1.
         21   -1    0    0  501  503 -0.00000000000E+00 -0.00000000000E+00 -0.10289027683E+04  0.10289027683E+04  0.00000000000E+00 0. -1.
          6    2    1    2  501    0  0.10691377643E+03 -0.39846510296E+01 -0.41966949818E+03  0.46540448032E+03  0.17038899485E+03 0.  0.
         24    2    3    3    0    0  0.12337557277E+03  0.41480598925E+02 -0.33127618189E+03  0.36454047259E+03  0.78763414231E+02 0.  0.
         -6    2    1    2    0  502 -0.10691377643E+03  0.39846510296E+01 -0.56891632523E+03  0.60381523281E+03  0.17169920565E+03 0.  0.
        -24    2    5    5    0    0 -0.11120935848E+03  0.32460040694E+02 -0.55364089615E+03  0.57088001495E+03  0.77230654030E+02 0.  0.
          5    1    3    3  501    0 -0.16461796341E+02 -0.45465249954E+02 -0.88393316290E+02  0.10086400774E+03  0.47000000000E+01 0. -1.
        -11    1    4    4    0    0  0.33060243350E+02  0.24752229391E+02 -0.34304023546E+02  0.53688160535E+02  0.00000000000E+00 0.  1.
         12    1    4    4    0    0  0.90315329419E+02  0.16728369534E+02 -0.29697215835E+03  0.31085231205E+03  0.00000000000E+00 0. -1.
         -5    1    5    5    0  502  0.42955820514E+01 -0.28475389664E+02 -0.15275429081E+02  0.32935217857E+02  0.47000000000E+01 0.  1.
         13    1    6    6    0    0 -0.94818031875E+02  0.54517736282E+02 -0.39437862343E+03  0.40926414619E+03  0.00000000000E+00 0. -1.
        -14    1    6    6    0    0 -0.16391326604E+02 -0.22057695588E+02 -0.15926227272E+03  0.16161586876E+03  0.00000000000E+00 0.  1.
</event>
<event>
12    1  0.8416569E-002  0.2049349E+03  0.7818608E-02  0.1146416E+00
         21   -1    0    0  503  502  0.00000000000E+00  0.00000000000E+00  0.11329345978E+03  0.11329345978E+03  0.00000000000E+00 0. -1.
         21   -1    0    0  501  503 -0.00000000000E+00 -0.00000000000E+00 -0.38002676748E+03  0.38002676748E+03  0.00000000000E+00 0. -1.
          6    2    1    2  501    0 -0.10243907364E+03  0.27138764667E+02 -0.18529210157E+03  0.27628149673E+03  0.17540817020E+03 0.  0.
         24    2    3    3    0    0 -0.62632604965E+02  0.83994737328E+02 -0.91851224514E+02  0.15978924771E+03  0.78217626762E+02 0.  0.
         -6    2    1    2    0  502  0.10243907364E+03 -0.27138764667E+02 -0.81441206128E+02  0.21703873053E+03  0.17100545061E+03 0.  0.
        -24    2    5    5    0    0 -0.15736830866E+02 -0.25515155792E+02 -0.35054617944E+02  0.89987614533E+02  0.77267544994E+02 0.  0.
          5    1    3    3  501    0 -0.39806468675E+02 -0.56855972661E+02 -0.93440877055E+02  0.11649224901E+03  0.47000000000E+01 0. -1.
        -11    1    4    4    0    0 -0.24426835782E+02  0.99603800401E+01  0.99943023816E+01  0.28209316847E+02  0.00000000000E+00 0.  1.
         12    1    4    4    0    0 -0.38205769182E+02  0.74034357288E+02 -0.10184552690E+03  0.13157993087E+03  0.00000000000E+00 0. -1.
         -5    1    5    5    0  502  0.11817590451E+03 -0.16236088751E+01 -0.46386588183E+02  0.12705111599E+03  0.47000000000E+01 0.  1.
         11    1    6    6    0    0 -0.41262568955E+02  0.18966930292E+01 -0.32290103351E+02  0.52429455611E+02  0.00000000000E+00 0. -1.
        -12    1    6    6    0    0  0.25525738088E+02 -0.27411848821E+02 -0.27645145930E+01  0.37558158923E+02  0.00000000000E+00 0.  1.
</event>
<event>
12    1  0.8416569E-002  0.1809762E+03  0.7818608E-02  0.1167123E+00
         21   -1    0    0  503  502  0.00000000000E+00  0.00000000000E+00  0.30856087822E+03  0.30856087822E+03  0.00000000000E+00 0. -1.
         21   -1    0    0  501  503 -0.00000000000E+00 -0.00000000000E+00 -0.13023997799E+03  0.13023997799E+03  0.00000000000E+00 0. -1.
          6    2    1    2  501    0  0.19817256335E+02 -0.47469333058E+02  0.18454681761E+03  0.25771761118E+03  0.17237974936E+03 0.  0.
         24    2    3    3    0    0  0.36619426176E+02  0.31255219032E+02  0.65346773359E+02  0.11380580289E+03  0.79772732770E+02 0.  0.
         -6    2    1    2    0  502 -0.19817256335E+02  0.47469333058E+02 -0.62259173758E+01  0.18108324503E+03  0.17351172397E+03 0.  0.
        -24    2    5    5    0    0  0.10229618349E+01 -0.41941171702E+02 -0.29191654748E+01  0.89096410852E+02  0.78546422993E+02 0.  0.
          5    1    3    3  501    0 -0.16802169841E+02 -0.78724552090E+02  0.11920004426E+03  0.14391180828E+03  0.47000000000E+01 0. -1.
        -11    1    4    4    0    0  0.11620076977E+02 -0.19902891138E+01 -0.17501334108E+02  0.21101756687E+02  0.00000000000E+00 0.  1.
         12    1    4    4    0    0  0.24999349199E+02  0.33245508146E+02  0.82848107467E+02  0.92704046206E+02  0.00000000000E+00 0. -1.
         -5    1    5    5    0  502 -0.20840218170E+02  0.89410504760E+02 -0.33067519010E+01  0.91986834183E+02  0.47000000000E+01 0.  1.
         13    1    6    6    0    0  0.34689325988E+02 -0.26411672720E+02 -0.20365195117E+02  0.48121377427E+02  0.00000000000E+00 0. -1.
        -14    1    6    6    0    0 -0.33666364153E+02 -0.15529498982E+02  0.17446029642E+02  0.40975033425E+02  0.00000000000E+00 0.  1.
</event>
<event>
12    1  0.8416569E-002  0.1912136E+03  0.7818608E-02  0.1158535E+00
         21   -1    0    0  501  502  0.00000000000E+00  0.00000000000E+00  0.90015356893E+03  0.90015356893E+03  0.00000000000E+00 0.  1.
         21   -1    0    0  502  503 -0.00000000000E+00 -0.00000000000E+00 -0.11025158124E+03  0.11025158124E+03  0.00000000000E+00 0.  1.
         -6    2    1    2    0  503 -0.58030997037E+02 -0.54910826512E+02 -0.77142085115E+01  0.19136911024E+03  0.17372343497E+03 0.  0.
        -24    2    3    3    0    0 -0.35195115385E+02 -0.95561086269E+02 -0.38452048058E+02  0.13532603851E+03  0.80398752125E+02 0.  0.
          6    2    1    2  501    0  0.58030997037E+02  0.54910826512E+02  0.79761619619E+03  0.81903603993E+03  0.16806440070E+03 0.  0.
         24    2    5    5    0    0  0.19651400676E+02  0.31305181604E+01  0.17366749770E+03  0.19174961245E+03  0.78813301053E+02 0.  0.
          5    1    5    5  501    0  0.38379596361E+02  0.51780308352E+02  0.62394869849E+03  0.62728642748E+03  0.47000000000E+01 0. -1.
        -11    1    6    6    0    0  0.24631413304E+02 -0.38571349983E+01  0.17959718052E+03  0.18131941778E+03  0.00000000000E+00 0.  1.
         12    1    6    6    0    0 -0.49800126276E+01  0.69876531587E+01 -0.59296828217E+01  0.10430194668E+02  0.00000000000E+00 0. -1.
         -5    1    3    3    0  503 -0.22835881652E+02  0.40650259757E+02  0.30737839547E+02  0.56043071732E+02  0.47000000000E+01 0.  1.
         11    1    4    4    0    0 -0.65382177571E+01 -0.50865476990E+02 -0.59198538076E+02  0.78323125265E+02  0.00000000000E+00 0. -1.
        -12    1    4    4    0    0 -0.28656897628E+02 -0.44695609279E+02  0.20746490018E+02  0.57002913246E+02  0.00000000000E+00 0.  1.
</event>
<event>
12    1  0.8416569E-002  0.1882665E+03  0.7818608E-02  0.1160839E+00
         21   -1    0    0  501  502  0.00000000000E+00  0.00000000000E+00  0.65771741493E+02  0.65771741493E+02  0.00000000000E+00 0. -1.
         21   -1    0    0  502  503 -0.00000000000E+00 -0.00000000000E+00 -0.53785778972E+03  0.53785778972E+03  0.00000000000E+00 0.  1.
         -6    2    1    2    0  503  0.56516550605E+02  0.34613259433E+02 -0.19503407675E+03  0.26866377193E+03  0.17248110921E+03 0.  0.
        -24    2    3    3    0    0 -0.29323180495E+02 -0.10136599645E+02 -0.82388676470E+02  0.12006334957E+03  0.81637701658E+02 0.  0.
          6    2    1    2  501    0 -0.56516550605E+02 -0.34613259433E+02 -0.27705197148E+03  0.33496575928E+03  0.17621596628E+03 0.  0.
         24    2    5    5    0    0 -0.15698856270E+02  0.21499004958E+02 -0.24400979650E+03  0.25796870926E+03  0.79362540679E+02 0.  0.
          5    1    5    5  501    0 -0.40817694336E+02 -0.56112264391E+02 -0.33042174974E+02  0.76997050028E+02  0.47000000000E+01 0. -1.
        -11    1    6    6    0    0  0.25791933117E+02 -0.13219605716E+02 -0.70657721946E+02  0.76370776216E+02  0.00000000000E+00 0.  1.
         12    1    6    6    0    0 -0.41490789386E+02  0.34718610674E+02 -0.17335207456E+03  0.18159793304E+03  0.00000000000E+00 0. -1.
         -5    1    3    3    0  503  0.85839731100E+02  0.44749859077E+02 -0.11264540028E+03  0.14860042237E+03  0.47000000000E+01 0.  1.
         13    1    4    4    0    0 -0.49538410947E+02  0.17526586919E+02 -0.43342343747E+02  0.68116034600E+02  0.00000000000E+00 0. -1.
        -14    1    4    4    0    0  0.20215230453E+02 -0.27663186563E+02 -0.39046332723E+02  0.51947314966E+02  0.00000000000E+00 0.  1.
</event>
<event>
12    1  0.8416569E-002  0.2453274E+03  0.7818608E-02  0.1116511E+00
         21   -1    0    0  503  502  0.00000000000E+00  0.00000000000E+00  0.16544513880E+03  0.16544513880E+03  0.00000000000E+00 0.  1.
         21   -1    0    0  501  503 -0.00000000000E+00 -0.00000000000E+00 -0.48539498610E+03  0.48539498610E+03  0.00000000000E+00 0. -1.
          6    2    1    2  501    0 -0.11039617339E+01 -0.17235114121E+03 -0.32386002500E+03  0.40548157662E+03  0.17269585570E+03 0.  0.
         24    2    3    3    0    0  0.89395458713E+01 -0.10048542237E+03 -0.84335674294E+02  0.15516266369E+03  0.82375425069E+02 0.  0.
         -6    2    1    2    0  502  0.11039617339E+01  0.17235114121E+03  0.39101777082E+01  0.24535854828E+03  0.17458348466E+03 0.  0.
        -24    2    5    5    0    0 -0.29325592286E+02  0.74258646576E+02 -0.58246241411E+02  0.12521860613E+03  0.76894328327E+02 0.  0.
          5    1    3    3  501    0 -0.10043507605E+02 -0.71865718841E+02 -0.23952435071E+03  0.25031891293E+03  0.47000000000E+01 0. -1.
        -11    1    4    4    0    0  0.43447809702E+02 -0.33410016901E+02 -0.35063575578E+02  0.65064550483E+02  0.00000000000E+00 0.  1.
         12    1    4    4    0    0 -0.34508263831E+02 -0.67075405470E+02 -0.49272098715E+02  0.90098113207E+02  0.00000000000E+00 0. -1.
         -5    1    5    5    0  502  0.30429554020E+02  0.98092494636E+02  0.62156419119E+02  0.12013994215E+03  0.47000000000E+01 0.  1.
         11    1    6    6    0    0 -0.45080206330E+02  0.15850991888E+02 -0.12555696193E+02  0.49407736778E+02  0.00000000000E+00 0. -1.
        -12    1    6    6    0    0  0.15754614045E+02  0.58407654688E+02 -0.45690545218E+02  0.75810869354E+02  0.00000000000E+00 0.  1.
</event>
<event>
12    1  0.8416569E-002  0.2067559E+03  0.7818608E-02  0.1144499E+00
         21   -1    0    0  501  502  0.00000000000E+00  0.00000000000E+00  0.17329343219E+03  0.17329343219E+03  0.00000000000E+00 0.  1.
         21   -1    0    0  502  503 -0.00000000000E+00 -0.00000000000E+00 -0.27837703064E+03  0.27837703064E+03  0.00000000000E+00 0. -1.
         -6    2    1    2    0  503  0.11006635054E+03  0.21745445164E+02  0.25826412242E+02  0.20836268272E+03  0.17366789592E+03 0.  0.
        -24    2    3    3    0    0  0.25937783563E+02 -0.35428674923E+02 -0.25369032831E+02  0.94390934530E+02  0.79612191728E+02 0.  0.
          6    2    1    2  501    0 -0.11006635054E+03 -0.21745445164E+02 -0.13091001069E+03  0.24330778011E+03  0.17167929129E+03 0.  0.
         24    2    5    5    0    0 -0.59691504209E+02  0.54646326316E+02 -0.68814058199E+02  0.13262207549E+03  0.79397378079E+02 0.  0.
          5    1    5    5  501    0 -0.50374846326E+02 -0.76391771479E+02 -0.62095952489E+02  0.11068570462E+03  0.47000000000E+01 0. -1.
        -11    1    6    6    0    0 -0.75387168291E+02  0.51020043479E+02 -0.39617908993E+02  0.99276627121E+02  0.00000000000E+00 0.  1.
         12    1    6    6    0    0  0.15695664082E+02  0.36262828363E+01 -0.29196149206E+02  0.33345448365E+02  0.00000000000E+00 0. -1.
         -5    1    3    3    0  503  0.84128566973E+02  0.57174120087E+02  0.51195445073E+02  0.11397174819E+03  0.47000000000E+01 0.  1.
         13    1    4    4    0    0 -0.15865331192E+02  0.41764131353E+01 -0.32460359840E+02  0.36370676670E+02  0.00000000000E+00 0. -1.
        -14    1    4    4    0    0  0.41803114755E+02 -0.39605088058E+02  0.70913270094E+01  0.58020257859E+02  0.00000000000E+00 0.  1.
</event>
<event>
12    1  0.8416569E-002  0.2146450E+03  0.7818608E-02  0.1138918E+00
         21   -1    0    0  501  502  0.00000000000E+00  0.00000000000E+00  0.37830621962E+03  0.37830621962E+03  0.00000000000E+00 0.  1.
         21   -1    0    0  502  503 -0.00000000000E+00 -0.00000000000E+00 -0.29120836076E+03  0.29120836076E+03  0.00000000000E+00 0.  1.
         -6    2    1    2    0  503  0.13068247416E+03  0.16092348079E+01 -0.21411601877E+03  0.29964668348E+03  0.16389620720E+03 0.  0.
        -24    2    3    3    0    0  0.99599580215E+02 -0.23391649780E+01 -0.58961771824E+02  0.14129054528E+03  0.80999873941E+02 0.  0.
          6    2    1    2  501    0 -0.13068247416E+03 -0.16092348079E+01  0.30121387763E+03  0.36986789690E+03  0.17027026280E+03 0.  0.
         24    2    5    5    0    0 -0.12547911649E+03  0.54064925442E+02  0.22429205096E+03  0.27465369382E+03  0.80372274850E+02 0.  0.
          5    1    5    5  501    0 -0.52033576639E+01 -0.55674160250E+02  0.76921826669E+02  0.95214203083E+02  0.47000000000E+01 0. -1.
        -11    1    6    6    0    0 -0.73305513481E+02 -0.93027303574E+01  0.13090399115E+03  0.15031997205E+03  0.00000000000E+00 0.  1.
         12    1    6    6    0    0 -0.52173603012E+02  0.63367655800E+02  0.93388059813E+02  0.12433372177E+03  0.00000000000E+00 0. -1.
         -5    1    3    3    0  503  0.31082893943E+02  0.39483997859E+01 -0.15515424695E+03  0.15835613819E+03  0.47000000000E+01 0.  1.
         11    1    4    4    0    0  0.76092989260E+02 -0.26300552805E+02 -0.88769052566E+01  0.80997910709E+02  0.00000000000E+00 0. -1.
        -12    1    4    4    0    0  0.23506590955E+02  0.23961387827E+02 -0.50084866568E+02  0.60292634575E+02  0.00000000000E+00 0.  1.
</event>
<event>
12    1  0.8416569E-002  0.1843095E+03  0.7818608E-02  0.1163801E+00
         21   -1    0    0  501  502  0.00000000000E+00  0.00000000000E+00  0.23449660297E+03  0.23449660297E+03  0.00000000000E+00 0.  1.
         21   -1    0    0  502  503 -0.00000000000E+00 -0.00000000000E+00 -0.25230492392E+03  0.25230492392E+03  0.00000000000E+00 0.  1.
         -6    2    1    2    0  503  0.49531428793E+02  0.47250498815E+02 -0.16800310663E+03  0.24938934383E+03  0.17112576925E+03 0.  0.
        -24    2    3    3    0    0  0.82454588678E+02 -0.30488814387E-01 -0.60917562092E+02  0.12769780716E+03  0.76138166894E+02 0.  0.
          6    2    1    2  501    0 -0.49531428793E+02 -0.47250498815E+02  0.15019478568E+03  0.23741218305E+03  0.17064612196E+03 0.  0.
         24    2    5    5    0    0 -0.74398690616E+02 -0.59898345192E+02  0.16400009559E+03  0.20593162858E+03  0.79930140574E+02 0.  0.
          5    1    5    5  501    0  0.24867261823E+02  0.12647846377E+02 -0.13805309908E+02  0.31480554477E+02  0.47000000000E+01 0. -1.
        -13    1    6    6    0    0 -0.80614530216E+01 -0.26271367587E+02  0.18546860748E+01  0.27542905442E+02  0.00000000000E+00 0.  1.
         14    1    6    6    0    0 -0.66337237594E+02 -0.33626977604E+02  0.16214540952E+03  0.17838872314E+03  0.00000000000E+00 0. -1.
         -5    1    3    3    0  503 -0.32923159885E+02  0.47280987629E+02 -0.10708554454E+03  0.12169153667E+03  0.47000000000E+01 0.  1.
         13    1    4    4    0    0  0.51251536717E+02 -0.36949546462E+02 -0.41568545191E+02  0.75630238324E+02  0.00000000000E+00 0. -1.
        -14    1    4    4    0    0  0.31203051961E+02  0.36919057648E+02 -0.19349016902E+02  0.52067568834E+02  0.00000000000E+00 0.  1.
</event>
<event>
12    1  0.8416569E-002  0.1904680E+03  0.7818608E-02  0.1158047E+00
         21   -1    0    0  503  502  0.00000000000E+00  0.00000000000E+00  0.12594745656E+03  0.12594745656E+03  0.00000000000E+00 0. -1.
         21   -1    0    0  501  503 -0.00000000000E+00 -0.00000000000E+00 -0.19111777724E+04  0.19111777724E+04  0.00000000000E+00 0. -1.
          6    2    1    2  501    0 -0.11605078296E+02  0.81733534711E+02 -0.18312914895E+04  0.18411668684E+04  0.17161546829E+03 0.  0.
         24    2    3    3    0    0 -0.42850889197E+02 -0.26709512376E+01 -0.12103961523E+04  0.12137646626E+04  0.79514011792E+02 0.  0.
         -6    2    1    2    0  502  0.11605078296E+02 -0.81733534711E+02  0.46061173757E+02  0.19595836054E+03  0.17164789191E+03 0.  0.
        -24    2    5    5    0    0 -0.44355351239E+01 -0.10428374647E+03 -0.76282527304E+01  0.13537405691E+03  0.85867172388E+02 0.  0.
          5    1    3    3  501    0  0.31245810900E+02  0.84404485949E+02 -0.62089533726E+03  0.62740220575E+03  0.47000000000E+01 0. -1.
        -13    1    4    4    0    0 -0.17207632866E+02 -0.91615405597E+00 -0.46588889768E+02  0.49673600805E+02  0.00000000000E+00 0.  1.
         14    1    4    4    0    0 -0.25643256330E+02 -0.17547971816E+01 -0.11638072625E+04  0.11640910618E+04  0.00000000000E+00 0. -1.
         -5    1    5    5    0  502  0.16040613420E+02  0.22550211763E+02  0.53689426488E+02  0.60584303627E+02  0.47000000000E+01 0.  1.
         11    1    6    6    0    0  0.26742423288E+02 -0.42304142850E+02  0.28034916319E+02  0.57365095996E+02  0.00000000000E+00 0. -1.
        -12    1    6    6    0    0 -0.31177958411E+02 -0.61979603624E+02 -0.35663169050E+02  0.78008960914E+02  0.00000000000E+00 0.  1.
</event>
<event>
12    1  0.8416569E-002  0.2055081E+03  0.7818608E-02  0.1145366E+00
         21   -1    0    0  501  502  0.00000000000E+00  0.00000000000E+00  0.22356798801E+03  0.22356798801E+03  0.00000000000E+00 0. -1.
         21   -1    0    0  502  503 -0.00000000000E+00 -0.00000000000E+00 -0.20071722281E+03  0.20071722281E+03  0.00000000000E+00 0. -1.
         -6    2    1    2    0  503  0.10101588981E+03 -0.43452354470E+02  0.64714326061E+02  0.21455646687E+03  0.17249410534E+03 0.  0.
        -24    2    3    3    0    0 -0.95746296457E+01 -0.44594547175E+02  0.44016929710E+02  0.10194190381E+03  0.79839304114E+02 0.  0.
          6    2    1    2  501    0 -0.10101588981E+03  0.43452354470E+02 -0.41863560863E+02  0.20972874395E+03  0.17361241663E+03 0.  0.
         24    2    5    5    0    0 -0.60393857729E+02 -0.46028174098E+02 -0.17660170076E+02  0.10841335219E+03  0.75336328973E+02 0.  0.
          5    1    5    5  501    0 -0.40622032076E+02  0.89480528569E+02 -0.24203390788E+02  0.10131539177E+03  0.47000000000E+01 0. -1.
        -13    1    6    6    0    0  0.70353134085E+01 -0.33894587280E+02  0.75129561612E+01  0.35422919020E+02  0.00000000000E+00 0.  1.
         14    1    6    6    0    0 -0.67429171137E+02 -0.12133586818E+02 -0.25173126237E+02  0.72990433167E+02  0.00000000000E+00 0. -1.
         -5    1    3    3    0  503  0.11059051945E+03  0.11421927050E+01  0.20697396351E+02  0.11261456306E+03  0.47000000000E+01 0.  1.
         13    1    4    4    0    0  0.18895335449E+02 -0.36974606461E+02  0.56347589080E+02  0.69994328483E+02  0.00000000000E+00 0. -1.
        -14    1    4    4    0    0 -0.28469965094E+02 -0.76199407140E+01 -0.12330659370E+02  0.31947575330E+02  0.00000000000E+00 0.  1.
</event>
<event>
12    1  0.8416569E-002  0.2978405E+03  0.7818608E-02  0.1086749E+00
         21   -1    0    0  503  502  0.00000000000E+00  0.00000000000E+00  0.17632478532E+04  0.17632478532E+04  0.00000000000E+00 0. -1.
         21   -1    0    0  501  503 -0.00000000000E+00 -0.00000000000E+00 -0.61646163869E+02  0.61646163869E+02  0.00000000000E+00 0.  1.
          6    2    1    2  501    0 -0.14360985575E+03  0.19563026095E+03  0.44605685178E+03  0.53450577739E+03  0.16683741001E+03 0.  0.
         24    2    3    3    0    0 -0.13138916630E+03  0.21577448109E+03  0.43020060281E+03  0.50571957433E+03  0.82812979005E+02 0.  0.
         -6    2    1    2    0  502  0.14360985575E+03 -0.19563026095E+03  0.12555448375E+04  0.12903882397E+04  0.17266725317E+03 0.  0.
        -24    2    5    5    0    0  0.53927307058E+01 -0.39945017075E+02  0.32954404471E+03  0.34126157417E+03  0.78965173785E+02 0.  0.
          5    1    3    3  501    0 -0.12220689458E+02 -0.20144220134E+02  0.15856248965E+02  0.28786203065E+02  0.47000000000E+01 0. -1.
        -11    1    4    4    0    0 -0.66522565280E+02  0.10755325233E+03  0.13657714674E+03  0.18613508747E+03  0.00000000000E+00 0.  1.
         12    1    4    4    0    0 -0.64866601015E+02  0.10822122876E+03  0.29362345607E+03  0.31958448685E+03  0.00000000000E+00 0. -1.
         -5    1    5    5    0  502  0.13821712505E+03 -0.15568524388E+03  0.92600079283E+03  0.94912666549E+03  0.47000000000E+01 0.  1.
         13    1    6    6    0    0  0.10692283984E+01 -0.39775229599E+02  0.33321807613E+03  0.33558530719E+03  0.00000000000E+00 0. -1.
        -14    1    6    6    0    0  0.43235023075E+01 -0.16978747667E+00 -0.36740314238E+01  0.56762669857E+01  0.00000000000E+00 0.  1.
</event>
<event>
12    1  0.8416569E-002  0.2248381E+03  0.7818608E-02  0.1130996E+00
         21   -1    0    0  501  502  0.00000000000E+00  0.00000000000E+00  0.30805354474E+03  0.30805354474E+03  0.00000000000E+00 0. -1.
         21   -1    0    0  502  503 -0.00000000000E+00 -0.00000000000E+00 -0.17904836113E+03  0.17904836113E+03  0.00000000000E+00 0.  1.
         -6    2    1    2    0  503  0.91065397199E+02 -0.11545170613E+03 -0.12346285533E+02  0.22152255600E+03  0.16522048612E+03 0.  0.
        -24    2    3    3    0    0  0.88506494555E+02 -0.47154131518E+02 -0.56846988353E+02  0.13983100667E+03  0.79146817012E+02 0.  0.
          6    2    1    2  501    0 -0.91065397199E+02  0.11545170613E+03  0.14135146914E+03  0.26557934986E+03  0.17008865402E+03 0.  0.
         24    2    5    5    0    0 -0.44207117272E+02  0.14375617274E+02  0.23423808005E+01  0.87372473512E+02  0.73942780515E+02 0.  0.
          5    1    5    5  501    0 -0.46858279928E+02  0.10107608886E+03  0.13900908834E+03  0.17820687635E+03  0.47000000000E+01 0. -1.
        -11    1    6    6    0    0  0.17272225283E+02  0.14661464061E+01 -0.14203169794E+02  0.22410028641E+02  0.00000000000E+00 0.  1.
         12    1    6    6    0    0 -0.61479342555E+02  0.12909470868E+02  0.16545550594E+02  0.64962444870E+02  0.00000000000E+00 0. -1.
         -5    1    3    3    0  503  0.25589026446E+01 -0.68297574615E+02  0.44500702821E+02  0.81691549334E+02  0.47000000000E+01 0.  1.
         13    1    4    4    0    0  0.51715322360E+02 -0.29703027707E+02  0.11055741308E+02  0.60654545070E+02  0.00000000000E+00 0. -1.
        -14    1    4    4    0    0  0.36791172195E+02 -0.17451103811E+02 -0.67902729661E+02  0.79176461598E+02  0.00000000000E+00 0.  1.
</event>
<event>
12    1  0.8416569E-002  0.1876537E+03  0.7818608E-02  0.1160639E+00
         21   -1    0    0  503  502  0.00000000000E+00  0.00000000000E+00  0.13763298554E+03  0.13763298554E+03  0.00000000000E+00 0. -1.
         21   -1    0    0  501  503 -0.00000000000E+00 -0.00000000000E+00 -0.33611025412E+03  0.33611025412E+03  0.00000000000E+00 0. -1.
          6    2    1    2  501    0  0.15192765291E+02  0.72481807058E+02 -0.21521271667E+03  0.28553530841E+03  0.17242234906E+03 0.  0.
         24    2    3    3    0    0 -0.10678674571E+01 -0.28664566796E+02 -0.11729750768E+03  0.14374505743E+03  0.77981654863E+02 0.  0.
         -6    2    1    2    0  502 -0.15192765291E+02 -0.72481807058E+02  0.16735448093E+02  0.18820793125E+03  0.17221416228E+03 0.  0.
        -24    2    5    5    0    0  0.44499234583E+02 -0.56123183829E+02  0.49722448968E+02  0.11791588597E+03  0.79384133119E+02 0.  0.
          5    1    3    3  501    0  0.16260632748E+02  0.10114637385E+03 -0.97915208991E+02  0.14179025098E+03  0.47000000000E+01 0. -1.
        -13    1    4    4    0    0 -0.34556719353E+02 -0.32041527277E+02 -0.51299262115E+02  0.69659461785E+02  0.00000000000E+00 0.  1.
         14    1    4    4    0    0  0.33488851896E+02  0.33769604805E+01 -0.65998245569E+02  0.74085595641E+02  0.00000000000E+00 0. -1.
         -5    1    5    5    0  502 -0.59691999874E+02 -0.16358623228E+02 -0.32987000875E+02  0.70292045280E+02  0.47000000000E+01 0.  1.
         11    1    6    6    0    0 -0.35361842143E+01 -0.54590445945E+02  0.10101488116E+02  0.55629681371E+02  0.00000000000E+00 0. -1.
        -12    1    6    6    0    0  0.48035418797E+02 -0.15327378843E+01  0.39620960853E+02  0.62286204599E+02  0.00000000000E+00 0.  1.
</event>
<event>
12    1  0.8416569E-002  0.1748818E+03  0.7818608E-02  0.1172881E+00
         21   -1    0    0  503  502  0.00000000000E+00  0.00000000000E+00  0.48905435570E+03  0.48905435570E+03  0.00000000000E+00 0. -1.
         21   -1    0    0  501  503 -0.00000000000E+00 -0.00000000000E+00 -0.84135501634E+02  0.84135501634E+02  0.00000000000E+00 0. -1.
          6    2    1    2  501    0 -0.44738426230E+01 -0.22185050932E+02  0.57047550134E+02  0.18383386790E+03  0.17328668806E+03 0.  0.
         24    2    3    3    0    0  0.12529699441E+02  0.65215586759E+01  0.10208448684E+03  0.12758792986E+03  0.75219101949E+02 0.  0.
         -6    2    1    2    0  502  0.44738426230E+01  0.22185050932E+02  0.34787130393E+03  0.38935598943E+03  0.17341121837E+03 0.  0.
        -24    2    5    5    0    0 -0.19678188057E+01 -0.38852310588E+02  0.97328921966E+02  0.13136252117E+03  0.79182185934E+02 0.  0.
          5    1    3    3  501    0 -0.17003542064E+02 -0.28706609608E+02 -0.45036936705E+02  0.56245938037E+02  0.47000000000E+01 0. -1.
        -11    1    4    4    0    0 -0.30445752300E+02  0.93958621795E+01  0.56558578100E+02  0.64916090578E+02  0.00000000000E+00 0.  1.
         12    1    4    4    0    0  0.42975451741E+02 -0.28743035035E+01  0.45525908738E+02  0.62671839285E+02  0.00000000000E+00 0. -1.
         -5    1    5    5    0  502  0.64416614287E+01  0.61037361520E+02  0.25054238196E+03  0.25799346826E+03  0.47000000000E+01 0.  1.
         13    1    6    6    0    0  0.24312544013E+02 -0.11917095882E+02  0.88718300048E+02  0.92758038650E+02  0.00000000000E+00 0. -1.
        -14    1    6    6    0    0 -0.26280362819E+02 -0.26935214706E+02  0.86106219175E+01  0.38604482524E+02  0.00000000000E+00 0.  1.
</event>
<event>
12    1  0.8416569E-002  0.1805855E+03  0.7818608E-02  0.1168299E+00
         21   -1    0    0  501  502  0.00000000000E+00  0.00000000000E+00  0.24310738838E+03  0.24310738838E+03  0.00000000000E+00 0.  1.
         21   -1    0    0  502  503 -0.00000000000E+00 -0.00000000000E+00 -0.14788775911E+03  0.14788775911E+03  0.00000000000E+00 0.  1.
         -6    2    1    2    0  503 -0.25689754854E+02  0.33368013016E+02 -0.19092759027E+02  0.17726998861E+03  0.17113365425E+03 0.  0.
        -24    2    3    3    0    0 -0.68107433960E+02  0.25403785588E+02 -0.55136957172E+02  0.12084337574E+03  0.79240535913E+02 0.  0.
          6    2    1    2  501    0  0.25689754854E+02 -0.33368013016E+02  0.11431238830E+03  0.21372515888E+03  0.17560675848E+03 0.  0.
         24    2    5    5    0    0  0.59337119725E+02  0.33867211269E+02  0.68484623992E+02  0.12554922946E+03  0.80028641869E+02 0.  0.
          5    1    5    5  501    0 -0.33647364871E+02 -0.67235224285E+02  0.45827764310E+02  0.88175929420E+02  0.47000000000E+01 0. -1.
        -11    1    6    6    0    0  0.65550023475E+02  0.28063311668E+02  0.16915072168E+02  0.73283522744E+02  0.00000000000E+00 0.  1.
         12    1    6    6    0    0 -0.62129037509E+01  0.58038996012E+01  0.51569551824E+02  0.52265706720E+02  0.00000000000E+00 0. -1.
         -5    1    3    3    0  503  0.42417679106E+02  0.79642274277E+01  0.36044198144E+02  0.56426612863E+02  0.47000000000E+01 0.  1.
         11    1    4    4    0    0 -0.57194824405E+02 -0.19206803573E+02 -0.40401090389E+02  0.72611275617E+02  0.00000000000E+00 0. -1.
        -12    1    4    4    0    0 -0.10912609555E+02  0.44610589161E+02 -0.14735866783E+02  0.48232100125E+02  0.00000000000E+00 0.  1.
</event>
<event>
12    1  0.8416569E-002  0.1717154E+03  0.7818608E-02  0.1176157E+00
         21   -1    0    0  501  502  0.00000000000E+00  0.00000000000E+00  0.72113412467E+02  0.72113412467E+02  0.00000000000E+00 0. -1.
         21   -1    0    0  502  503 -0.00000000000E+00 -0.00000000000E+00 -0.19422022167E+04  0.19422022167E+04  0.00000000000E+00 0. -1.
         -6    2    1    2    0  503  0.47829004520E+01  0.64961009487E+01 -0.18299680035E+04  0.18379754717E+04  0.17118956041E+03 0.  0.
        -24    2    3    3    0    0 -0.55540054781E+02  0.26171937696E+02 -0.13830846102E+04  0.13865855575E+04  0.76985721992E+02 0.  0.
          6    2    1    2  501    0 -0.47829004520E+01 -0.64961009487E+01 -0.40120800795E+02  0.17634015744E+03  0.17152579108E+03 0.  0.
         24    2    5    5    0    0 -0.21932361859E+02 -0.15235734808E+02 -0.89143805726E+02  0.12346454644E+03  0.81140125805E+02 0.  0.
          5    1    5    5  501    0  0.17149461407E+02  0.87396338590E+01  0.49023004931E+02  0.52875611004E+02  0.47000000000E+01 0. -1.
        -11    1    6    6    0    0 -0.50266825888E+00 -0.46578366160E+02 -0.57775167452E+02  0.74214330446E+02  0.00000000000E+00 0.  1.
         12    1    6    6    0    0 -0.21429693600E+02  0.31342631353E+02 -0.31368638275E+02  0.49250215991E+02  0.00000000000E+00 0. -1.
         -5    1    3    3    0  503  0.60322955233E+02 -0.19675836747E+02 -0.44688339329E+03  0.45138991424E+03  0.47000000000E+01 0.  1.
         13    1    4    4    0    0 -0.49217605256E+02 -0.16939876077E+02 -0.91423729724E+03  0.91571784286E+03  0.00000000000E+00 0. -1.
        -14    1    4    4    0    0 -0.63224495250E+01  0.43111813773E+02 -0.46884731293E+03  0.47086771464E+03  0.00000000000E+00 0.  1.
</event>
<event>
12    1  0.8416569E-002  0.2170265E+03  0.7818608E-02  0.1136143E+00
         21   -1    0    0  501  502  0.00000000000E+00  0.00000000000E+00  0.38378825853E+03  0.38378825853E+03  0.00000000000E+00 0.  1.
         21   -1    0    0  502  503 -0.00000000000E+00 -0.00000000000E+00 -0.13652528572E+03  0.13652528572E+03  0.00000000000E+00 0.  1.
         -6    2    1    2    0  503 -0.61076571355E+02 -0.11797963630E+03  0.20658664339E+03  0.29963071031E+03  0.17161287592E+03 0.  0.
        -24    2    3    3    0    0 -0.19434132566E+02 -0.40888357457E+02  0.21217998996E+02  0.94543454961E+02  0.80241623304E+02 0.  0.
          6    2    1    2  501    0  0.61076571355E+02  0.11797963630E+03  0.40676329419E+02  0.22068283394E+03  0.17145497155E+03 0.  0.
         24    2    5    5    0    0  0.10592960898E+03  0.83104058927E+02  0.46189416745E+02  0.16340644253E+03  0.80254822735E+02 0.  0.
          5    1    5    5  501    0 -0.44853037620E+02  0.34875577377E+02 -0.55130873264E+01  0.57276391410E+02  0.47000000000E+01 0. -1.
        -11    1    6    6    0    0  0.41178223774E+02  0.40667314129E+02 -0.20323974397E+02  0.61339550755E+02  0.00000000000E+00 0.  1.
         12    1    6    6    0    0  0.64751385202E+02  0.42436744799E+02  0.66513391142E+02  0.10206689177E+03  0.00000000000E+00 0. -1.
         -5    1    3    3    0  503 -0.41642438789E+02 -0.77091278847E+02  0.18536864439E+03  0.20508725535E+03  0.47000000000E+01 0.  1.
         13    1    4    4    0    0  0.20177656854E+02 -0.37857310399E+01  0.33131995388E+02  0.38976899749E+02  0.00000000000E+00 0. -1.
        -14    1    4    4    0    0 -0.39611789420E+02 -0.37102626417E+02 -0.11913996392E+02  0.55566555212E+02  0.00000000000E+00 0.  1.
</event>
<event>
12    1  0.8416569E-002  0.1787252E+03  0.7818608E-02  0.1169158E+00
         21   -1    0    0  503  502  0.00000000000E+00  0.00000000000E+00  0.69592102009E+02  0.69592102009E+02  0.00000000000E+00 0.  1.
         21   -1    0    0  501  503 -0.00000000000E+00 -0.00000000000E+00 -0.88820948525E+03  0.88820948525E+03  0.00000000000E+00 0.  1.
          6    2    1    2  501    0 -0.41092593791E+02  0.26852148010E+02 -0.74296336568E+03  0.76415787716E+03  0.17185185298E+03 0.  0.
         24    2    3    3    0    0 -0.33454055463E+01 -0.41596884633E+02 -0.25578630545E+03  0.27072733665E+03  0.78263428297E+02 0.  0.
         -6    2    1    2    0  502  0.41092593791E+02 -0.26852148010E+02 -0.75654017559E+02  0.19364371009E+03  0.17136136370E+03 0.  0.
        -24    2    5    5    0    0  0.68034393616E+02 -0.67342593406E+02 -0.77228392557E+02  0.14475705135E+03  0.76332664682E+02 0.  0.
          5    1    3    3  501    0 -0.37747188245E+02  0.68449032643E+02 -0.48717706023E+03  0.49343054051E+03  0.47000000000E+01 0. -1.
        -13    1    4    4    0    0  0.59540008684E+01 -0.53615865119E+01 -0.21587860925E+03  0.21602724520E+03  0.00000000000E+00 0.  1.
         14    1    4    4    0    0 -0.92994064147E+01 -0.36235298121E+02 -0.39907696196E+02  0.54700091455E+02  0.00000000000E+00 0. -1.
         -5    1    5    5    0  502 -0.26941799825E+02  0.40490445396E+02  0.15743749983E+01  0.48886658741E+02  0.47000000000E+01 0.  1.
         13    1    6    6    0    0 -0.69815433843E+01 -0.17599288142E+02 -0.45561890354E+02  0.49339261686E+02  0.00000000000E+00 0. -1.
        -14    1    6    6    0    0  0.75015937001E+02 -0.49743305264E+02 -0.31666502203E+02  0.95417789665E+02  0.00000000000E+00 0.  1.
</event>
<event>
12    1  0.8416569E-002  0.1830447E+03  0.7818608E-02  0.1168078E+00
         21   -1    0    0  501  502  0.00000000000E+00  0.00000000000E+00  0.14765496375E+04  0.14765496375E+04  0.00000000000E+00 0.  1.
         21   -1    0    0  502  503 -0.00000000000E+00 -0.00000000000E+00 -0.21120852032E+02  0.21120852032E+02  0.00000000000E+00 0.  1.
         -6    2    1    2    0  503 -0.43473040889E+02 -0.45997872801E+02  0.76781899831E+03  0.78933603442E+03  0.17175462580E+03 0.  0.
        -24    2    3    3    0    0  0.16849671986E+02 -0.43303803045E+02  0.65197328614E+03  0.65861340161E+03  0.80890766704E+02 0.  0.
          6    2    1    2  501    0  0.43473040889E+02  0.45997872801E+02  0.68760978714E+03  0.70833445509E+03  0.15787580978E+03 0.  0.
         24    2    5    5    0    0  0.82000753071E+02  0.10299375292E+02  0.43600545376E+03  0.45126326280E+03  0.81899792494E+02 0.  0.
          5    1    5    5  501    0 -0.38527712182E+02  0.35698497508E+02  0.25160433338E+03  0.25707119229E+03  0.47000000000E+01 0. -1.
        -13    1    6    6    0    0  0.31340969885E+02 -0.30366976827E+02  0.26030809570E+03  0.26394074025E+03  0.00000000000E+00 0.  1.
         14    1    6    6    0    0  0.50659783186E+02  0.40666352120E+02  0.17569735806E+03  0.18732252255E+03  0.00000000000E+00 0. -1.
         -5    1    3    3    0  503 -0.60322712875E+02 -0.26940697554E+01  0.11584571218E+03  0.13072263282E+03  0.47000000000E+01 0.  1.
         11    1    4    4    0    0  0.26914560508E+01 -0.21891186452E+02  0.36790874304E+02  0.42895645607E+02  0.00000000000E+00 0. -1.
        -12    1    4    4    0    0  0.14158215935E+02 -0.21412616594E+02  0.61518241183E+03  0.61571775600E+03  0.00000000000E+00 0.  1.
</event>
<event>
12    1  0.8416569E-002  0.1837017E+03  0.7818608E-02  0.1164315E+00
         21   -1    0    0  503  502  0.00000000000E+00  0.00000000000E+00  0.17965508421E+04  0.17965508421E+04  0.00000000000E+00 0.  1.
         21   -1    0    0  501  503 -0.00000000000E+00 -0.00000000000E+00 -0.25775086829E+02  0.25775086829E+02  0.00000000000E+00 0.  1.
          6    2    1    2  501    0  0.38399962961E+01 -0.64351385479E+02  0.41050617884E+03  0.44973506079E+03  0.17201876542E+03 0.  0.
         24    2    3    3    0    0  0.22198163321E+02 -0.83519650885E+02  0.16255044574E+03  0.20031858124E+03  0.78972121924E+02 0.  0.
         -6    2    1    2    0  502 -0.38399962961E+01  0.64351385479E+02  0.13602695765E+04  0.13725908682E+04  0.17180373786E+03 0.  0.
        -24    2    5    5    0    0  0.30871276857E+02  0.75754948512E+02  0.59092568530E+03  0.60236555918E+03  0.83422139641E+02 0.  0.
          5    1    3    3  501    0 -0.18358167025E+02  0.19168265406E+02  0.24795573310E+03  0.24941647955E+03  0.47000000000E+01 0. -1.
        -11    1    4    4    0    0  0.12757212282E+02 -0.24932754468E+02  0.12929384133E+03  0.13229242653E+03  0.00000000000E+00 0.  1.
         12    1    4    4    0    0  0.94409510383E+01 -0.58586896417E+02  0.33256604411E+02  0.68026154715E+02  0.00000000000E+00 0. -1.
         -5    1    5    5    0  502 -0.34711273153E+02 -0.11403563033E+02  0.76934389116E+03  0.77022530898E+03  0.47000000000E+01 0.  1.
         13    1    6    6    0    0  0.48426184557E+02  0.44910727416E+02  0.21878803197E+03  0.22853943143E+03  0.00000000000E+00 0. -1.
        -14    1    6    6    0    0 -0.17554907700E+02  0.30844221095E+02  0.37213765333E+03  0.37382612775E+03  0.00000000000E+00 0.  1.
</event>
<event>
12    1  0.8416569E-002  0.2166231E+03  0.7818608E-02  0.1136510E+00
         21   -1    0    0  503  502  0.00000000000E+00  0.00000000000E+00  0.68446853762E+02  0.68446853762E+02  0.00000000000E+00 0.  1.
         21   -1    0    0  501  503 -0.00000000000E+00 -0.00000000000E+00 -0.79524011909E+03  0.79524011909E+03  0.00000000000E+00 0.  1.
          6    2    1    2  501    0  0.12575920013E+03  0.37787860944E+02 -0.52445594086E+03  0.56726503706E+03  0.17173319280E+03 0.  0.
         24    2    3    3    0    0  0.68727603825E+01 -0.34243793358E+01 -0.29287567445E+03  0.30366696404E+03  0.79865531734E+02 0.  0.
         -6    2    1    2    0  502 -0.12575920013E+03 -0.37787860944E+02 -0.20233732446E+03  0.29642193579E+03  0.17228543844E+03 0.  0.
        -24    2    5    5    0    0 -0.10295126639E+03  0.14261011377E+02 -0.19997121218E+03  0.23935201869E+03  0.80613667905E+02 0.  0.
          5    1    3    3  501    0  0.11888643974E+03  0.41212240279E+02 -0.23158026642E+03  0.26359807301E+03  0.47000000000E+01 0. -1.
        -11    1    4    4    0    0  0.53054413493E+01 -0.40146166708E+02 -0.11203584151E+03  0.11912972842E+03  0.00000000000E+00 0.  1.
         12    1    4    4    0    0  0.15673190331E+01  0.36721787372E+02 -0.18083983293E+03  0.18453723562E+03  0.00000000000E+00 0. -1.
         -5    1    5    5    0  502 -0.22807933734E+02 -0.52048872321E+02 -0.23661122864E+01  0.57069917105E+02  0.47000000000E+01 0.  1.
         13    1    6    6    0    0 -0.84049653077E+02 -0.17278763042E+02 -0.17499870032E+03  0.19490368121E+03  0.00000000000E+00 0. -1.
        -14    1    6    6    0    0 -0.18901613315E+02  0.31539774419E+02 -0.24972511858E+02  0.44448337481E+02  0.00000000000E+00 0.  1.
</event>
<event>
12    1  0.8416569E-002  0.1828710E+03  0.7818608E-02  0.1167124E+00
         21   -1    0    0  501  502  0.00000000000E+00  0.00000000000E+00  0.97461137827E+02  0.97461137827E+02  0.00000000000E+00 0.  1.
         21   -1    0    0  502  503 -0.00000000000E+00 -0.00000000000E+00 -0.36548544315E+03  0.36548544315E+03  0.00000000000E+00 0.  1.
         -6    2    1    2    0  503  0.57704261741E+02  0.23843213078E+02 -0.21164313346E+03  0.27970452262E+03  0.17188229518E+03 0.  0.
        -24    2    3    3    0    0  0.42302478611E+02 -0.25589599079E+02 -0.43513915367E+02  0.10372059773E+03  0.80125990071E+02 0.  0.
          6    2    1    2  501    0 -0.57704261741E+02 -0.23843213078E+02 -0.56381171863E+02  0.18324205836E+03  0.16278984852E+03 0.  0.
         24    2    5    5    0    0 -0.44788227184E+02 -0.14140340284E+02 -0.10015168535E+03  0.13634944125E+03  0.79717473206E+02 0.  0.
          5    1    5    5  501    0 -0.12916034557E+02 -0.97028727946E+01  0.43770513483E+02  0.46892617113E+02  0.47000000000E+01 0. -1.
        -13    1    6    6    0    0 -0.62140860195E+02  0.87054450334E+01 -0.77985564992E+02  0.10009505296E+03  0.00000000000E+00 0.  1.
         14    1    6    6    0    0  0.17352633011E+02 -0.22845785317E+02 -0.22166120353E+02  0.36254388295E+02  0.00000000000E+00 0. -1.
         -5    1    3    3    0  503  0.15401783130E+02  0.49432812158E+02 -0.16812921810E+03  0.17598392489E+03  0.47000000000E+01 0.  1.
         13    1    4    4    0    0  0.42747445397E+01 -0.47592894358E+02 -0.10921546879E+02  0.49016703485E+02  0.00000000000E+00 0. -1.
        -14    1    4    4    0    0  0.38027734072E+02  0.22003295279E+02 -0.32592368488E+02  0.54703894244E+02  0.00000000000E+00 0.  1.
</event>
<event>
12    1  0.8416569E-002  0.1837609E+03  0.7818608E-02  0.1164506E+00
         21   -1    0    0  501  502  0.00000000000E+00  0.00000000000E+00  0.18017108926E+03  0.18017108926E+03  0.00000000000E+00 0. -1.
         21   -1    0    0  502  503 -0.00000000000E+00 -0.00000000000E+00 -0.40043406009E+03  0.40043406009E+03  0.00000000000E+00 0. -1.
         -6    2    1    2    0  503  0.55984013658E+02  0.39963017325E+02 -0.32231754401E+03  0.37040716552E+03  0.16906098470E+03 0.  0.
        -24    2    3    3    0    0  0.37062251025E+02  0.23154125299E+02 -0.68221164154E+02  0.11501015651E+03  0.81630171461E+02 0.  0.
          6    2    1    2  501    0 -0.55984013658E+02 -0.39963017325E+02  0.10205457318E+03  0.21019798384E+03  0.17040188955E+03 0.  0.
         24    2    5    5    0    0 -0.80982762240E+02  0.24179699222E+02  0.57128879476E+02  0.12785945415E+03  0.77080902369E+02 0.  0.
          5    1    5    5  501    0  0.24998748582E+02 -0.64142716547E+02  0.44925693706E+02  0.82338529691E+02  0.47000000000E+01 0. -1.
        -11    1    6    6    0    0  0.84239958804E+01 -0.72302195623E+00  0.29995573234E+02  0.31164416904E+02  0.00000000000E+00 0.  1.
         12    1    6    6    0    0 -0.89406758121E+02  0.24902721179E+02  0.27133306242E+02  0.96695037243E+02  0.00000000000E+00 0. -1.
         -5    1    3    3    0  503  0.18921762633E+02  0.16808892025E+02 -0.25409637986E+03  0.25539700900E+03  0.47000000000E+01 0.  1.
         13    1    4    4    0    0  0.61709529140E+02  0.27499985695E+02 -0.49279143194E+02  0.83622659333E+02  0.00000000000E+00 0. -1.
        -14    1    4    4    0    0 -0.24647278115E+02 -0.43458603956E+01 -0.18942020960E+02  0.31387497178E+02  0.00000000000E+00 0.  1.
</event>
<event>
12    1  0.8416569E-002  0.2108588E+03  0.7818608E-02  0.1141006E+00
         21   -1    0    0  503  502  0.00000000000E+00  0.00000000000E+00  0.15183252924E+03  0.15183252924E+03  0.00000000000E+00 0. -1.
         21   -1    0    0  501  503 -0.00000000000E+00 -0.00000000000E+00 -0.38645295029E+03  0.38645295029E+03  0.00000000000E+00 0. -1.
          6    2    1    2  501    0 -0.27615150842E+01  0.12167694116E+03  0.15871970659E+02  0.21085934002E+03  0.17145506072E+03 0.  0.
         24    2    3    3    0    0 -0.38091831583E+01  0.13793522460E+03  0.54983837662E+02  0.16823003638E+03  0.78977760615E+02 0.  0.
         -6    2    1    2    0  502  0.27615150842E+01 -0.12167694116E+03 -0.25049239170E+03  0.32742613951E+03  0.17218749826E+03 0.  0.
        -24    2    5    5    0    0  0.86755261028E+01 -0.15625370649E+03 -0.20121571188E+03  0.26675646503E+03  0.78617831212E+02 0.  0.
          5    1    3    3  501    0  0.10476680741E+01 -0.16258283444E+02 -0.39111867003E+02  0.42629303647E+02  0.47000000000E+01 0. -1.
        -11    1    4    4    0    0 -0.40260218899E+02  0.53435749160E+02  0.25426814931E+02  0.71573650400E+02  0.00000000000E+00 0.  1.
         12    1    4    4    0    0  0.36451035741E+02  0.84499475444E+02  0.29557022731E+02  0.96656385975E+02  0.00000000000E+00 0. -1.
         -5    1    5    5    0  502 -0.59140110186E+01  0.34576765326E+02 -0.49276679828E+02  0.60669674481E+02  0.47000000000E+01 0.  1.
         11    1    6    6    0    0 -0.46437950061E+01 -0.89925065684E+02 -0.16972894116E+03  0.19213535786E+03  0.00000000000E+00 0. -1.
        -12    1    6    6    0    0  0.13319321109E+02 -0.66328640802E+02 -0.31486770712E+02  0.74621107171E+02  0.00000000000E+00 0.  1.
</event>
<event>
12    1  0.8416569E-002  0.3247163E+03  0.7818608E-02  0.1073548E+00
         21   -1    0    0  501  502  0.00000000000E+00  0.00000000000E+00  0.13200180669E+03  0.13200180669E+03  0.00000000000E+00 0.  1.
         21   -1    0    0  502  503 -0.00000000000E+00 -0.00000000000E+00 -0.99896943463E+03  0.99896943463E+03  0.00000000000E+00 0. -1.
         -6    2    1    2    0  503  0.16690682608E+03  0.21779453347E+03 -0.68752973706E+03  0.76035373331E+03  0.17363269568E+03 0.  0.
        -24    2    3    3    0    0  0.14947586771E+03  0.20409111828E+03 -0.68895011031E+03  0.73764405789E+03  0.73961355147E+02 0.  0.
          6    2    1    2  501    0 -0.16690682608E+03 -0.21779453347E+03 -0.17943789087E+03  0.37061750801E+03  0.17282081229E+03 0.  0.
         24    2    5    5    0    0 -0.11308880329E+03 -0.10465631615E+03 -0.31342738463E+02  0.17657910984E+03  0.80347948565E+02 0.  0.
          5    1    5    5  501    0 -0.53818022786E+02 -0.11313821733E+03 -0.14809515241E+03  0.19403839817E+03  0.47000000000E+01 0. -1.
        -13    1    6    6    0    0 -0.70429963160E+02 -0.98276584169E+02 -0.48346323628E+02  0.13021533594E+03  0.00000000000E+00 0.  1.
         14    1    6    6    0    0 -0.42658840133E+02 -0.63797319775E+01  0.17003585165E+02  0.46363773898E+02  0.00000000000E+00 0. -1.
         -5    1    3    3    0  503  0.17430958368E+02  0.13703415196E+02  0.14203732429E+01  0.22709675423E+02  0.47000000000E+01 0.  1.
         11    1    4    4    0    0  0.13122013201E+03  0.17648112211E+03 -0.50601505809E+03  0.55173865962E+03  0.00000000000E+00 0. -1.
        -12    1    4    4    0    0  0.18255735696E+02  0.27609996165E+02 -0.18293505222E+03  0.18590539826E+03  0.00000000000E+00 0.  1.
</event>
<event>
12    1  0.8416569E-002  0.2131066E+03  0.7818608E-02  0.1139285E+00
         21   -1    0    0  503  502  0.00000000000E+00  0.00000000000E+00  0.12635355616E+03  0.12635355616E+03  0.00000000000E+00 0. -1.
         21   -1    0    0  501  503 -0.00000000000E+00 -0.00000000000E+00 -0.46280092273E+03  0.46280092273E+03  0.00000000000E+00 0.  1.
          6    2    1    2  501    0  0.96871278066E+02 -0.79363192600E+02 -0.30810987430E+03  0.37417205805E+03  0.17143650000E+03 0.  0.
         24    2    3    3    0    0  0.12740306391E+03 -0.32984722600E+02 -0.19937807903E+03  0.25199249459E+03  0.80181458657E+02 0.  0.
         -6    2    1    2    0  502 -0.96871278066E+02  0.79363192600E+02 -0.28337492269E+02  0.21498242084E+03  0.17242931000E+03 0.  0.
        -24    2    5    5    0    0  0.52595498656E+01  0.62286605849E+02 -0.43420409470E+02  0.11023558213E+03  0.79745015361E+02 0.  0.
          5    1    3    3  501    0 -0.30531785839E+02 -0.46378470000E+02 -0.10873179527E+03  0.12217956346E+03  0.47000000000E+01 0. -1.
        -13    1    4    4    0    0  0.17574707647E+02 -0.14947274516E+02 -0.10050270634E+03  0.10311685287E+03  0.00000000000E+00 0.  1.
         14    1    4    4    0    0  0.10982835626E+03 -0.18037448085E+02 -0.98875372694E+02  0.14887564172E+03  0.00000000000E+00 0. -1.
         -5    1    5    5    0  502 -0.10213082793E+03  0.17076586751E+02  0.15082917200E+02  0.10474683871E+03  0.47000000000E+01 0.  1.
         13    1    6    6    0    0 -0.36923130822E+02  0.26288221182E+02 -0.13878304799E+02  0.47402484183E+02  0.00000000000E+00 0. -1.
        -14    1    6    6    0    0  0.42182680688E+02  0.35998384668E+02 -0.29542104671E+02  0.62833097943E+02  0.00000000000E+00 0.  1.
</event>
<event>
12    1  0.8416569E-002  0.2266302E+03  0.7818608E-02  0.1129114E+00
         21   -1    0    0  501  502  0.00000000000E+00  0.00000000000E+00  0.39303260966E+03  0.39303260966E+03  0.00000000000E+00 0.  1.
         21   -1    0    0  502  503 -0.00000000000E+00 -0.00000000000E+00 -0.13433325674E+03  0.13433325674E+03  0.00000000000E+00 0.  1.
         -6    2    1    2    0  503 -0.14032561073E+03  0.41865270925E+02  0.17446644945E+03  0.28600665125E+03  0.17296613725E+03 0.  0.
        -24    2    3    3    0    0 -0.28859396631E+02 -0.54447111575E+01  0.13266776617E+03  0.15781862055E+03  0.80271234938E+02 0.  0.
          6    2    1    2  501    0  0.14032561073E+03 -0.41865270925E+02  0.84232903468E+02  0.24135921516E+03  0.17238071464E+03 0.  0.
         24    2    5    5    0    0  0.17126672110E+03 -0.23901947745E+02  0.66285216643E+02  0.20105732001E+03  0.78273387051E+02 0.  0.
          5    1    5    5  501    0 -0.30941110369E+02 -0.17963323180E+02  0.17947686826E+02  0.40301895153E+02  0.47000000000E+01 0. -1.
        -13    1    6    6    0    0  0.52354673789E+02 -0.44584914449E+02  0.29983722480E+02  0.75018998112E+02  0.00000000000E+00 0.  1.
         14    1    6    6    0    0  0.11891204731E+03  0.20682966704E+02  0.36301494162E+02  0.12603832189E+03  0.00000000000E+00 0. -1.
         -5    1    3    3    0  503 -0.11146621410E+03  0.47309982082E+02  0.41798683288E+02  0.12818803070E+03  0.47000000000E+01 0.  1.
         13    1    4    4    0    0 -0.37773694523E+02  0.22643641542E+02  0.11573510123E+03  0.12383133754E+03  0.00000000000E+00 0. -1.
        -14    1    4    4    0    0  0.89142978919E+01 -0.28088352700E+02  0.16932664932E+02  0.33987283004E+02  0.00000000000E+00 0.  1.
</event>
<event>
12    1  0.8416569E-002  0.1886125E+03  0.7818608E-02  0.1160036E+00
         21   -1    0    0  503  502  0.00000000000E+00  0.00000000000E+00  0.87296864138E+02  0.87296864138E+02  0.00000000000E+00 0.  1.
         21   -1    0    0  501  503 -0.00000000000E+00 -0.00000000000E+00 -0.52286933943E+03  0.52286933943E+03  0.00000000000E+00 0.  1.
          6    2    1    2  501    0  0.73050904294E+02 -0.14782909240E+02 -0.36355321458E+03  0.40956761484E+03  0.17326200471E+03 0.  0.
         24    2    3    3    0    0  0.53193078487E+02 -0.40930806934E+02 -0.36191750593E+03  0.37635901141E+03  0.78466488455E+02 0.  0.
         -6    2    1    2    0  502 -0.73050904294E+02  0.14782909240E+02 -0.72019260710E+02  0.20059858872E+03  0.17174996611E+03 0.  0.
        -24    2    5    5    0    0 -0.11379988222E+03  0.20391383011E+02 -0.35264937300E+02  0.14523700936E+03  0.80522986718E+02 0.  0.
          5    1    3    3  501    0  0.19857825806E+02  0.26147897694E+02 -0.16357086448E+01  0.33208603439E+02  0.47000000000E+01 0. -1.
        -11    1    4    4    0    0  0.54466162471E+02  0.68601042969E+01 -0.21269734435E+03  0.21966743996E+03  0.00000000000E+00 0.  1.
         12    1    4    4    0    0 -0.12730839840E+01 -0.47790911231E+02 -0.14922016158E+03  0.15669157144E+03  0.00000000000E+00 0. -1.
         -5    1    5    5    0  502  0.40748977926E+02 -0.56084737711E+01 -0.36754323410E+02  0.55361579361E+02  0.47000000000E+01 0.  1.
         11    1    6    6    0    0 -0.75464732021E+02  0.41230966767E+02 -0.49644840666E+02  0.99295159017E+02  0.00000000000E+00 0. -1.
        -12    1    6    6    0    0 -0.38335150199E+02 -0.20839583756E+02  0.14379903366E+02  0.45941850340E+02  0.00000000000E+00 0.  1.
</event>
<event>
12    1  0.8416569E-002  0.1789528E+03  0.7818608E-02  0.1171220E+00
         21   -1    0    0  503  502  0.00000000000E+00  0.00000000000E+00  0.23711427103E+02  0.23711427103E+02  0.00000000000E+00 0.  1.
         21   -1    0    0  501  503 -0.00000000000E+00 -0.00000000000E+00 -0.14248168049E+04  0.14248168049E+04  0.00000000000E+00 0.  1.
          6    2    1    2  501    0  0.40577729581E+02  0.29047089852E+02 -0.91457915291E+03  0.93013467468E+03  0.16188020428E+03 0.  0.
         24    2    3    3    0    0  0.51460132191E+02 -0.30880975273E+02 -0.66154167390E+03  0.66982744186E+03  0.86195334676E+02 0.  0.
         -6    2    1    2    0  502 -0.40577729581E+02 -0.29047089852E+02 -0.48652622488E+03  0.51839355731E+03  0.17185408695E+03 0.  0.
        -24    2    5    5    0    0 -0.84134382766E+02 -0.53859959317E+02 -0.36525664728E+03  0.38708757505E+03  0.80280027364E+02 0.  0.
          5    1    3    3  501    0 -0.10882402611E+02  0.59928065125E+02 -0.25303747901E+03  0.26030723282E+03  0.47000000000E+01 0. -1.
        -13    1    4    4    0    0  0.72961562983E+02 -0.23965943094E+02 -0.39951866213E+03  0.40683278812E+03  0.00000000000E+00 0.  1.
         14    1    4    4    0    0 -0.21501430792E+02 -0.69150321788E+01 -0.26202301178E+03  0.26299465374E+03  0.00000000000E+00 0. -1.
         -5    1    5    5    0  502  0.43556653185E+02  0.24812869465E+02 -0.12126957760E+03  0.13130598226E+03  0.47000000000E+01 0.  1.
         13    1    6    6    0    0  0.15661322908E+02 -0.63355960977E+01 -0.35870508347E+02  0.39649844668E+02  0.00000000000E+00 0. -1.
        -14    1    6    6    0    0 -0.99795705674E+02 -0.47524363219E+02 -0.32938613893E+03  0.34743773038E+03  0.00000000000E+00 0.  1.
</event>
<event>
12    1  0.8416569E-002  0.2188654E+03  0.7818608E-02  0.1135525E+00
         21   -1    0    0  503  502  0.00000000000E+00  0.00000000000E+00  0.20497538496E+03  0.20497538496E+03  0.00000000000E+00 0.  1.
         21   -1    0    0  501  503 -0.00000000000E+00 -0.00000000000E+00 -0.26904018949E+03  0.26904018949E+03  0.00000000000E+00 0.  1.
          6    2    1    2  501    0 -0.12432296761E+03 -0.44945738750E+02  0.58849818314E+02  0.22663930918E+03  0.17442980147E+03 0.  0.
         24    2    3    3    0    0 -0.15059490180E+03 -0.24986486956E+02  0.16633570494E+02  0.17285373641E+03  0.79363653813E+02 0.  0.
         -6    2    1    2    0  502  0.12432296761E+03  0.44945738750E+02 -0.12291462285E+03  0.24737626528E+03  0.16914695505E+03 0.  0.
        -24    2    5    5    0    0  0.81122091867E+02  0.89407932272E+02 -0.51766203857E+02  0.15289139959E+03  0.78239811258E+02 0.  0.
          5    1    3    3  501    0  0.26271934182E+02 -0.19959251794E+02  0.42216247820E+02  0.53785572767E+02  0.47000000000E+01 0. -1.
        -11    1    4    4    0    0 -0.61648534847E+02 -0.39513670738E+02  0.34547987309E+02  0.80965643646E+02  0.00000000000E+00 0.  1.
         12    1    4    4    0    0 -0.88946366950E+02  0.14527183782E+02 -0.17914416815E+02  0.91888092765E+02  0.00000000000E+00 0. -1.
         -5    1    5    5    0  502  0.43200875747E+02 -0.44462193522E+02 -0.71148418992E+02  0.94484865683E+02  0.47000000000E+01 0.  1.
         11    1    6    6    0    0  0.12063921136E+02  0.41013565354E+02 -0.53579394126E+02  0.68544891941E+02  0.00000000000E+00 0. -1.
        -12    1    6    6    0    0  0.69058170732E+02  0.48394366918E+02  0.18131902694E+01  0.84346507653E+02  0.00000000000E+00 0.  1.
</event>
<event>
12    1  0.8416569E-002  0.1855009E+03  0.7818608E-02  0.1162648E+00
         21   -1    0    0  501  502  0.00000000000E+00  0.00000000000E+00  0.25185601539E+03  0.25185601539E+03  0.00000000000E+00 0. -1.
         21   -1    0    0  502  503 -0.00000000000E+00 -0.00000000000E+00 -0.24041702449E+03  0.24041702449E+03  0.00000000000E+00 0.  1.
         -6    2    1    2    0  503  0.34129314805E+02  0.59736327739E+02 -0.15616024002E+03  0.24248014395E+03  0.17227118350E+03 0.  0.
        -24    2    3    3    0    0  0.15080613101E+02  0.70454081540E+02 -0.17989862985E+03  0.20987148813E+03  0.80568740894E+02 0.  0.
          6    2    1    2  501    0 -0.34129314805E+02 -0.59736327739E+02  0.16759923092E+03  0.24979289594E+03  0.17197019996E+03 0.  0.
         24    2    5    5    0    0 -0.44636780812E+02 -0.87810913761E+02  0.17714241205E+03  0.21798485406E+03  0.80216978732E+02 0.  0.
          5    1    5    5  501    0  0.10507466008E+02  0.28074586022E+02 -0.95431811231E+01  0.31808041879E+02  0.47000000000E+01 0. -1.
        -11    1    6    6    0    0 -0.49478356679E+02 -0.16803400094E+02  0.50247955088E+02  0.72493579198E+02  0.00000000000E+00 0.  1.
         12    1    6    6    0    0  0.48415758670E+01 -0.71007513667E+02  0.12689445696E+03  0.14549127486E+03  0.00000000000E+00 0. -1.
         -5    1    3    3    0  503  0.19048701704E+02 -0.10717753801E+02  0.23738389825E+02  0.32608655824E+02  0.47000000000E+01 0.  1.
         11    1    4    4    0    0 -0.18235995610E+02  0.61229865173E+02 -0.70503364449E+02  0.95143955791E+02  0.00000000000E+00 0. -1.
        -12    1    4    4    0    0  0.33316608711E+02  0.92242163673E+01 -0.10939526540E+03  0.11472753233E+03  0.00000000000E+00 0.  1.
</event>
<event>
12    1  0.8416569E-002  0.2277894E+03  0.7818608E-02  0.1128259E+00
         21   -1    0    0  503  502  0.00000000000E+00  0.00000000000E+00  0.54276227538E+03  0.54276227538E+03  0.00000000000E+00 0.  1.
         21   -1    0    0  501  503 -0.00000000000E+00 -0.00000000000E+00 -0.20797720084E+03  0.20797720084E+03  0.00000000000E+00 0. -1.
          6    2    1    2  501    0  0.59530874138E+02  0.13451014280E+03 -0.10873853114E+03  0.25214023267E+03  0.17353306684E+03 0.  0.
         24    2    3    3    0    0  0.85003033754E+02  0.12458246707E+03 -0.12807294969E+03  0.21832752202E+03  0.92292575975E+02 0.  0.
         -6    2    1    2    0  502 -0.59530874138E+02 -0.13451014280E+03  0.44352360568E+03  0.49859924354E+03  0.17392847201E+03 0.  0.
        -24    2    5    5    0    0  0.79092891007E+00 -0.11752520167E+03  0.39598605482E+03  0.41980129376E+03  0.74935786090E+02 0.  0.
          5    1    3    3  501    0 -0.25472159616E+02  0.99276757303E+01  0.19334418550E+02  0.33812710651E+02  0.47000000000E+01 0. -1.
        -11    1    4    4    0    0 -0.19654102822E+02  0.21314422271E+02 -0.29181629878E+02  0.41135822306E+02  0.00000000000E+00 0.  1.
         12    1    4    4    0    0  0.10465713658E+03  0.10326804480E+03 -0.98891319817E+02  0.17719169971E+03  0.00000000000E+00 0. -1.
         -5    1    5    5    0  502 -0.60321803048E+02 -0.16984941125E+02  0.47537550863E+02  0.78797949783E+02  0.47000000000E+01 0.  1.
         13    1    6    6    0    0 -0.10253649938E+02 -0.36135438414E+02  0.41717986891E+02  0.56136420233E+02  0.00000000000E+00 0. -1.
        -14    1    6    6    0    0  0.11044578848E+02 -0.81389763258E+02  0.35426806793E+03  0.36366487353E+03  0.00000000000E+00 0.  1.
</event>
<event>
12    1  0.8416569E-002  0.1859292E+03  0.7818608E-02  0.1164130E+00
         21   -1    0    0  501  502  0.00000000000E+00  0.00000000000E+00  0.11637789277E+03  0.11637789277E+03  0.00000000000E+00 0. -1.
         21   -1    0    0  502  503 -0.00000000000E+00 -0.00000000000E+00 -0.32251546450E+03  0.32251546450E+03  0.00000000000E+00 0. -1.
         -6    2    1    2    0  503 -0.20828743330E+02  0.42952835392E+02 -0.25317383913E+02  0.17953725153E+03  0.17121294385E+03 0.  0.
        -24    2    3    3    0    0  0.47192973621E+02  0.54950114684E+02 -0.29720517294E+02  0.11016603076E+03  0.77501956894E+02 0.  0.
          6    2    1    2  501    0  0.20828743330E+02 -0.42952835392E+02 -0.18082018782E+03  0.25935610575E+03  0.17969659609E+03 0.  0.
         24    2    5    5    0    0  0.53657434395E+02 -0.84646175591E+01 -0.30930845952E+02  0.10201550408E+03  0.80620567014E+02 0.  0.
          5    1    5    5  501    0 -0.32828691065E+02 -0.34488217833E+02 -0.14988934187E+03  0.15734060166E+03  0.47000000000E+01 0. -1.
        -13    1    6    6    0    0  0.37518685392E+02  0.10692942596E+02 -0.54897287553E+02  0.67347627690E+02  0.00000000000E+00 0.  1.
         14    1    6    6    0    0  0.16138749003E+02 -0.19157560155E+02  0.23966441601E+02  0.34667876392E+02  0.00000000000E+00 0. -1.
         -5    1    3    3    0  503 -0.68021716951E+02 -0.11997279293E+02  0.44031333820E+01  0.69371220769E+02  0.47000000000E+01 0.  1.
         11    1    4    4    0    0  0.11007681021E+02  0.58938029034E+02 -0.40315827408E+02  0.72251133191E+02  0.00000000000E+00 0. -1.
        -12    1    4    4    0    0  0.36185292599E+02 -0.39879143495E+01  0.10595310113E+02  0.37914897570E+02  0.00000000000E+00 0.  1.
</event>
<event>
12    1  0.8416569E-002  0.2323474E+03  0.7818608E-02  0.1125359E+00
         21   -1    0    0  503  502  0.00000000000E+00  0.00000000000E+00  0.47625675929E+02  0.47625675929E+02  0.00000000000E+00 0. -1.
         21   -1    0    0  501  503 -0.00000000000E+00 -0.00000000000E+00 -0.11417374212E+04  0.11417374212E+04  0.00000000000E+00 0. -1.
          6    2    1    2  501    0  0.15205039303E+03  0.25099441985E+02 -0.62465687044E+03  0.66646943047E+03  0.17388499635E+03 0.  0.
         24    2    3    3    0    0  0.11912580543E+03 -0.36306691916E+02 -0.52029943801E+03  0.54090149885E+03  0.79710682246E+02 0.  0.
         -6    2    1    2    0  502 -0.15205039303E+03 -0.25099441985E+02 -0.46945487480E+03  0.52289366662E+03  0.17111575940E+03 0.  0.
        -24    2    5    5    0    0 -0.17031396740E+03 -0.39196945781E+02 -0.33203846460E+03  0.38347466665E+03  0.79120350963E+02 0.  0.
          5    1    3    3  501    0  0.32924587602E+02  0.61406133901E+02 -0.10435743243E+03  0.12556793163E+03  0.47000000000E+01 0. -1.
        -13    1    4    4    0    0  0.13441929005E+02  0.16330205092E+02 -0.16841481994E+03  0.16973777608E+03  0.00000000000E+00 0.  1.
         14    1    4    4    0    0  0.10568387642E+03 -0.52636897008E+02 -0.35188461807E+03  0.37116372276E+03  0.00000000000E+00 0. -1.
         -5    1    5    5    0  502  0.18263574373E+02  0.14097503796E+02 -0.13741641020E+03  0.13941899998E+03  0.47000000000E+01 0.  1.
         13    1    6    6    0    0 -0.36388989829E+02 -0.29949558180E+02 -0.15040522043E+03  0.15761619507E+03  0.00000000000E+00 0. -1.
        -14    1    6    6    0    0 -0.13392497757E+03 -0.92473876010E+01 -0.18163324416E+03  0.22585847157E+03  0.00000000000E+00 0.  1.
</event>
<event>
12    1  0.8416569E-002  0.2039033E+03  0.7818608E-02  0.1147421E+00
         21   -1    0    0  503  502  0.00000000000E+00  0.00000000000E+00  0.34951521784E+03  0.34951521784E+03  0.00000000000E+00 0. -1.
         21   -1    0    0  501  503 -0.00000000000E+00 -0.00000000000E+00 -0.12030679208E+03  0.12030679208E+03  0.00000000000E+00 0. -1.
          6    2    1    2  501    0  0.89479940673E+01 -0.10777263026E+03  0.73245725696E+02  0.21665989826E+03  0.17286286111E+03 0.  0.
         24    2    3    3    0    0  0.24641705585E+02 -0.31945296106E+02  0.10021966918E+03  0.13452731756E+03  0.80161720807E+02 0.  0.
         -6    2    1    2    0  502 -0.89479940673E+01  0.10777263026E+03  0.15596270007E+03  0.25316211166E+03  0.16754606691E+03 0.  0.
        -24    2    5    5    0    0  0.37129337053E+02  0.94082496127E+02  0.15863753332E+03  0.20479078804E+03  0.80890643104E+02 0.  0.
          5    1    3    3  501    0 -0.15693711517E+02 -0.75827334150E+02 -0.26973943480E+02  0.82132580699E+02  0.47000000000E+01 0. -1.
        -11    1    4    4    0    0  0.39502905062E+02  0.11923001297E+02  0.32704368365E+02  0.52651810780E+02  0.00000000000E+00 0.  1.
         12    1    4    4    0    0 -0.14861199477E+02 -0.43868297403E+02  0.67515300812E+02  0.81875506781E+02  0.00000000000E+00 0. -1.
         -5    1    5    5    0  502 -0.46077331120E+02  0.13690134129E+02 -0.26748332488E+01  0.48371323617E+02  0.47000000000E+01 0.  1.
         11    1    6    6    0    0  0.19630933944E+02  0.21799788104E+02 -0.27416722276E+00  0.29337339630E+02  0.00000000000E+00 0. -1.
        -12    1    6    6    0    0  0.17498403108E+02  0.72282708023E+02  0.15891170054E+03  0.17545344841E+03  0.00000000000E+00 0.  1.
</event>
<event>
12    1  0.8416569E-002  0.2004944E+03  0.7818608E-02  0.1149524E+00
         21   -1    0    0  501  502  0.00000000000E+00  0.00000000000E+00  0.12590455203E+03  0.12590455203E+03  0.00000000000E+00 0. -1.
         21   -1    0    0  502  503 -0.00000000000E+00 -0.00000000000E+00 -0.34682424732E+03  0.34682424732E+03  0.00000000000E+00 0.  1.
         -6    2    1    2    0  503  0.80245911022E+02 -0.61888778704E+02 -0.41782446069E+02  0.20386418994E+03  0.17188719550E+03 0.  0.
        -24    2    3    3    0    0  0.39888450937E+02 -0.10296072799E+03 -0.96793729493E+01  0.13777087026E+03  0.81823727652E+02 0.  0.
          6    2    1    2  501    0 -0.80245911022E+02  0.61888778704E+02 -0.17913724923E+03  0.26886460941E+03  0.17299825712E+03 0.  0.
         24    2    5    5    0    0 -0.11373139787E+02  0.47787416307E+02 -0.17510822241E+03  0.19829103010E+03  0.79015552880E+02 0.  0.
          5    1    5    5  501    0 -0.68872771234E+02  0.14101362397E+02 -0.40290268119E+01  0.70573579306E+02  0.47000000000E+01 0. -1.
        -11    1    6    6    0    0 -0.42548376943E+02  0.94016261653E+01 -0.83783025003E+02  0.94437017285E+02  0.00000000000E+00 0.  1.
         12    1    6    6    0    0  0.31175237156E+02  0.38385790142E+02 -0.91325197411E+02  0.10385401282E+03  0.00000000000E+00 0. -1.
         -5    1    3    3    0  503  0.40357460085E+02  0.41071949283E+02 -0.32103073120E+02  0.66093319678E+02  0.47000000000E+01 0.  1.
         11    1    4    4    0    0  0.53475728908E+02 -0.36042142825E+02  0.13065926994E+02  0.65798237741E+02  0.00000000000E+00 0. -1.
        -12    1    4    4    0    0 -0.13587277971E+02 -0.66918585162E+02 -0.22745299944E+02  0.71972632523E+02  0.00000000000E+00 0.  1.
</event>
<event>
12    1  0.8416569E-002  0.1760903E+03  0.7818608E-02  0.1171927E+00
         21   -1    0    0  503  502  0.00000000000E+00  0.00000000000E+00  0.28131181890E+03  0.28131181890E+03  0.00000000000E+00 0.  1.
         21   -1    0    0  501  503 -0.00000000000E+00 -0.00000000000E+00 -0.21025304079E+03  0.21025304079E+03  0.00000000000E+00 0.  1.
          6    2    1    2  501    0  0.18701651425E+02  0.31365270502E+02 -0.13466164021E+03  0.22077216688E+03  0.17109371808E+03 0.  0.
         24    2    3    3    0    0  0.52321565251E+02  0.72544774422E+02 -0.81565010103E+02  0.14549008218E+03  0.80710734438E+02 0.  0.
         -6    2    1    2    0  502 -0.18701651425E+02 -0.31365270502E+02  0.20572041832E+03  0.27079269280E+03  0.17226218390E+03 0.  0.
        -24    2    5    5    0    0 -0.20874995450E+02  0.20828057765E+02  0.20139208520E+03  0.21816483509E+03  0.78533749843E+02 0.  0.
          5    1    3    3  501    0 -0.33619913826E+02 -0.41179503920E+02 -0.53096630104E+02  0.75282084703E+02  0.47000000000E+01 0. -1.
        -11    1    4    4    0    0 -0.12543191864E+02  0.49398559157E+02 -0.27352951145E+02  0.57842313623E+02  0.00000000000E+00 0.  1.
         12    1    4    4    0    0  0.64864757115E+02  0.23146215265E+02 -0.54212058957E+02  0.87647768557E+02  0.00000000000E+00 0. -1.
         -5    1    5    5    0  502  0.21733440252E+01 -0.52193328267E+02  0.43283331184E+01  0.52627857713E+02  0.47000000000E+01 0.  1.
         13    1    6    6    0    0 -0.13401990219E+01  0.49133328908E+02  0.10862383655E+03  0.11922675039E+03  0.00000000000E+00 0. -1.
        -14    1    6    6    0    0 -0.19534796428E+02 -0.28305271143E+02  0.92768248650E+02  0.98938084697E+02  0.00000000000E+00 0.  1.
</event>
<event>
12    1  0.8416569E-002  0.2649028E+03  0.7818608E-02  0.1104313E+00
         21   -1    0    0  503  502  0.00000000000E+00  0.00000000000E+00  0.82315285598E+03  0.82315285598E+03  0.00000000000E+00 0.  1.
         21   -1    0    0  501  503 -0.00000000000E+00 -0.00000000000E+00 -0.92412417493E+02  0.92412417493E+02  0.00000000000E+00 0. -1.
          6    2    1    2  501    0 -0.17245696547E+03 -0.10209316896E+03  0.23601181439E+03  0.35437911066E+03  0.17239071162E+03 0.  0.
         24    2    3    3    0    0 -0.26188868072E+02 -0.16555176519E+02  0.36697897906E+02  0.92731959383E+02  0.79325594229E+02 0.  0.
         -6    2    1    2    0  502  0.17245696547E+03  0.10209316896E+03  0.49472862410E+03  0.56118616281E+03  0.17323128396E+03 0.  0.
        -24    2    5    5    0    0  0.13240098862E+03  0.13878054099E+03  0.41495563244E+03  0.46456181419E+03  0.82700918793E+02 0.  0.
          5    1    3    3  501    0 -0.14626809740E+03 -0.85537992439E+02  0.19931391648E+03  0.26164715127E+03  0.47000000000E+01 0. -1.
        -11    1    4    4    0    0 -0.16304001207E+02 -0.48165000930E+02  0.29678237895E+02  0.58876867906E+02  0.00000000000E+00 0.  1.
         12    1    4    4    0    0 -0.98848668649E+01  0.31609824410E+02  0.70196600110E+01  0.33855091476E+02  0.00000000000E+00 0. -1.
         -5    1    5    5    0  502  0.40055976853E+02 -0.36687372028E+02  0.79772991656E+02  0.96624348617E+02  0.47000000000E+01 0.  1.
         11    1    6    6    0    0 -0.35406749504E+01  0.12416210250E+02  0.38054337633E+01  0.13460311371E+02  0.00000000000E+00 0. -1.
        -12    1    6    6    0    0  0.13594166357E+03  0.12636433074E+03  0.41115019868E+03  0.45110150282E+03  0.00000000000E+00 0.  1.
</event>
<event>
12    1  0.8416569E-002  0.1842059E+03  0.7818608E-02  0.1164060E+00
         21   -1    0    0  503  502  0.00000000000E+00  0.00000000000E+00  0.27285820762E+04  0.27285820762E+04  0.00000000000E+00 0. -1.
         21   -1    0    0  501  503 -0.00000000000E+00 -0.00000000000E+00 -0.28734888290E+02  0.28734888290E+02  0.00000000000E+00 0. -1.
          6    2    1    2  501    0  0.27288511515E+02 -0.60103279033E+02  0.30738785875E+03  0.35777670781E+03  0.17076243712E+03 0.  0.
         24    2    3    3    0    0  0.63196959855E+02 -0.74708605143E+02  0.15220726853E+03  0.19775846574E+03  0.79788011394E+02 0.  0.
         -6    2    1    2    0  502 -0.27288511515E+02  0.60103279033E+02  0.23924593291E+04  0.23995402566E+04  0.17197306398E+03 0.  0.
        -24    2    5    5    0    0  0.42203079204E+02 -0.37199782286E+00  0.12956568829E+04  0.12988659014E+04  0.80898907830E+02 0.  0.
          5    1    3    3  501    0 -0.35908448340E+02  0.14605326110E+02  0.15518059022E+03  0.16001824206E+03  0.47000000000E+01 0. -1.
        -13    1    4    4    0    0 -0.96606815183E+00 -0.33861277844E+02  0.99793848979E+02  0.10538658225E+03  0.00000000000E+00 0.  1.
         14    1    4    4    0    0  0.64163028007E+02 -0.40847327300E+02  0.52413419553E+02  0.92371883491E+02  0.00000000000E+00 0. -1.
         -5    1    5    5    0  502 -0.69491590719E+02  0.60475276856E+02  0.10968024462E+04  0.11006743552E+04  0.47000000000E+01 0.  1.
         13    1    6    6    0    0  0.44379110920E+01  0.37280964338E+02  0.59402053190E+03  0.59520581119E+03  0.00000000000E+00 0. -1.
        -14    1    6    6    0    0  0.37765168112E+02 -0.37652962160E+02  0.70163635102E+03  0.70366009021E+03  0.00000000000E+00 0.  1.
</event>
<event>
12    1  0.8416569E-002  0.1902705E+03  0.7818608E-02  0.1158456E+00
         21   -1    0    0  503  502  0.00000000000E+00  0.00000000000E+00  0.21701508115E+02  0.21701508115E+02  0.00000000000E+00 0. -1.
         21   -1    0    0  501  503 -0.00000000000E+00 -0.00000000000E+00 -0.17014043804E+04  0.17014043804E+04  0.00000000000E+00 0. -1.
          6    2    1    2  501    0 -0.72842027102E+02  0.30705816397E+02 -0.97819414157E+03  0.99652729594E+03  0.17307242673E+03 0.  0.
         24    2    3    3    0    0 -0.43346614813E+01  0.55437418811E+02 -0.77134026060E+03  0.77717477288E+03  0.77089125618E+02 0.  0.
         -6    2    1    2    0  502  0.72842027102E+02 -0.30705816397E+02 -0.70150873073E+03  0.72657859258E+03  0.17191027845E+03 0.  0.
        -24    2    5    5    0    0  0.10828797704E+03 -0.45951124791E+02 -0.50463197685E+03  0.52590128690E+03  0.89894046902E+02 0.  0.
          5    1    3    3  501    0 -0.68507365621E+02 -0.24731602414E+02 -0.20685388097E+03  0.21935252306E+03  0.47000000000E+01 0. -1.
        -13    1    4    4    0    0  0.13160776889E+02  0.69177740460E+02 -0.50161633243E+03  0.50653500451E+03  0.00000000000E+00 0.  1.
         14    1    4    4    0    0 -0.17495438371E+02 -0.13740321649E+02 -0.26972392816E+03  0.27063976838E+03  0.00000000000E+00 0. -1.
         -5    1    5    5    0  502 -0.35445949941E+02  0.15245308394E+02 -0.19687675388E+03  0.20067730568E+03  0.47000000000E+01 0.  1.
         13    1    6    6    0    0 -0.34114474266E+01  0.16756583948E+02 -0.32802598292E+02  0.36992317228E+02  0.00000000000E+00 0. -1.
        -14    1    6    6    0    0  0.11169942447E+03 -0.62707708739E+02 -0.47182937855E+03  0.48890896968E+03  0.00000000000E+00 0.  1.
</event>
<event>
12    1  0.8416569E-002  0.2449491E+03  0.7818608E-02  0.1116808E+00
         21   -1    0    0  501  502  0.00000000000E+00  0.00000000000E+00  0.70750820226E+03  0.70750820226E+03  0.00000000000E+00 0.  1.
         21   -1    0    0  502  503 -0.00000000000E+00 -0.00000000000E+00 -0.98393191139E+02  0.98393191139E+02  0.00000000000E+00 0.  1.
         -6    2    1    2    0  503 -0.45943185977E+02  0.16849652695E+03  0.15081792006E+03  0.28625122710E+03  0.16938672933E+03 0.  0.
        -24    2    3    3    0    0  0.17486768001E+02  0.50695956574E+02  0.18885580543E+02  0.98292280377E+02  0.80180048399E+02 0.  0.
          6    2    1    2  501    0  0.45943185977E+02 -0.16849652695E+03  0.45829709106E+03  0.51965016630E+03  0.17175044607E+03 0.  0.
         24    2    5    5    0    0  0.10557813741E+01 -0.39335949684E+02  0.88824725190E+02  0.12565872863E+03  0.79698511055E+02 0.  0.
          5    1    5    5  501    0  0.44887404603E+02 -0.12916057727E+03  0.36947236587E+03  0.39399143766E+03  0.47000000000E+01 0. -1.
        -13    1    6    6    0    0  0.21273695343E+02 -0.19448166469E+02  0.92660951630E+02  0.97040472225E+02  0.00000000000E+00 0.  1.
         14    1    6    6    0    0 -0.20217913969E+02 -0.19887783215E+02 -0.38362264407E+01  0.28618256407E+02  0.00000000000E+00 0. -1.
         -5    1    3    3    0  503 -0.63429953978E+02  0.11780057038E+03  0.13193233952E+03  0.18795894673E+03  0.47000000000E+01 0.  1.
         13    1    4    4    0    0  0.79689948294E-01  0.94653788774E+01  0.45330750808E+02  0.46308495080E+02  0.00000000000E+00 0. -1.
        -14    1    4    4    0    0  0.17407078053E+02  0.41230577696E+02 -0.26445170264E+02  0.51983785297E+02  0.00000000000E+00 0.  1.
</event>
<event>
12    1  0.8416569E-002  0.2967088E+03  0.7818608E-02  0.1086925E+00
         21   -1    0    0  503  502  0.00000000000E+00  0.00000000000E+00  0.17616358122E+04  0.17616358122E+04  0.00000000000E+00 0. -1.
         21   -1    0    0  501  503 -0.00000000000E+00 -0.00000000000E+00 -0.90726204959E+02  0.90726204959E+02  0.00000000000E+00 0.  1.
          6    2    1    2  501    0 -0.16795324472E+03 -0.17387302588E+03  0.21428087320E+03  0.36582128288E+03  0.17166478046E+03 0.  0.
         24    2    3    3    0    0 -0.14278778454E+02 -0.42200169902E+02  0.73983501318E+02  0.11953075294E+03  0.82639606586E+02 0.  0.
         -6    2    1    2    0  502  0.16795324472E+03  0.17387302588E+03  0.14566287340E+04  0.14865407343E+04  0.17203477642E+03 0.  0.
        -24    2    5    5    0    0  0.81833680624E+02  0.96702766605E+02  0.11327412496E+04  0.11425973947E+04  0.79861702740E+02 0.  0.
          5    1    3    3  501    0 -0.15367446627E+03 -0.13167285598E+03  0.14029737189E+03  0.24629052994E+03  0.47000000000E+01 0. -1.
        -11    1    4    4    0    0 -0.19697300411E+02 -0.59017865804E+02  0.79562903565E+02  0.10100172153E+03  0.00000000000E+00 0.  1.
         12    1    4    4    0    0  0.54185219573E+01  0.16817695902E+02 -0.55794022470E+01  0.18529031412E+02  0.00000000000E+00 0. -1.
         -5    1    5    5    0  502  0.86119564095E+02  0.77170259273E+02  0.32388748442E+03  0.34394333952E+03  0.47000000000E+01 0.  1.
         13    1    6    6    0    0  0.29947470852E+02  0.61360064371E+02  0.30834062858E+03  0.31580983478E+03  0.00000000000E+00 0. -1.
        -14    1    6    6    0    0  0.51886209772E+02  0.35342702233E+02  0.82440062101E+03  0.82678755995E+03  0.00000000000E+00 0.  1.
</event>
<event>
12    1  0.8416569E-002  0.1848986E+03  0.7818608E-02  0.1163273E+00
         21   -1    0    0  503  502  0.00000000000E+00  0.00000000000E+00  0.39065688938E+03  0.39065688938E+03  0.00000000000E+00 0. -1.
         21   -1    0    0  501  503 -0.00000000000E+00 -0.00000000000E+00 -0.27120725556E+03  0.27120725556E+03  0.00000000000E+00 0. -1.
          6    2    1    2  501    0 -0.39074357978E+02 -0.54225497203E+02 -0.21285064757E+03  0.28158666453E+03  0.17180931719E+03 0.  0.
         24    2    3    3    0    0 -0.87530715793E+02 -0.32375742117E+02 -0.10735231803E+03  0.16336053398E+03  0.80326390371E+02 0.  0.
         -6    2    1    2    0  502  0.39074357978E+02  0.54225497203E+02  0.33230028139E+03  0.38027748041E+03  0.17239569337E+03 0.  0.
        -24    2    5    5    0    0  0.54148687292E+02  0.89113417548E+02  0.19200360579E+03  0.23484828948E+03  0.86110701488E+02 0.  0.
          5    1    3    3  501    0  0.48456357816E+02 -0.21849755086E+02 -0.10549832954E+03  0.11822613055E+03  0.47000000000E+01 0. -1.
        -11    1    4    4    0    0  0.14950860574E+02 -0.10605769976E+02 -0.17408839432E+02  0.25279997608E+02  0.00000000000E+00 0.  1.
         12    1    4    4    0    0 -0.10248157637E+03 -0.21769972140E+02 -0.89943478600E+02  0.13808053637E+03  0.00000000000E+00 0. -1.
         -5    1    5    5    0  502 -0.15074329315E+02 -0.34887920345E+02  0.14029667560E+03  0.14542919093E+03  0.47000000000E+01 0.  1.
         13    1    6    6    0    0  0.28707190118E+01  0.19349329033E+02  0.12185598128E+03  0.12341603516E+03  0.00000000000E+00 0. -1.
        -14    1    6    6    0    0  0.51277968281E+02  0.69764088515E+02  0.70147624517E+02  0.11143225432E+03  0.00000000000E+00 0.  1.
</event>
<event>
12    1  0.8416569E-002  0.1838527E+03  0.7818608E-02  0.1164639E+00
         21   -1    0    0  501  502  0.00000000000E+00  0.00000000000E+00  0.52892781780E+02  0.52892781780E+02  0.00000000000E+00 0. -1.
         21   -1    0    0  502  503 -0.00000000000E+00 -0.00000000000E+00 -0.20673849204E+04  0.20673849204E+04  0.00000000000E+00 0. -1.
         -6    2    1    2    0  503  0.46426539505E+02  0.38727149053E+02 -0.18925609817E+04  0.19014701939E+04  0.17362779988E+03 0.  0.
        -24    2    3    3    0    0  0.66405212534E+02  0.49635692727E+01 -0.17592928993E+04  0.17624680410E+04  0.82144998890E+02 0.  0.
          6    2    1    2  501    0 -0.46426539505E+02 -0.38727149053E+02 -0.12193115686E+03  0.21880750830E+03  0.17133097511E+03 0.  0.
         24    2    5    5    0    0 -0.27719977836E+02  0.15559661074E+01 -0.14595866046E+03  0.16809187220E+03  0.78613794818E+02 0.  0.
          5    1    5    5  501    0 -0.18706561669E+02 -0.40283115161E+02  0.24027503593E+02  0.50715636104E+02  0.47000000000E+01 0. -1.
        -13    1    6    6    0    0 -0.31219093720E+02  0.35958291023E+02 -0.98108170206E+02  0.10905431476E+03  0.00000000000E+00 0.  1.
         14    1    6    6    0    0  0.34991158845E+01 -0.34402324916E+02 -0.47850490252E+02  0.59037557444E+02  0.00000000000E+00 0. -1.
         -5    1    3    3    0  503 -0.19978673030E+02  0.33763579780E+02 -0.13326808248E+03  0.13900215288E+03  0.47000000000E+01 0.  1.
         13    1    4    4    0    0  0.60910932046E+02  0.33589840012E+02 -0.14855500445E+04  0.14871776470E+04  0.00000000000E+00 0. -1.
        -14    1    4    4    0    0  0.54942804883E+01 -0.28626270739E+02 -0.27374285474E+03  0.27529039397E+03  0.00000000000E+00 0.  1.
</event>
<event>
12    1  0.8416569E-002  0.2126433E+03  0.7818608E-02  0.1139569E+00
         21   -1    0    0  503  502  0.00000000000E+00  0.00000000000E+00  0.12811630791E+03  0.12811630791E+03  0.00000000000E+00 0. -1.
         21   -1    0    0  501  503 -0.00000000000E+00 -0.00000000000E+00 -0.76237167073E+03  0.76237167073E+03  0.00000000000E+00 0.  1.
          6    2    1    2  501    0  0.77924646716E+02  0.96930479833E+02 -0.64382723595E+03  0.67803442707E+03  0.17248016133E+03 0.  0.
         24    2    3    3    0    0  0.47788162630E+02  0.39111140566E+02 -0.57259482545E+03  0.58135231925E+03  0.79323988583E+02 0.  0.
         -6    2    1    2    0  502 -0.77924646716E+02 -0.96930479833E+02  0.95718731316E+01  0.21245355157E+03  0.17198000562E+03 0.  0.
        -24    2    5    5    0    0 -0.66755809633E+02 -0.13278607320E+03  0.17424828984E+02  0.17379963311E+03  0.88398011563E+02 0.  0.
          5    1    3    3  501    0  0.30136484086E+02  0.57819339267E+02 -0.71232410507E+02  0.96682107822E+02  0.47000000000E+01 0. -1.
        -11    1    4    4    0    0  0.61999008265E+02  0.86631524047E+01 -0.28458098320E+03  0.29138507723E+03  0.00000000000E+00 0.  1.
         12    1    4    4    0    0 -0.14210845634E+02  0.30447988161E+02 -0.28801384224E+03  0.28996724201E+03  0.00000000000E+00 0. -1.
         -5    1    5    5    0  502 -0.11168837083E+02  0.35855593362E+02 -0.78529558522E+01  0.38653918466E+02  0.47000000000E+01 0.  1.
         13    1    6    6    0    0 -0.22005719608E+02 -0.74822164874E+02  0.51057248115E+02  0.93217222856E+02  0.00000000000E+00 0. -1.
        -14    1    6    6    0    0 -0.44750090026E+02 -0.57963908321E+02 -0.33632419131E+02  0.80582410250E+02  0.00000000000E+00 0.  1.
</event>
<event>
12    1  0.8416569E-002  0.2485410E+03  0.7818608E-02  0.1114488E+00
         21   -1    0    0  503  502  0.00000000000E+00  0.00000000000E+00  0.85111316949E+02  0.85111316949E+02  0.00000000000E+00 0. -1.
         21   -1    0    0  501  503 -0.00000000000E+00 -0.00000000000E+00 -0.94680429267E+03  0.94680429267E+03  0.00000000000E+00 0. -1.
          6    2    1    2  501    0 -0.69410629740E+02 -0.16399396231E+03 -0.68170121103E+03  0.72504484612E+03  0.17106031850E+03 0.  0.
         24    2    3    3    0    0  0.84269061501E+01 -0.14184795179E+03 -0.50492120221E+03  0.53056505464E+03  0.79762162623E+02 0.  0.
         -6    2    1    2    0  502  0.69410629740E+02  0.16399396231E+03 -0.17999176470E+03  0.30687076351E+03  0.17338043413E+03 0.  0.
        -24    2    5    5    0    0  0.10963253660E+03  0.15748902723E+03 -0.14458200037E+03  0.25268536528E+03  0.78255045943E+02 0.  0.
          5    1    3    3  501    0 -0.77837535890E+02 -0.22146010525E+02 -0.17678000882E+03  0.19447979148E+03  0.47000000000E+01 0. -1.
        -13    1    4    4    0    0 -0.12067992466E+02 -0.33187328326E+02 -0.43246143447E+02  0.55832464809E+02  0.00000000000E+00 0.  1.
         14    1    4    4    0    0  0.20494898616E+02 -0.10866062346E+03 -0.46167505876E+03  0.47473258983E+03  0.00000000000E+00 0. -1.
         -5    1    5    5    0  502 -0.40221906856E+02  0.65049350793E+01 -0.35409764329E+02  0.54185398230E+02  0.47000000000E+01 0.  1.
         13    1    6    6    0    0  0.56444843364E+02  0.74848741115E+02 -0.23327033526E+02  0.96604890570E+02  0.00000000000E+00 0. -1.
        -14    1    6    6    0    0  0.53187693232E+02  0.82640286119E+02 -0.12125496684E+03  0.15608047471E+03  0.00000000000E+00 0.  1.
</event>
<event>
12    1  0.8416569E-002  0.2036534E+03  0.7818608E-02  0.1147016E+00
         21   -1    0    0  503  502  0.00000000000E+00  0.00000000000E+00  0.59971572503E+03  0.59971572503E+03  0.00000000000E+00 0. -1.
         21   -1    0    0  501  503 -0.00000000000E+00 -0.00000000000E+00 -0.22455120810E+03  0.22455120810E+03  0.00000000000E+00 0. -1.
          6    2    1    2  501    0  0.18326475687E+02  0.10633683483E+03 -0.15562476245E+03  0.25630800511E+03  0.17271752847E+03 0.  0.
         24    2    3    3    0    0  0.63764508483E+02  0.32004773672E+02 -0.31474651260E+02  0.10456740326E+03  0.69666850603E+02 0.  0.
         -6    2    1    2    0  502 -0.18326475687E+02 -0.10633683483E+03  0.53078927938E+03  0.56795892803E+03  0.17087042653E+03 0.  0.
        -24    2    5    5    0    0 -0.31882473607E+02 -0.20439486133E+01  0.18760996827E+03  0.20899527976E+03  0.86376252069E+02 0.  0.
          5    1    3    3  501    0 -0.45438032797E+02  0.74332061162E+02 -0.12415011119E+03  0.15174060185E+03  0.47000000000E+01 0. -1.
        -13    1    4    4    0    0  0.25071535450E+02 -0.12901597853E+02 -0.35286516451E+02  0.45168256113E+02  0.00000000000E+00 0.  1.
         14    1    4    4    0    0  0.38692973033E+02  0.44906371526E+02  0.38118651911E+01  0.59399147149E+02  0.00000000000E+00 0. -1.
         -5    1    5    5    0  502  0.13555997920E+02 -0.10429288622E+03  0.34317931111E+03  0.35896364826E+03  0.47000000000E+01 0.  1.
         11    1    6    6    0    0 -0.30127487646E+02 -0.29493894670E+02  0.17257071620E+03  0.17764629865E+03  0.00000000000E+00 0. -1.
        -12    1    6    6    0    0 -0.17549859611E+01  0.27449946056E+02  0.15039252070E+02  0.31348981117E+02  0.00000000000E+00 0.  1.
</event>
<event>
12    1  0.8416569E-002  0.1971212E+03  0.7818608E-02  0.1152432E+00
         21   -1    0    0  501  502  0.00000000000E+00  0.00000000000E+00  0.57502326805E+03  0.57502326805E+03  0.00000000000E+00 0. -1.
         21   -1    0    0  502  503 -0.00000000000E+00 -0.00000000000E+00 -0.77328451816E+02  0.77328451816E+02  0.00000000000E+00 0. -1.
         -6    2    1    2    0  503  0.58133554008E+02 -0.77119517170E+02  0.13013190291E+03  0.23526748049E+03  0.17055657475E+03 0.  0.
        -24    2    3    3    0    0 -0.14425219482E+02 -0.37849716356E+02  0.93750865657E+01  0.88941845138E+02  0.78626150758E+02 0.  0.
          6    2    1    2  501    0 -0.58133554008E+02  0.77119517170E+02  0.36756291333E+03  0.41708423938E+03  0.17184247862E+03 0.  0.
         24    2    5    5    0    0 -0.78482054910E+02  0.94716006004E+02  0.36006882453E+03  0.38876553046E+03  0.79740357023E+02 0.  0.
          5    1    5    5  501    0  0.20348500901E+02 -0.17596488834E+02  0.74940887954E+01  0.28318708923E+02  0.47000000000E+01 0. -1.
        -11    1    6    6    0    0 -0.26829250383E+02 -0.72950141223E+01  0.11532079158E+03  0.11862508536E+03  0.00000000000E+00 0.  1.
         12    1    6    6    0    0 -0.51652804526E+02  0.10201102013E+03  0.24474803295E+03  0.27014044510E+03  0.00000000000E+00 0. -1.
         -5    1    3    3    0  503  0.72558773490E+02 -0.39269800814E+02  0.12075681635E+03  0.14632563535E+03  0.47000000000E+01 0.  1.
         11    1    4    4    0    0 -0.25302701997E+02 -0.55822574926E+02  0.21177958846E+02  0.64845142768E+02  0.00000000000E+00 0. -1.
        -12    1    4    4    0    0  0.10877482516E+02  0.17972858569E+02 -0.11802872280E+02  0.24096702370E+02  0.00000000000E+00 0.  1.
</event>
<event>
12    1  0.8416569E-002  0.2125103E+03  0.7818608E-02  0.1140946E+00
         21   -1    0    0  503  502  0.00000000000E+00  0.00000000000E+00  0.63914823487E+02  0.63914823487E+02  0.00000000000E+00 0. -1.
         21   -1    0    0  501  503 -0.00000000000E+00 -0.00000000000E+00 -0.79299892098E+03  0.79299892098E+03  0.00000000000E+00 0. -1.
          6    2    1    2  501    0  0.53512855450E+02  0.11474139092E+03 -0.52843126070E+03  0.56956144638E+03  0.17067932336E+03 0.  0.
         24    2    3    3    0    0 -0.23577292052E+02  0.88482754228E+02 -0.38757283981E+03  0.40678678133E+03  0.82931856460E+02 0.  0.
         -6    2    1    2    0  502 -0.53512855450E+02 -0.11474139092E+03 -0.20065283679E+03  0.28735229809E+03  0.16211283052E+03 0.  0.
        -24    2    5    5    0    0 -0.83946196580E+02 -0.91731741666E+02 -0.20028727421E+03  0.24890940737E+03  0.79870047697E+02 0.  0.
          5    1    3    3  501    0  0.77090147502E+02  0.26258636688E+02 -0.14085842090E+03  0.16277466504E+03  0.47000000000E+01 0. -1.
        -13    1    4    4    0    0 -0.79547164178E+01  0.14016157952E+02 -0.52254643630E+01  0.16942127223E+02  0.00000000000E+00 0.  1.
         14    1    4    4    0    0 -0.15622575634E+02  0.74466596276E+02 -0.38234737544E+03  0.38984465411E+03  0.00000000000E+00 0. -1.
         -5    1    5    5    0  502  0.30433341130E+02 -0.23009649250E+02 -0.36556258459E+00  0.38442890720E+02  0.47000000000E+01 0.  1.
         11    1    6    6    0    0 -0.69887456996E+02 -0.18136853433E+02 -0.86573076645E+02  0.11273020756E+03  0.00000000000E+00 0. -1.
        -12    1    6    6    0    0 -0.14058739584E+02 -0.73594888233E+02 -0.11371419756E+03  0.13617919981E+03  0.00000000000E+00 0.  1.
</event>
<event>
12    1  0.8416569E-002  0.2324278E+03  0.7818608E-02  0.1125024E+00
         21   -1    0    0  501  502  0.00000000000E+00  0.00000000000E+00  0.19387074451E+03  0.19387074451E+03  0.00000000000E+00 0. -1.
         21   -1    0    0  502  503 -0.00000000000E+00 -0.00000000000E+00 -0.43783314641E+03  0.43783314641E+03  0.00000000000E+00 0.  1.
         -6    2    1    2    0  503  0.15643907302E+03 -0.38522924186E+01  0.68722847851E+02  0.24237471105E+03  0.17185647214E+03 0.  0.
        -24    2    3    3    0    0  0.12676223898E+03 -0.47604667383E+02  0.94129320831E+02  0.18353115862E+03  0.80551148690E+02 0.  0.
          6    2    1    2  501    0 -0.15643907302E+03  0.38522924186E+01 -0.31268524976E+03  0.38932917987E+03  0.17122243182E+03 0.  0.
         24    2    5    5    0    0 -0.15990080020E+03  0.43472723659E+02 -0.21274574665E+03  0.28166416044E+03  0.81337586336E+02 0.  0.
          5    1    5    5  501    0  0.34617271859E+01 -0.39620431240E+02 -0.99939503113E+02  0.10766501943E+03  0.47000000000E+01 0. -1.
        -11    1    6    6    0    0 -0.16887562726E+02 -0.15288225593E+02 -0.60620502609E+02  0.64759284687E+02  0.00000000000E+00 0.  1.
         12    1    6    6    0    0 -0.14301323748E+03  0.58760949252E+02 -0.15212524404E+03  0.21690487575E+03  0.00000000000E+00 0. -1.
         -5    1    3    3    0  503  0.29676834040E+02  0.43752374965E+02 -0.25406472980E+02  0.58843552433E+02  0.47000000000E+01 0.  1.
         13    1    4    4    0    0  0.27118303495E+01  0.53267079058E+01  0.36293370576E+02  0.36782286345E+02  0.00000000000E+00 0. -1.
        -14    1    4    4    0    0  0.12405040863E+03 -0.52931375289E+02  0.57835950254E+02  0.14674887227E+03  0.00000000000E+00 0.  1.
</event>
<event>
12    1  0.8416569E-002  0.1827726E+03  0.7818608E-02  0.1166225E+00
         21   -1    0    0  501  502  0.00000000000E+00  0.00000000000E+00  0.17705065069E+02  0.17705065069E+02  0.00000000000E+00 0.  1.
         21   -1    0    0  502  503 -0.00000000000E+00 -0.00000000000E+00 -0.19241710479E+04  0.19241710479E+04  0.00000000000E+00 0.  1.
         -6    2    1    2    0  503 -0.58513689654E+02  0.19516854060E+02 -0.73977378558E+03  0.76095422049E+03  0.16727615605E+03 0.  0.
        -24    2    3    3    0    0 -0.53884228187E+02 -0.49718888334E+02 -0.41789942354E+03  0.43165160150E+03  0.79421023509E+02 0.  0.
          6    2    1    2  501    0  0.58513689654E+02 -0.19516854060E+02 -0.11666921973E+04  0.11809218925E+04  0.17204962522E+03 0.  0.
         24    2    5    5    0    0 -0.22930361735E+02 -0.41065252379E+02 -0.68018255303E+03  0.68714948448E+03  0.85521647181E+02 0.  0.
          5    1    5    5  501    0  0.81444051388E+02  0.21548398319E+02 -0.48650964422E+03  0.49377240800E+03  0.47000000000E+01 0. -1.
        -11    1    6    6    0    0  0.19099026610E+02 -0.27504203288E+02 -0.10357749312E+03  0.10885564339E+03  0.00000000000E+00 0.  1.
         12    1    6    6    0    0 -0.42029388345E+02 -0.13561049091E+02 -0.57660505991E+03  0.57829384110E+03  0.00000000000E+00 0. -1.
         -5    1    3    3    0  503 -0.46294614670E+01  0.69235742394E+02 -0.32187436204E+03  0.32930261899E+03  0.47000000000E+01 0.  1.
         11    1    4    4    0    0 -0.12752503680E+02 -0.21949327364E+02 -0.24994483605E+02  0.35624760105E+02  0.00000000000E+00 0. -1.
        -12    1    4    4    0    0 -0.41131724506E+02 -0.27769560969E+02 -0.39290493993E+03  0.39602684139E+03  0.00000000000E+00 0.  1.
</event>
<event>
12    1  0.8416569E-002  0.2096929E+03  0.7818608E-02  0.1142144E+00
         21   -1    0    0  503  502  0.00000000000E+00  0.00000000000E+00  0.47637177361E+02  0.47637177361E+02  0.00000000000E+00 0.  1.
         21   -1    0    0  501  503 -0.00000000000E+00 -0.00000000000E+00 -0.15038487471E+04  0.15038487471E+04  0.00000000000E+00 0.  1.
          6    2    1    2  501    0 -0.47590764689E+02 -0.10615132603E+03 -0.12150274753E+04  0.12329894017E+04  0.17446522310E+03 0.  0.
         24    2    3    3    0    0 -0.46642883829E+02 -0.35233131167E+02 -0.10307781790E+04  0.10355047643E+04  0.79683940279E+02 0.  0.
         -6    2    1    2    0  502  0.47590764689E+02  0.10615132603E+03 -0.24118409445E+03  0.31849652277E+03  0.17244501355E+03 0.  0.
        -24    2    5    5    0    0 -0.32275751570E+02  0.50507923704E+02 -0.69653993721E+02  0.12121622954E+03  0.79050116800E+02 0.  0.
          5    1    3    3  501    0 -0.94788085960E+00 -0.70918194862E+02 -0.18424929624E+03  0.19748463739E+03  0.47000000000E+01 0. -1.
        -13    1    4    4    0    0 -0.35513683470E+02 -0.61072742538E+02 -0.75083690805E+03  0.75415327626E+03  0.00000000000E+00 0.  1.
         14    1    4    4    0    0 -0.11129200359E+02  0.25839611371E+02 -0.27994127096E+03  0.28135148801E+03  0.00000000000E+00 0. -1.
         -5    1    5    5    0  502  0.79866516259E+02  0.55643402325E+02 -0.17153010072E+03  0.19728029323E+03  0.47000000000E+01 0.  1.
         11    1    6    6    0    0 -0.18725972252E+02  0.19699130334E+02 -0.81204770410E+02  0.85632543522E+02  0.00000000000E+00 0. -1.
        -12    1    6    6    0    0 -0.13549779318E+02  0.30808793370E+02  0.11550776689E+02  0.35583686017E+02  0.00000000000E+00 0.  1.
</event>
<event>
12    1  0.8416569E-002  0.1895742E+03  0.7818608E-02  0.1158894E+00
         21   -1    0    0  503  502  0.00000000000E+00  0.00000000000E+00  0.96826762778E+02  0.96826762778E+02  0.00000000000E+00 0.  1.
         21   -1    0    0  501  503 -0.00000000000E+00 -0.00000000000E+00 -0.60452021172E+03  0.60452021172E+03  0.00000000000E+00 0. -1.
          6    2    1    2  501    0  0.31720894182E+02  0.73352529440E+02 -0.47182978861E+03  0.50841024964E+03  0.17167068423E+03 0.  0.
         24    2    3    3    0    0  0.60192527911E+02 -0.13155502155E+02 -0.26752085948E+03  0.28467267573E+03  0.75332027724E+02 0.  0.
         -6    2    1    2    0  502 -0.31720894182E+02 -0.73352529440E+02 -0.35863660336E+02  0.19293672485E+03  0.17190569787E+03 0.  0.
        -24    2    5    5    0    0  0.10608585737E+01 -0.11189577316E+03 -0.21507269113E+02  0.14013122401E+03  0.81562294275E+02 0.  0.
          5    1    3    3  501    0 -0.28471633729E+02  0.86508031595E+02 -0.20430892913E+03  0.22373757391E+03  0.47000000000E+01 0. -1.
        -11    1    4    4    0    0  0.67454699490E+02  0.13902523759E+02 -0.17751389685E+03  0.19040640804E+03  0.00000000000E+00 0.  1.
         12    1    4    4    0    0 -0.72621715795E+01 -0.27058025914E+02 -0.90006962631E+02  0.94266267692E+02  0.00000000000E+00 0. -1.
         -5    1    5    5    0  502 -0.32781752755E+02  0.38543243717E+02 -0.14356391223E+02  0.52805500840E+02  0.47000000000E+01 0.  1.
         11    1    6    6    0    0 -0.37183629972E+02 -0.71962419081E+02 -0.55960686620E+00  0.81003242267E+02  0.00000000000E+00 0. -1.
        -12    1    6    6    0    0  0.38244488545E+02 -0.39933354076E+02 -0.20947662246E+02  0.59127981747E+02  0.00000000000E+00 0.  1.
</event>
<event>
12    1  0.8416569E-002  0.2010185E+03  0.7818608E-02  0.1149122E+00
         21   -1    0    0  503  502  0.00000000000E+00  0.00000000000E+00  0.22225001337E+02  0.22225001337E+02  0.00000000000E+00 0.  1.
         21   -1    0    0  501  503 -0.00000000000E+00 -0.00000000000E+00 -0.34944567140E+04  0.34944567140E+04  0.00000000000E+00 0.  1.
          6    2    1    2  501    0  0.83786603080E+02  0.61829566807E+02 -0.29602319845E+04  0.29670493499E+04  0.17194578417E+03 0.  0.
         24    2    3    3    0    0  0.99141380098E+02  0.57346761620E+01 -0.24684179973E+04  0.24717862946E+04  0.82329686101E+02 0.  0.
         -6    2    1    2    0  502 -0.83786603080E+02 -0.61829566807E+02 -0.51199972810E+03  0.54963236534E+03  0.17061337951E+03 0.  0.
        -24    2    5    5    0    0 -0.47721608054E+02 -0.55113671157E+02 -0.49925648875E+03  0.51051373462E+03  0.77796934687E+02 0.  0.
          5    1    3    3  501    0 -0.15354777018E+02  0.56094890645E+02 -0.49181398723E+03  0.49526305532E+03  0.47000000000E+01 0. -1.
        -13    1    4    4    0    0  0.29944660618E+02  0.38905423913E+02 -0.12420008190E+04  0.12429707757E+04  0.00000000000E+00 0.  1.
         14    1    4    4    0    0  0.69196719480E+02 -0.33170747751E+02 -0.12264171783E+04  0.12288155190E+04  0.00000000000E+00 0. -1.
         -5    1    5    5    0  502 -0.36064995027E+02 -0.67158956503E+01 -0.12743239348E+02  0.39118630724E+02  0.47000000000E+01 0.  1.
         13    1    6    6    0    0  0.20216783247E+01 -0.48097385333E+02 -0.14671219078E+03  0.15440826591E+03  0.00000000000E+00 0. -1.
        -14    1    6    6    0    0 -0.49743286378E+02 -0.70162858237E+01 -0.35254429798E+03  0.35610546871E+03  0.00000000000E+00 0.  1.
</event>
<event>
12    1  0.8416569E-002  0.2249694E+03  0.7818608E-02  0.1130297E+00
         21   -1    0    0  501  502  0.00000000000E+00  0.00000000000E+00  0.80887214850E+02  0.80887214850E+02  0.00000000000E+00 0.  1.
         21   -1    0    0  502  503 -0.00000000000E+00 -0.00000000000E+00 -0.10917505285E+04  0.10917505285E+04  0.00000000000E+00 0. -1.
         -6    2    1    2    0  503  0.11680118100E+03 -0.84080864314E+02 -0.88869199713E+03  0.91663566564E+03  0.17243946800E+03 0.  0.
        -24    2    3    3    0    0  0.13224660264E+03 -0.10861065058E+03 -0.68325421986E+03  0.70910966294E+03  0.81943564687E+02 0.  0.
          6    2    1    2  501    0 -0.11680118100E+03  0.84080864314E+02 -0.12217131657E+03  0.25600207776E+03  0.17291363625E+03 0.  0.
         24    2    5    5    0    0 -0.10263614561E+03  0.57952554476E+02 -0.10261344535E+02  0.14011735641E+03  0.75065980443E+02 0.  0.
          5    1    5    5  501    0 -0.14165035393E+02  0.26128309838E+02 -0.11190997203E+03  0.11588472135E+03  0.47000000000E+01 0. -1.
        -11    1    6    6    0    0 -0.22342781649E+02  0.48004534274E+02 -0.23856973228E+02  0.58075729649E+02  0.00000000000E+00 0.  1.
         12    1    6    6    0    0 -0.80293363959E+02  0.99480202015E+01  0.13595628693E+02  0.82041626760E+02  0.00000000000E+00 0. -1.
         -5    1    3    3    0  503 -0.15445421642E+02  0.24529786262E+02 -0.20543777727E+03  0.20752600269E+03  0.47000000000E+01 0. -1.
         11    1    4    4    0    0  0.59979013049E+02 -0.94397373072E+02 -0.48189671737E+03  0.49470475262E+03  0.00000000000E+00 0. -1.
        -12    1    4    4    0    0  0.72267589594E+02 -0.14213277504E+02 -0.20135750249E+03  0.21440491032E+03  0.00000000000E+00 0.  1.
</event>
<event>
12    1  0.8416569E-002  0.2000291E+03  0.7818608E-02  0.1149906E+00
         21   -1    0    0  503  502  0.00000000000E+00  0.00000000000E+00  0.25733739875E+03  0.25733739875E+03  0.00000000000E+00 0. -1.
         21   -1    0    0  501  503 -0.00000000000E+00 -0.00000000000E+00 -0.21007559287E+03  0.21007559287E+03  0.00000000000E+00 0. -1.
          6    2    1    2  501    0  0.98054581045E+02 -0.18951459952E+02 -0.96313070702E+02  0.22119076588E+03  0.17226516950E+03 0.  0.
         24    2    3    3    0    0 -0.81054931255E+01  0.13143156784E+02 -0.67541250599E+02  0.10651760684E+03  0.80905738028E+02 0.  0.
         -6    2    1    2    0  502 -0.98054581045E+02  0.18951459952E+02  0.14357487658E+03  0.24622222574E+03  0.17331410954E+03 0.  0.
        -24    2    5    5    0    0 -0.49474539286E+02  0.24759224288E+01  0.16526084863E+03  0.19033094576E+03  0.80379478679E+02 0.  0.
          5    1    3    3  501    0  0.10616007417E+03 -0.32094616736E+02 -0.28771820103E+02  0.11467315904E+03  0.47000000000E+01 0. -1.
        -11    1    4    4    0    0 -0.25041315274E+01 -0.21517303941E+02  0.80981436083E+01  0.23126715580E+02  0.00000000000E+00 0.  1.
         12    1    4    4    0    0 -0.56013615981E+01  0.34660460725E+02 -0.75639394208E+02  0.83390891263E+02  0.00000000000E+00 0. -1.
         -5    1    5    5    0  502 -0.48580041759E+02  0.16475537523E+02 -0.21685972057E+02  0.55891279982E+02  0.47000000000E+01 0.  1.
         13    1    6    6    0    0 -0.17684511139E+02  0.25458863605E+02  0.14064241784E+03  0.14401800362E+03  0.00000000000E+00 0. -1.
        -14    1    6    6    0    0 -0.31790028147E+02 -0.22982941176E+02  0.24618430788E+02  0.46312942135E+02  0.00000000000E+00 0.  1.
</event>
<event>
12    1  0.8416569E-002  0.1874605E+03  0.7818608E-02  0.1161654E+00
         21   -1    0    0  501  502  0.00000000000E+00  0.00000000000E+00  0.41987070077E+03  0.41987070077E+03  0.00000000000E+00 0. -1.
         21   -1    0    0  502  503 -0.00000000000E+00 -0.00000000000E+00 -0.82255671308E+02  0.82255671308E+02  0.00000000000E+00 0. -1.
         -6    2    1    2    0  503  0.71031125518E+02  0.13001960854E+01  0.15672248349E+03  0.24434274665E+03  0.17347717344E+03 0.  0.
        -24    2    3    3    0    0  0.68827420151E+02 -0.53310426779E+02  0.14676497281E+03  0.18858955422E+03  0.80292262084E+02 0.  0.
          6    2    1    2  501    0 -0.71031125518E+02 -0.13001960854E+01  0.18089254597E+03  0.25778362542E+03  0.16936107300E+03 0.  0.
         24    2    5    5    0    0 -0.85988106882E+02  0.66347723550E+01  0.19981932376E+03  0.23195751589E+03  0.80240590102E+02 0.  0.
          5    1    5    5  501    0  0.14956981364E+02 -0.79349684404E+01 -0.18926777799E+02  0.25826109531E+02  0.47000000000E+01 0. -1.
        -11    1    6    6    0    0 -0.59436398263E+02 -0.34536213265E+02  0.11280713186E+03  0.13210179584E+03  0.00000000000E+00 0.  1.
         12    1    6    6    0    0 -0.26551708619E+02  0.41170985620E+02  0.87012191903E+02  0.99855720053E+02  0.00000000000E+00 0. -1.
         -5    1    3    3    0  503  0.22037053672E+01  0.54610622865E+02  0.99575106879E+01  0.55753192430E+02  0.47000000000E+01 0.  1.
         11    1    4    4    0    0  0.69469053928E+02 -0.41755778675E+02  0.59466539645E+02  0.10052742831E+03  0.00000000000E+00 0. -1.
        -12    1    4    4    0    0 -0.64163377673E+00 -0.11554648105E+02  0.87298433161E+02  0.88062125906E+02  0.00000000000E+00 0.  1.
</event>
<event>
12    1  0.8416569E-002  0.1770558E+03  0.7818608E-02  0.1170904E+00
         21   -1    0    0  501  502  0.00000000000E+00  0.00000000000E+00  0.14613329900E+03  0.14613329900E+03  0.00000000000E+00 0. -1.
         21   -1    0    0  502  503 -0.00000000000E+00 -0.00000000000E+00 -0.54230037482E+03  0.54230037482E+03  0.00000000000E+00 0. -1.
         -6    2    1    2    0  503 -0.38008245875E+02 -0.16198323528E+02 -0.46593638374E+03  0.49812729102E+03  0.17125148734E+03 0.  0.
        -24    2    3    3    0    0 -0.48389373907E+02 -0.25949969462E+02 -0.13307041606E+03  0.16492359227E+03  0.80480576747E+02 0.  0.
          6    2    1    2  501    0  0.38008245875E+02  0.16198323528E+02  0.69769307925E+02  0.19030638281E+03  0.17216779772E+03 0.  0.
         24    2    5    5    0    0  0.30595189416E+02  0.85592192599E+01 -0.29260310561E+02  0.90595477401E+02  0.79636981998E+02 0.  0.
          5    1    5    5  501    0  0.74130564593E+01  0.76391042686E+01  0.99029618485E+02  0.99710905409E+02  0.47000000000E+01 0. -1.
        -11    1    6    6    0    0  0.15237226375E+02  0.30640655912E+02 -0.47174178150E+02  0.58278863634E+02  0.00000000000E+00 0.  1.
         12    1    6    6    0    0  0.15357963041E+02 -0.22081436652E+02  0.17913867590E+02  0.32316613767E+02  0.00000000000E+00 0. -1.
         -5    1    3    3    0  503  0.10381128032E+02  0.97516459339E+01 -0.33286596768E+03  0.33320369875E+03  0.47000000000E+01 0.  1.
         13    1    4    4    0    0 -0.59479791315E+02 -0.45077758073E+02 -0.11037433404E+03  0.13323792052E+03  0.00000000000E+00 0. -1.
        -14    1    4    4    0    0  0.11090417409E+02  0.19127788610E+02 -0.22696082019E+02  0.31685671753E+02  0.00000000000E+00 0.  1.
</event>
<event>
12    1  0.8416569E-002  0.1854447E+03  0.7818608E-02  0.1163251E+00
         21   -1    0    0  501  502  0.00000000000E+00  0.00000000000E+00  0.29244326712E+03  0.29244326712E+03  0.00000000000E+00 0.  1.
         21   -1    0    0  502  503 -0.00000000000E+00 -0.00000000000E+00 -0.16077942894E+03  0.16077942894E+03  0.00000000000E+00 0.  1.
         -6    2    1    2    0  503  0.10316461403E+02 -0.61679861806E+02 -0.54184048616E+02  0.19067900352E+03  0.17178980334E+03 0.  0.
        -24    2    3    3    0    0 -0.15073376212E+02  0.16451614205E+02  0.15527319816E+02  0.82832184902E+02  0.78244558370E+02 0.  0.
          6    2    1    2  501    0 -0.10316461403E+02  0.61679861806E+02  0.18584788679E+03  0.26254369254E+03  0.17458212605E+03 0.  0.
         24    2    5    5    0    0 -0.10828018014E+02  0.11644393020E+02  0.19499793730E+03  0.21145922082E+03  0.80236953185E+02 0.  0.
          5    1    5    5  501    0  0.51155661121E+00  0.50035468786E+02 -0.91500505015E+01  0.51084471721E+02  0.47000000000E+01 0. -1.
        -13    1    6    6    0    0 -0.27872503534E+02  0.93052484848E+01  0.19833255156E+02  0.35451687022E+02  0.00000000000E+00 0.  1.
         14    1    6    6    0    0  0.17044485521E+02  0.23391445350E+01  0.17516468214E+03  0.17600753380E+03  0.00000000000E+00 0. -1.
         -5    1    3    3    0  503  0.25389837614E+02 -0.78131476011E+02 -0.69711368432E+02  0.10784681862E+03  0.47000000000E+01 0.  1.
         11    1    4    4    0    0  0.11406496904E+02  0.36438077962E+02 -0.11678341064E+02  0.39927751592E+02  0.00000000000E+00 0. -1.
        -12    1    4    4    0    0 -0.26479873116E+02 -0.19986463757E+02  0.27205660880E+02  0.42904433310E+02  0.00000000000E+00 0.  1.
</event>
<event>
12    1  0.8416569E-002  0.1723632E+03  0.7818608E-02  0.1175438E+00
         21   -1    0    0  503  502  0.00000000000E+00  0.00000000000E+00  0.52706495802E+02  0.52706495802E+02  0.00000000000E+00 0.  1.
         21   -1    0    0  501  503 -0.00000000000E+00 -0.00000000000E+00 -0.56337219246E+03  0.56337219246E+03  0.00000000000E+00 0.  1.
          6    2    1    2  501    0 -0.10392908255E+02 -0.45224057171E+01 -0.25955233203E+03  0.31150196938E+03  0.17186506093E+03 0.  0.
         24    2    3    3    0    0 -0.29610765568E+02  0.19037376829E+02 -0.26624786455E+03  0.28001690071E+03  0.79261088522E+02 0.  0.
         -6    2    1    2    0  502  0.10392908255E+02  0.45224057171E+01 -0.25111336463E+03  0.30457671888E+03  0.17199009010E+03 0.  0.
        -24    2    5    5    0    0 -0.16033588772E+02 -0.78552891810E+01 -0.38370539676E+02  0.89790390999E+02  0.79191126168E+02 0.  0.
          5    1    3    3  501    0  0.19217857313E+02 -0.23559782546E+02  0.66955325192E+01  0.31485068668E+02  0.47000000000E+01 0. -1.
        -13    1    4    4    0    0 -0.33914672966E+02  0.77103126584E+01 -0.38254052224E+02  0.51701319860E+02  0.00000000000E+00 0.  1.
         14    1    4    4    0    0  0.43039073983E+01  0.11327064171E+02 -0.22799381232E+03  0.22831558085E+03  0.00000000000E+00 0. -1.
         -5    1    5    5    0  502  0.26426497027E+02  0.12377694898E+02 -0.21274282495E+03  0.21478632788E+03  0.47000000000E+01 0.  1.
         11    1    6    6    0    0  0.31605291243E+02 -0.36716811778E+01 -0.69453160214E+01  0.32567055315E+02  0.00000000000E+00 0. -1.
        -12    1    6    6    0    0 -0.47638880016E+02 -0.41836080033E+01 -0.31425223655E+02  0.57223335684E+02  0.00000000000E+00 0.  1.
</event>
<event>
12    1  0.8416569E-002  0.1925525E+03  0.7818608E-02  0.1156269E+00
         21   -1    0    0  503  502  0.00000000000E+00  0.00000000000E+00  0.20926290533E+02  0.20926290533E+02  0.00000000000E+00 0. -1.
         21   -1    0    0  501  503 -0.00000000000E+00 -0.00000000000E+00 -0.29582008193E+04  0.29582008193E+04  0.00000000000E+00 0. -1.
          6    2    1    2  501    0 -0.32952317754E+01 -0.85072085442E+02 -0.24125293247E+04  0.24201691696E+04  0.17225837792E+03 0.  0.
         24    2    3    3    0    0 -0.42269957533E+02 -0.53306681009E+02 -0.21650073286E+04  0.21675483100E+04  0.79878605981E+02 0.  0.
         -6    2    1    2    0  502  0.32952317754E+01  0.85072085442E+02 -0.52474520413E+03  0.55895794028E+03  0.17270880541E+03 0.  0.
        -24    2    5    5    0    0 -0.27426762365E+02  0.10495978563E+03 -0.49093534282E+03  0.50891237839E+03  0.78775085859E+02 0.  0.
          5    1    3    3  501    0  0.38974725757E+02 -0.31765404433E+02 -0.24752199604E+03  0.25262085957E+03  0.47000000000E+01 0. -1.
        -11    1    4    4    0    0 -0.29643434997E+02  0.71418509436E+01 -0.30596221592E+03  0.30747783147E+03  0.00000000000E+00 0.  1.
         12    1    4    4    0    0 -0.12626522535E+02 -0.60448531953E+02 -0.18590451127E+04  0.18600704785E+04  0.00000000000E+00 0. -1.
         -5    1    5    5    0  502  0.30721994141E+02 -0.19887700193E+02 -0.33809861310E+02  0.50045561888E+02  0.47000000000E+01 0.  1.
         11    1    6    6    0    0 -0.39330886692E+02  0.60752742303E+02 -0.17051886437E+03  0.18524172708E+03  0.00000000000E+00 0. -1.
        -12    1    6    6    0    0  0.11904124327E+02  0.44207043332E+02 -0.32041647845E+03  0.32367065131E+03  0.00000000000E+00 0.  1.
</event>
<event>
12    1  0.8416569E-002  0.1801043E+03  0.7818608E-02  0.1167887E+00
         21   -1    0    0  501  502  0.00000000000E+00  0.00000000000E+00  0.22047469952E+03  0.22047469952E+03  0.00000000000E+00 0.  1.
         21   -1    0    0  502  503 -0.00000000000E+00 -0.00000000000E+00 -0.26258993734E+03  0.26258993734E+03  0.00000000000E+00 0.  1.
         -6    2    1    2    0  503 -0.57655761209E+02  0.12211300279E+01 -0.18167665501E+03  0.25582017073E+03  0.17062202325E+03 0.  0.
        -24    2    3    3    0    0 -0.37531555132E+02  0.50086960285E+02 -0.47501981505E+02  0.11153647087E+03  0.79162016556E+02 0.  0.
          6    2    1    2  501    0  0.57655761209E+02 -0.12211300279E+01  0.13956141718E+03  0.22724446613E+03  0.16981454668E+03 0.  0.
         24    2    5    5    0    0  0.17309323225E+02 -0.69563066904E+02  0.10050123115E+03  0.13866544194E+03  0.63158327862E+02 0.  0.
          5    1    5    5  501    0  0.40346437984E+02  0.68341936876E+02  0.39060186032E+02  0.88579024192E+02  0.47000000000E+01 0. -1.
        -11    1    6    6    0    0  0.34414464798E+02 -0.67962158698E+02  0.92156889223E+02  0.11956631061E+03  0.00000000000E+00 0.  1.
         12    1    6    6    0    0 -0.17105141572E+02 -0.16009082053E+01  0.83443419277E+01  0.19099131328E+02  0.00000000000E+00 0. -1.
         -5    1    3    3    0  503 -0.20124206077E+02 -0.48865830257E+02 -0.13417467350E+03  0.14428369986E+03  0.47000000000E+01 0.  1.
         13    1    4    4    0    0 -0.51893593967E+01  0.48242959624E+02 -0.59691271034E+02  0.76924381322E+02  0.00000000000E+00 0. -1.
        -14    1    4    4    0    0 -0.32342195735E+02  0.18440006612E+01  0.12189289528E+02  0.34612089544E+02  0.00000000000E+00 0.  1.
</event>
<event>
12    1  0.8416569E-002  0.1940757E+03  0.7818608E-02  0.1155081E+00
         21   -1    0    0  501  502  0.00000000000E+00  0.00000000000E+00  0.40877338137E+03  0.40877338137E+03  0.00000000000E+00 0. -1.
         21   -1    0    0  502  503 -0.00000000000E+00 -0.00000000000E+00 -0.10986732687E+03  0.10986732687E+03  0.00000000000E+00 0. -1.
         -6    2    1    2    0  503 -0.30612705338E+02  0.81723843605E+02  0.44112061113E+02  0.19902575743E+03  0.17334778292E+03 0.  0.
        -24    2    3    3    0    0 -0.25240292405E+02  0.12253269419E+02 -0.35805873443E+02  0.92893812374E+02  0.80993733290E+02 0.  0.
          6    2    1    2  501    0  0.30612705338E+02 -0.81723843605E+02  0.25479399339E+03  0.31961495081E+03  0.17209826662E+03 0.  0.
         24    2    5    5    0    0  0.72673273532E+02 -0.98187178059E+02  0.17331789517E+03  0.22633806536E+03  0.79168809667E+02 0.  0.
          5    1    5    5  501    0 -0.42060568194E+02  0.16463334454E+02  0.81476098220E+02  0.93276885450E+02  0.47000000000E+01 0. -1.
        -11    1    6    6    0    0  0.89572370854E+02 -0.85461048605E+02  0.14016664151E+03  0.18701199919E+03  0.00000000000E+00 0.  1.
         12    1    6    6    0    0 -0.16899097323E+02 -0.12726129454E+02  0.33151253655E+02  0.39326066166E+02  0.00000000000E+00 0. -1.
         -5    1    3    3    0  503 -0.53724129330E+01  0.69470574186E+02  0.79917934556E+02  0.10613194506E+03  0.47000000000E+01 0.  1.
         13    1    4    4    0    0  0.17059251345E+02  0.28115013467E+02  0.34221899903E+01  0.33063324440E+02  0.00000000000E+00 0. -1.
        -14    1    4    4    0    0 -0.42299543749E+02 -0.15861744049E+02 -0.39228063433E+02  0.59830487934E+02  0.00000000000E+00 0.  1.
</event>
<event>
12    1  0.8416569E-002  0.2574206E+03  0.7818608E-02  0.1109428E+00
         21   -1    0    0  501  502  0.00000000000E+00  0.00000000000E+00  0.12050635454E+04  0.12050635454E+04  0.00000000000E+00 0.  1.
         21   -1    0    0  502  503 -0.00000000000E+00 -0.00000000000E+00 -0.54966581525E+02  0.54966581525E+02  0.00000000000E+00 0.  1.
         -6    2    1    2    0  503 -0.19147319977E+03  0.12650028318E+01  0.66445724456E+03  0.71257898061E+03  0.17205169948E+03 0.  0.
        -24    2    3    3    0    0 -0.14074678243E+03  0.65576754773E+02  0.42761170526E+03  0.46192569350E+03  0.80085006749E+02 0.  0.
          6    2    1    2  501    0  0.19147319977E+03 -0.12650028318E+01  0.48563971930E+03  0.54745114631E+03  0.16490371179E+03 0.  0.
         24    2    5    5    0    0  0.99019679178E+02 -0.61691822004E+02  0.25520428456E+03  0.29187017375E+03  0.80300645715E+02 0.  0.
          5    1    5    5  501    0  0.92453520592E+02  0.60426819172E+02  0.23043543474E+03  0.25558097255E+03  0.47000000000E+01 0. -1.
        -13    1    6    6    0    0  0.96324452405E+02 -0.19378715808E+02  0.16185861946E+03  0.18934663306E+03  0.00000000000E+00 0.  1.
         14    1    6    6    0    0  0.26952267727E+01 -0.42313106196E+02  0.93345665102E+02  0.10252354070E+03  0.00000000000E+00 0. -1.
         -5    1    3    3    0  503 -0.50726417336E+02 -0.64311751941E+02  0.23684553929E+03  0.25065328711E+03  0.47000000000E+01 0.  1.
         13    1    4    4    0    0 -0.35942413868E+02 -0.18564682830E+01  0.19241051576E+03  0.19574756745E+03  0.00000000000E+00 0. -1.
        -14    1    4    4    0    0 -0.10480436857E+03  0.67433223056E+02  0.23520118951E+03  0.26617812605E+03  0.00000000000E+00 0.  1.
</event>
<event>
12    1  0.8416569E-002  0.2134346E+03  0.7818608E-02  0.1139443E+00
         21   -1    0    0  503  502  0.00000000000E+00  0.00000000000E+00  0.12200358658E+04  0.12200358658E+04  0.00000000000E+00 0. -1.
         21   -1    0    0  501  503 -0.00000000000E+00 -0.00000000000E+00 -0.42198925289E+02  0.42198925289E+02  0.00000000000E+00 0. -1.
          6    2    1    2  501    0 -0.11892224496E+03 -0.26793682785E+02  0.36736648781E+03  0.42486757951E+03  0.17519680925E+03 0.  0.
         24    2    3    3    0    0 -0.38154103069E+02 -0.37623309440E+02  0.78061594017E+02  0.12426787038E+03  0.80483800571E+02 0.  0.
         -6    2    1    2    0  502  0.11892224496E+03  0.26793682785E+02  0.81047045266E+03  0.83736721154E+03  0.17164233316E+03 0.  0.
        -24    2    5    5    0    0  0.19348252359E+02 -0.26609623649E+02  0.25230651614E+03  0.26786219560E+03  0.83720671313E+02 0.  0.
          5    1    3    3  501    0 -0.80768141894E+02  0.10829626654E+02  0.28930489379E+03  0.30059970913E+03  0.47000000000E+01 0. -1.
        -13    1    4    4    0    0 -0.62492179781E+02 -0.17170245193E+02  0.54872887873E+02  0.84918335342E+02  0.00000000000E+00 0.  1.
         14    1    4    4    0    0  0.24338076712E+02 -0.20453064246E+02  0.23188706144E+02  0.39349535039E+02  0.00000000000E+00 0. -1.
         -5    1    5    5    0  502  0.99573992604E+02  0.53403306434E+02  0.55816393652E+03  0.56950501593E+03  0.47000000000E+01 0.  1.
         13    1    6    6    0    0  0.33841426799E+02  0.66078168750E+01  0.20695970871E+03  0.20981236008E+03  0.00000000000E+00 0. -1.
        -14    1    6    6    0    0 -0.14493174440E+02 -0.33217440524E+02  0.45346807433E+02  0.58049835526E+02  0.00000000000E+00 0.  1.
</event>
<event>
12    1  0.8416569E-002  0.2019943E+03  0.7818608E-02  0.1148696E+00
         21   -1    0    0  501  502  0.00000000000E+00  0.00000000000E+00  0.34727706487E+03  0.34727706487E+03  0.00000000000E+00 0.  1.
         21   -1    0    0  502  503 -0.00000000000E+00 -0.00000000000E+00 -0.12743467442E+03  0.12743467442E+03  0.00000000000E+00 0.  1.
         -6    2    1    2    0  503  0.98526719559E+02 -0.31283055833E+02  0.37322494705E+02  0.20247063072E+03  0.17004482834E+03 0.  0.
        -24    2    3    3    0    0  0.11252318158E+03  0.19239652784E+02  0.50967948374E+02  0.14809477725E+03  0.79389550036E+02 0.  0.
          6    2    1    2  501    0 -0.98526719559E+02  0.31283055833E+02  0.18251989575E+03  0.27224110857E+03  0.17353836695E+03 0.  0.
         24    2    5    5    0    0 -0.92599780910E+02  0.24278401404E+02  0.20942616160E+03  0.24342738046E+03  0.78951961334E+02 0.  0.
          5    1    5    5  501    0 -0.59269386497E+01  0.70046544288E+01 -0.26906265853E+02  0.28813728109E+02  0.47000000000E+01 0. -1.
        -13    1    6    6    0    0 -0.16333844471E+02 -0.27414029488E+02  0.56684802955E+02  0.65049906795E+02  0.00000000000E+00 0.  1.
         14    1    6    6    0    0 -0.76265936439E+02  0.51692430892E+02  0.15274135864E+03  0.17837747367E+03  0.00000000000E+00 0. -1.
         -5    1    3    3    0  503 -0.13996462023E+02 -0.50522708616E+02 -0.13645453670E+02  0.54375853473E+02  0.47000000000E+01 0.  1.
         13    1    4    4    0    0 -0.56946931168E+01  0.77119641299E+00  0.25007248754E+02  0.25659048382E+02  0.00000000000E+00 0. -1.
        -14    1    4    4    0    0  0.11821787470E+03  0.18468456371E+02  0.25960699620E+02  0.12243572887E+03  0.00000000000E+00 0.  1.
</event>
<event>
12    1  0.8416569E-002  0.2095789E+03  0.7818608E-02  0.1142149E+00
         21   -1    0    0  501  502  0.00000000000E+00  0.00000000000E+00  0.83203420602E+03  0.83203420602E+03  0.00000000000E+00 0.  1.
         21   -1    0    0  502  503 -0.00000000000E+00 -0.00000000000E+00 -0.70143972361E+02  0.70143972361E+02  0.00000000000E+00 0.  1.
         -6    2    1    2    0  503 -0.11913664662E+03  0.17036989972E+02  0.60648739001E+03  0.64126944118E+03  0.17004629475E+03 0.  0.
        -24    2    3    3    0    0 -0.74876257970E+02 -0.13816260167E+02  0.55710952747E+03  0.56798118594E+03  0.80213832559E+02 0.  0.
          6    2    1    2  501    0  0.11913664662E+03 -0.17036989972E+02  0.15540284365E+03  0.26090873720E+03  0.17157950267E+03 0.  0.
         24    2    5    5    0    0  0.11901393411E+03  0.10310975495E+02  0.17714658164E+03  0.22565527758E+03  0.72586225862E+02 0.  0.
          5    1    5    5  501    0  0.12271250663E+00 -0.27347965467E+02 -0.21743737988E+02  0.35253459621E+02  0.47000000000E+01 0. -1.
        -13    1    6    6    0    0 -0.36085881028E+01 -0.12080061285E+02  0.60938739572E+01  0.14003038547E+02  0.00000000000E+00 0.  1.
         14    1    6    6    0    0  0.12262252221E+03  0.22391036780E+02  0.17105270768E+03  0.21165223903E+03  0.00000000000E+00 0. -1.
         -5    1    3    3    0  503 -0.44260388646E+02  0.30853250139E+02  0.49377862542E+02  0.73288255243E+02  0.47000000000E+01 0.  1.
         13    1    4    4    0    0 -0.17391204312E+01 -0.33263425411E+02  0.12880624318E+03  0.13304333239E+03  0.00000000000E+00 0. -1.
        -14    1    4    4    0    0 -0.73137137539E+02  0.19447165244E+02  0.42830328429E+03  0.43493785356E+03  0.00000000000E+00 0.  1.
</event>
<event>
12    1  0.8416569E-002  0.2094887E+03  0.7818608E-02  0.1142169E+00
         21   -1    0    0  501  502  0.00000000000E+00  0.00000000000E+00  0.36786409267E+03  0.36786409267E+03  0.00000000000E+00 0. -1.
         21   -1    0    0  502  503 -0.00000000000E+00 -0.00000000000E+00 -0.19327750063E+03  0.19327750063E+03  0.00000000000E+00 0. -1.
         -6    2    1    2    0  503  0.93672630172E+02 -0.72651505835E+02 -0.87078752603E+02  0.22594873738E+03  0.17151478019E+03 0.  0.
        -24    2    3    3    0    0  0.60333110367E+02 -0.84728969751E+02 -0.11989618525E+03  0.17740532793E+03  0.79236813519E+02 0.  0.
          6    2    1    2  501    0 -0.93672630172E+02  0.72651505835E+02  0.26166534465E+03  0.33519285592E+03  0.17272143795E+03 0.  0.
         24    2    5    5    0    0 -0.11711630026E+03  0.21818727338E+02  0.14273851271E+03  0.20366621074E+03  0.83146603882E+02 0.  0.
          5    1    5    5  501    0  0.23443670090E+02  0.50832778497E+02  0.11892683194E+03  0.13152664518E+03  0.47000000000E+01 0. -1.
        -11    1    6    6    0    0 -0.11036315084E+03  0.89898829605E+01  0.15079308985E+03  0.18708126311E+03  0.00000000000E+00 0.  1.
         12    1    6    6    0    0 -0.67531494181E+01  0.12828844378E+02 -0.80545771384E+01  0.16584947634E+02  0.00000000000E+00 0. -1.
         -5    1    3    3    0  503  0.33339519804E+02  0.12077463915E+02  0.32817432650E+02  0.48543409451E+02  0.47000000000E+01 0.  1.
         13    1    4    4    0    0  0.88971845227E+01 -0.34782918893E+02  0.20318543972E+01  0.35960252661E+02  0.00000000000E+00 0. -1.
        -14    1    4    4    0    0  0.51435925845E+02 -0.49946050858E+02 -0.12192803965E+03  0.14144507526E+03  0.00000000000E+00 0.  1.
</event>
<event>
12    1  0.8416569E-002  0.2146595E+03  0.7818608E-02  0.1137998E+00
         21   -1    0    0  501  502  0.00000000000E+00  0.00000000000E+00  0.19778608553E+03  0.19778608553E+03  0.00000000000E+00 0.  1.
         21   -1    0    0  502  503 -0.00000000000E+00 -0.00000000000E+00 -0.27487624005E+03  0.27487624005E+03  0.00000000000E+00 0. -1.
         -6    2    1    2    0  503 -0.73031432449E+02 -0.10610887035E+03 -0.13122481791E+03  0.25128196271E+03  0.17126000541E+03 0.  0.
        -24    2    3    3    0    0 -0.11011539383E+03 -0.46805047264E+02 -0.10420681230E+03  0.17615389704E+03  0.76518124020E+02 0.  0.
          6    2    1    2  501    0  0.73031432449E+02  0.10610887035E+03  0.54134663396E+02  0.22138036288E+03  0.17171494051E+03 0.  0.
         24    2    5    5    0    0  0.45363090649E+02  0.10300286802E+03 -0.22686303282E+02  0.13953456085E+03  0.79295803801E+02 0.  0.
          5    1    5    5  501    0  0.27668341800E+02  0.31060023273E+01  0.76820966678E+02  0.81845802029E+02  0.47000000000E+01 0. -1.
        -11    1    6    6    0    0 -0.16478744972E+02  0.21436810854E+02  0.14436732027E+02  0.30651347884E+02  0.00000000000E+00 0.  1.
         12    1    6    6    0    0  0.61841835622E+02  0.81566057167E+02 -0.37123035309E+02  0.10888321296E+03  0.00000000000E+00 0. -1.
         -5    1    3    3    0  503  0.37083961382E+02 -0.59303823085E+02 -0.27018005614E+02  0.75128065672E+02  0.47000000000E+01 0.  1.
         11    1    4    4    0    0 -0.72345999998E+02  0.54547893245E+01 -0.31846627134E+02  0.79233238619E+02  0.00000000000E+00 0. -1.
        -12    1    4    4    0    0 -0.37769393833E+02 -0.52259836588E+02 -0.72360185165E+02  0.96920658416E+02  0.00000000000E+00 0.  1.
</event>
<event>
12    1  0.8416569E-002  0.2112843E+03  0.7818608E-02  0.1140750E+00
         21   -1    0    0  503  502  0.00000000000E+00  0.00000000000E+00  0.30044644552E+02  0.30044644552E+02  0.00000000000E+00 0. -1.
         21   -1    0    0  501  503 -0.00000000000E+00 -0.00000000000E+00 -0.26203154867E+04  0.26203154867E+04  0.00000000000E+00 0. -1.
          6    2    1    2  501    0 -0.11433193796E+03 -0.36759841814E+02 -0.21715337366E+04  0.21817882174E+04  0.17383319093E+03 0.  0.
         24    2    3    3    0    0 -0.75372176547E+02  0.38617672532E+02 -0.15259159033E+04  0.15306015242E+04  0.84554079372E+02 0.  0.
         -6    2    1    2    0  502  0.11433193796E+03  0.36759841814E+02 -0.41873710551E+03  0.46857191384E+03  0.17261459064E+03 0.  0.
        -24    2    5    5    0    0  0.12846080311E+03  0.33279046565E+01 -0.38764688942E+03  0.42055097269E+03  0.10039799234E+03 0.  0.
          5    1    3    3  501    0 -0.38959761409E+02 -0.75377514346E+02 -0.64561783328E+03  0.65118669314E+03  0.47000000000E+01 0. -1.
        -11    1    4    4    0    0 -0.30433005566E+02 -0.22806246016E+02 -0.31332855707E+03  0.31562806808E+03  0.00000000000E+00 0.  1.
         12    1    4    4    0    0 -0.44939170981E+02  0.61423918548E+02 -0.12125873463E+04  0.12149734562E+04  0.00000000000E+00 0. -1.
         -5    1    5    5    0  502 -0.14128865154E+02  0.33431937158E+02 -0.31090216084E+02  0.48020941148E+02  0.47000000000E+01 0.  1.
         11    1    6    6    0    0  0.10311170787E+03 -0.38309068121E+02 -0.22008796316E+03  0.24604536274E+03  0.00000000000E+00 0. -1.
        -12    1    6    6    0    0  0.25349095237E+02  0.41636972777E+02 -0.16755892626E+03  0.17450560994E+03  0.00000000000E+00 0.  1.
</event>
<event>
12    1  0.8416569E-002  0.2780054E+03  0.7818608E-02  0.1097031E+00
         21   -1    0    0  501  502  0.00000000000E+00  0.00000000000E+00  0.27950338893E+03  0.27950338893E+03  0.00000000000E+00 0. -1.
         21   -1    0    0  502  503 -0.00000000000E+00 -0.00000000000E+00 -0.43685521341E+03  0.43685521341E+03  0.00000000000E+00 0.  1.
         -6    2    1    2    0  503  0.17773061478E+03  0.12384843709E+03 -0.29671344215E+03  0.40537840471E+03  0.17136562508E+03 0.  0.
        -24    2    3    3    0    0  0.46423705401E+02  0.71222360155E+02 -0.20800781517E+03  0.23834012563E+03  0.79441672324E+02 0.  0.
          6    2    1    2  501    0 -0.17773061478E+03 -0.12384843709E+03  0.13936161768E+03  0.31098019763E+03  0.17424240597E+03 0.  0.
         24    2    5    5    0    0 -0.32444941061E+02 -0.94304058236E+02  0.40634734953E+02  0.13279522441E+03  0.77701096139E+02 0.  0.
          5    1    5    5  501    0 -0.14528567371E+03 -0.29544378851E+02  0.98726882724E+02  0.17818497322E+03  0.47000000000E+01 0. -1.
        -13    1    6    6    0    0 -0.38308358281E+02 -0.78990960204E+02 -0.12671427838E+01  0.87799246916E+02  0.00000000000E+00 0.  1.
         14    1    6    6    0    0  0.58634172195E+01 -0.15313098032E+02  0.41901877737E+02  0.44995977494E+02  0.00000000000E+00 0. -1.
         -5    1    3    3    0  503  0.13130690937E+03  0.52626076933E+02 -0.88705626979E+02  0.16703827909E+03  0.47000000000E+01 0.  1.
         11    1    4    4    0    0  0.55639804516E+02  0.14708761557E+02 -0.12361544927E+03  0.13635583894E+03  0.00000000000E+00 0. -1.
        -12    1    4    4    0    0 -0.92160991159E+01  0.56513598598E+02 -0.84392365897E+02  0.10198428669E+03  0.00000000000E+00 0.  1.
</event>
<event>
12    1  0.8416569E-002  0.1988015E+03  0.7818608E-02  0.1152663E+00
         21   -1    0    0  501  502  0.00000000000E+00  0.00000000000E+00  0.26406447477E+03  0.26406447477E+03  0.00000000000E+00 0. -1.
         21   -1    0    0  502  503 -0.00000000000E+00 -0.00000000000E+00 -0.34311983012E+03  0.34311983012E+03  0.00000000000E+00 0.  1.
         -6    2    1    2    0  503 -0.61665693136E+02  0.81415347001E+02 -0.27090209395E+03  0.33091050687E+03  0.16025823728E+03 0.  0.
        -24    2    3    3    0    0 -0.32795317837E+02  0.76952452733E+02 -0.87674434091E+02  0.14530910243E+03  0.80191745224E+02 0.  0.
          6    2    1    2  501    0  0.61665693136E+02 -0.81415347001E+02  0.19184673860E+03  0.27627379802E+03  0.17056061657E+03 0.  0.
         24    2    5    5    0    0  0.32349502276E+02 -0.83427793225E+02  0.20952488708E+03  0.24166027581E+03  0.80574956502E+02 0.  0.
          5    1    5    5  501    0  0.29316190861E+02  0.20124462239E+01 -0.17678148484E+02  0.34613522216E+02  0.47000000000E+01 0. -1.
        -13    1    6    6    0    0 -0.20065329999E+02 -0.34264769997E+01  0.16364759941E+02  0.26118261438E+02  0.00000000000E+00 0.  1.
         14    1    6    6    0    0  0.52414832275E+02 -0.80001316225E+02  0.19316012714E+03  0.21554201437E+03  0.00000000000E+00 0. -1.
         -5    1    3    3    0  503 -0.28870375300E+02  0.44628942677E+01 -0.18322765986E+03  0.18560140444E+03  0.47000000000E+01 0.  1.
         11    1    4    4    0    0 -0.37274218198E+01  0.30961017664E+02  0.10635300819E+02  0.32948261133E+02  0.00000000000E+00 0. -1.
        -12    1    4    4    0    0 -0.29067896017E+02  0.45991435069E+02 -0.98309734910E+02  0.11236084130E+03  0.00000000000E+00 0.  1.
</event>
<event>
12    1  0.8416569E-002  0.2245866E+03  0.7818608E-02  0.1130673E+00
         21   -1    0    0  501  502  0.00000000000E+00  0.00000000000E+00  0.75900709623E+02  0.75900709623E+02  0.00000000000E+00 0. -1.
         21   -1    0    0  502  503 -0.00000000000E+00 -0.00000000000E+00 -0.99197419601E+03  0.99197419601E+03  0.00000000000E+00 0. -1.
         -6    2    1    2    0  503  0.35381696717E+02 -0.13948779607E+03 -0.76665357970E+03  0.79887224530E+03  0.17242518182E+03 0.  0.
        -24    2    3    3    0    0  0.50956094829E+02 -0.21741502786E+02 -0.45262095727E+03  0.46309653235E+03  0.80767882021E+02 0.  0.
          6    2    1    2  501    0 -0.35381696717E+02  0.13948779607E+03 -0.14941990668E+03  0.26900266033E+03  0.17125248330E+03 0.  0.
         24    2    5    5    0    0 -0.13889022086E+02  0.44063647066E+00 -0.51296176575E+02  0.97403114681E+02  0.81627017117E+02 0.  0.
          5    1    5    5  501    0 -0.21492674631E+02  0.13904715960E+03 -0.98123730110E+02  0.17159954565E+03  0.47000000000E+01 0. -1.
        -13    1    6    6    0    0 -0.24946088230E+01 -0.22734040643E+02  0.14254441333E+02  0.26949003225E+02  0.00000000000E+00 0.  1.
         14    1    6    6    0    0 -0.11394413263E+02  0.23174677113E+02 -0.65550617908E+02  0.70454111456E+02  0.00000000000E+00 0. -1.
         -5    1    3    3    0  503 -0.15574398112E+02 -0.11774629329E+03 -0.31403262242E+03  0.33577571295E+03  0.47000000000E+01 0.  1.
         13    1    4    4    0    0  0.23579740393E+02 -0.38016212734E+01 -0.40266659670E+03  0.40337432315E+03  0.00000000000E+00 0. -1.
        -14    1    4    4    0    0  0.27376354436E+02 -0.17939881512E+02 -0.49954360577E+02  0.59722209199E+02  0.00000000000E+00 0.  1.
</event>
<event>
12    1  0.8416569E-002  0.2968225E+03  0.7818608E-02  0.1086846E+00
         21   -1    0    0  503  502  0.00000000000E+00  0.00000000000E+00  0.65732485995E+03  0.65732485995E+03  0.00000000000E+00 0. -1.
         21   -1    0    0  501  503 -0.00000000000E+00 -0.00000000000E+00 -0.44333474686E+03  0.44333474686E+03  0.00000000000E+00 0. -1.
          6    2    1    2  501    0  0.23247398993E+03 -0.67312415748E+02 -0.35269501243E+03  0.46094433391E+03  0.17175793975E+03 0.  0.
         24    2    3    3    0    0  0.62039891642E+02 -0.62097161726E+02 -0.11820288642E+03  0.17097256306E+03  0.86917715749E+02 0.  0.
         -6    2    1    2    0  502 -0.23247398993E+03  0.67312415748E+02  0.56668512552E+03  0.63971527289E+03  0.17183853344E+03 0.  0.
        -24    2    5    5    0    0 -0.87309431335E+02  0.70820889971E+02  0.17807645372E+03  0.22483716036E+03  0.78752714557E+02 0.  0.
          5    1    3    3  501    0  0.17043409828E+03 -0.52152540221E+01 -0.23449212601E+03  0.28997177085E+03  0.47000000000E+01 0. -1.
        -13    1    4    4    0    0  0.81301860277E+02 -0.64945749559E+02 -0.99287309090E+02  0.14382598033E+03  0.00000000000E+00 0.  1.
         14    1    4    4    0    0 -0.19261968634E+02  0.28485878326E+01 -0.18915577331E+02  0.27146582733E+02  0.00000000000E+00 0. -1.
         -5    1    5    5    0  502 -0.14516455859E+03 -0.35084742228E+01  0.38860867180E+03  0.41487811253E+03  0.47000000000E+01 0.  1.
         11    1    6    6    0    0 -0.29160061483E+02 -0.10584931674E+02  0.17418446050E+02  0.35577411753E+02  0.00000000000E+00 0. -1.
        -12    1    6    6    0    0 -0.58149369852E+02  0.81405821645E+02  0.16065800767E+03  0.18925974860E+03  0.00000000000E+00 0.  1.
</event>
<event>
12    1  0.8416569E-002  0.2105039E+03  0.7818608E-02  0.1141356E+00
         21   -1    0    0  503  502  0.00000000000E+00  0.00000000000E+00  0.52759410979E+03  0.52759410979E+03  0.00000000000E+00 0. -1.
         21   -1    0    0  501  503 -0.00000000000E+00 -0.00000000000E+00 -0.17392996615E+03  0.17392996615E+03  0.00000000000E+00 0. -1.
          6    2    1    2  501    0 -0.87197938800E+02 -0.82361959764E+02 -0.76125956715E+02  0.22295181326E+03  0.17182949923E+03 0.  0.
         24    2    3    3    0    0 -0.59808094590E+02 -0.34382813757E+02  0.24222098960E+02  0.10830442212E+03  0.79899635252E+02 0.  0.
         -6    2    1    2    0  502  0.87197938800E+02  0.82361959764E+02  0.42979010035E+03  0.47857226267E+03  0.17298817096E+03 0.  0.
        -24    2    5    5    0    0  0.42135928486E+02  0.96850966297E+02  0.40231898356E+03  0.42364259545E+03  0.80355074503E+02 0.  0.
          5    1    3    3  501    0 -0.27389844210E+02 -0.47979146007E+02 -0.10034805567E+03  0.11464739114E+03  0.47000000000E+01 0. -1.
        -11    1    4    4    0    0  0.18747957319E+02 -0.94542179730E+01 -0.36310777364E+01  0.21308516294E+02  0.00000000000E+00 0.  1.
         12    1    4    4    0    0 -0.78556051909E+02 -0.24928595784E+02  0.27853176697E+02  0.86995905831E+02  0.00000000000E+00 0. -1.
         -5    1    5    5    0  502  0.45062010314E+02 -0.14489006533E+02  0.27471116786E+02  0.54929667224E+02  0.47000000000E+01 0.  1.
         13    1    6    6    0    0  0.62894978734E+02  0.49525225889E+02  0.21874710386E+03  0.23293523090E+03  0.00000000000E+00 0. -1.
        -14    1    6    6    0    0 -0.20759050249E+02  0.47325740408E+02  0.18357187971E+03  0.19070736454E+03  0.00000000000E+00 0.  1.
</event>
<event>
12    1  0.8416569E-002  0.2312964E+03  0.7818608E-02  0.1125748E+00
         21   -1    0    0  501  502  0.00000000000E+00  0.00000000000E+00  0.28869179532E+03  0.28869179532E+03  0.00000000000E+00 0.  1.
         21   -1    0    0  502  503 -0.00000000000E+00 -0.00000000000E+00 -0.22433147683E+03  0.22433147683E+03  0.00000000000E+00 0. -1.
         -6    2    1    2    0  503 -0.47067554103E+02  0.14787610589E+03 -0.74903902564E+02  0.24312265006E+03  0.17150898230E+03 0.  0.
        -24    2    3    3    0    0  0.13398129318E+02  0.28693811854E+02 -0.70542233901E+02  0.10932566864E+03  0.77285511909E+02 0.  0.
          6    2    1    2  501    0  0.47067554103E+02 -0.14787610589E+03  0.13926422106E+03  0.26990062209E+03  0.17137422559E+03 0.  0.
         24    2    5    5    0    0  0.52685287972E+02 -0.15368816046E+03  0.59210644985E+02  0.18930283085E+03  0.77031623712E+02 0.  0.
          5    1    5    5  501    0 -0.56177338696E+01  0.58120545712E+01  0.80053576071E+02  0.80597791247E+02  0.47000000000E+01 0. -1.
        -13    1    6    6    0    0 -0.18211023965E+02 -0.54275603159E+02  0.25210898405E+02  0.62554551317E+02  0.00000000000E+00 0.  1.
         14    1    6    6    0    0  0.70896311938E+02 -0.99412557304E+02  0.33999746581E+02  0.12674827953E+03  0.00000000000E+00 0. -1.
         -5    1    3    3    0  503 -0.60465683420E+02  0.11918229404E+03 -0.43616686628E+01  0.13379698142E+03  0.47000000000E+01 0.  1.
         13    1    4    4    0    0  0.79059233419E+01 -0.22003226149E+02 -0.14126532456E+01  0.23423090617E+02  0.00000000000E+00 0. -1.
        -14    1    4    4    0    0  0.54922059757E+01  0.50697038003E+02 -0.69129580655E+02  0.85902578019E+02  0.00000000000E+00 0.  1.
</event>
<event>
12    1  0.8416569E-002  0.2743575E+03  0.7818608E-02  0.1099137E+00
         21   -1    0    0  501  502  0.00000000000E+00  0.00000000000E+00  0.42032138445E+03  0.42032138445E+03  0.00000000000E+00 0.  1.
         21   -1    0    0  502  503 -0.00000000000E+00 -0.00000000000E+00 -0.97558338343E+03  0.97558338343E+03  0.00000000000E+00 0. -1.
         -6    2    1    2    0  503 -0.18339132333E+02  0.21295584733E+03 -0.90866051431E+03  0.94850946530E+03  0.16828475515E+03 0.  0.
        -24    2    3    3    0    0 -0.97657042910E+01  0.22951019164E+03 -0.88574004492E+03  0.91859311691E+03  0.80669636240E+02 0.  0.
          6    2    1    2  501    0  0.18339132333E+02 -0.21295584733E+03  0.35339851533E+03  0.44739530257E+03  0.17200444599E+03 0.  0.
         24    2    5    5    0    0  0.35017776710E+02 -0.38470460980E+02  0.16450083056E+03  0.18965948329E+03  0.78765317850E+02 0.  0.
          5    1    5    5  501    0 -0.16678644376E+02 -0.17448538635E+03  0.18889768477E+03  0.25773581928E+03  0.47000000000E+01 0. -1.
        -11    1    6    6    0    0  0.58100019359E+02 -0.37902686493E+02  0.13839748279E+03  0.15480984831E+03  0.00000000000E+00 0.  1.
         12    1    6    6    0    0 -0.23082242649E+02 -0.56777448704E+00  0.26103347771E+02  0.34849634983E+02  0.00000000000E+00 0. -1.
         -5    1    3    3    0  503 -0.85734280421E+01 -0.16554344316E+02 -0.22920469395E+02  0.29916348397E+02  0.47000000000E+01 0.  1.
         13    1    4    4    0    0 -0.63559242178E+01  0.18341499854E+03 -0.80409187514E+03  0.82476978796E+03  0.00000000000E+00 0. -1.
        -14    1    4    4    0    0 -0.34097800731E+01  0.46095193099E+02 -0.81648169777E+02  0.93823328948E+02  0.00000000000E+00 0.  1.
</event>
<event>
12    1  0.8416569E-002  0.1743187E+03  0.7818608E-02  0.1173517E+00
         21   -1    0    0  501  502  0.00000000000E+00  0.00000000000E+00  0.60661927034E+02  0.60661927034E+02  0.00000000000E+00 0. -1.
         21   -1    0    0  502  503 -0.00000000000E+00 -0.00000000000E+00 -0.57364106953E+03  0.57364106953E+03  0.00000000000E+00 0. -1.
         -6    2    1    2    0  503  0.11524138186E+02 -0.33338494209E+02 -0.37053733711E+03  0.40949348414E+03  0.17071243190E+03 0.  0.
        -24    2    3    3    0    0  0.26255729038E+02  0.43938385930E+02 -0.22421038957E+03  0.24329359982E+03  0.79382188534E+02 0.  0.
          6    2    1    2  501    0 -0.11524138186E+02  0.33338494209E+02 -0.14244180538E+03  0.22480951242E+03  0.17030968262E+03 0.  0.
         24    2    5    5    0    0 -0.48833089646E+01 -0.14551440387E+02 -0.81811366155E+01  0.82031490207E+02  0.80166347462E+02 0.  0.
          5    1    5    5  501    0 -0.66408292217E+01  0.47889934596E+02 -0.13426066877E+03  0.14277802221E+03  0.47000000000E+01 0. -1.
        -11    1    6    6    0    0 -0.31892412682E+02 -0.12457404056E+02 -0.31320981981E+02  0.46403844827E+02  0.00000000000E+00 0.  1.
         12    1    6    6    0    0  0.27009103718E+02 -0.20940363318E+01  0.23139845365E+02  0.35627645380E+02  0.00000000000E+00 0. -1.
         -5    1    3    3    0  503 -0.14731590851E+02 -0.77276880139E+02 -0.14632694754E+03  0.16619988432E+03  0.47000000000E+01 0.  1.
         11    1    4    4    0    0 -0.11648793103E+02  0.52606804664E+02 -0.15220168317E+03  0.16145749483E+03  0.00000000000E+00 0. -1.
        -12    1    4    4    0    0  0.37904522140E+02 -0.86684187345E+01 -0.72008706402E+02  0.81836104988E+02  0.00000000000E+00 0.  1.
</event>
<event>
12    1  0.8416569E-002  0.1916647E+03  0.7818608E-02  0.1157075E+00
         21   -1    0    0  503  502  0.00000000000E+00  0.00000000000E+00  0.17309177135E+03  0.17309177135E+03  0.00000000000E+00 0. -1.
         21   -1    0    0  501  503 -0.00000000000E+00 -0.00000000000E+00 -0.88198447264E+03  0.88198447264E+03  0.00000000000E+00 0. -1.
          6    2    1    2  501    0  0.68902723085E+02  0.48110018550E+02 -0.81422841071E+03  0.83637335326E+03  0.17172746458E+03 0.  0.
         24    2    3    3    0    0  0.26548430408E+01  0.11531516692E+01 -0.19363616744E+03  0.21047355986E+03  0.82436497444E+02 0.  0.
         -6    2    1    2    0  502 -0.68902723085E+02 -0.48110018550E+02  0.10533570943E+03  0.21870289074E+03  0.17225905957E+03 0.  0.
        -24    2    5    5    0    0 -0.10228165007E+03 -0.68856623240E+02  0.10299894007E+03  0.17905286093E+03  0.79046662463E+02 0.  0.
          5    1    3    3  501    0  0.66247880044E+02  0.46956866881E+02 -0.62059224327E+03  0.62589979339E+03  0.47000000000E+01 0. -1.
        -13    1    4    4    0    0 -0.81470812327E+01  0.39064669627E+02 -0.68508816466E+02  0.79283549865E+02  0.00000000000E+00 0.  1.
         14    1    4    4    0    0  0.10801924274E+02 -0.37911517958E+02 -0.12512735097E+03  0.13119001000E+03  0.00000000000E+00 0. -1.
         -5    1    5    5    0  502  0.33378926984E+02  0.20746604690E+02  0.23367693558E+01  0.39650029808E+02  0.47000000000E+01 0.  1.
         13    1    6    6    0    0 -0.54202374288E+01 -0.24962677443E+01  0.49789146426E+02  0.50145482631E+02  0.00000000000E+00 0. -1.
        -14    1    6    6    0    0 -0.96861412640E+02 -0.66360355495E+02  0.53209793645E+02  0.12890737830E+03  0.00000000000E+00 0.  1.
</event>
<event>
12    1  0.8416569E-002  0.2599768E+03  0.7818608E-02  0.1107584E+00
         21   -1    0    0  503  502  0.00000000000E+00  0.00000000000E+00  0.10214140015E+04  0.10214140015E+04  0.00000000000E+00 0.  1.
         21   -1    0    0  501  503 -0.00000000000E+00 -0.00000000000E+00 -0.74913844747E+02  0.74913844747E+02  0.00000000000E+00 0.  1.
          6    2    1    2  501    0  0.10182255248E+03 -0.16756964740E+03  0.28071471286E+03  0.38260773850E+03  0.17070592439E+03 0.  0.
         24    2    3    3    0    0  0.86772814107E+01 -0.11145195304E+03  0.94510751868E+02  0.16692453973E+03  0.80216498902E+02 0.  0.
         -6    2    1    2    0  502 -0.10182255248E+03  0.16756964740E+03  0.66578544386E+03  0.71372010772E+03  0.16636921585E+03 0.  0.
        -24    2    5    5    0    0 -0.67473796854E+02  0.33725717417E+02  0.39730785023E+03  0.41173278533E+03  0.77331891078E+02 0.  0.
          5    1    3    3  501    0  0.93145271066E+02 -0.56117694357E+02  0.18620396100E+03  0.21568319877E+03  0.47000000000E+01 0. -1.
        -13    1    4    4    0    0 -0.21108851217E+02 -0.23477588704E+02  0.60075768471E+02  0.67866624555E+02  0.00000000000E+00 0.  1.
         14    1    4    4    0    0  0.29786132627E+02 -0.87974364336E+02  0.34434983397E+02  0.99057915174E+02  0.00000000000E+00 0. -1.
         -5    1    5    5    0  502 -0.34348755623E+02  0.13384392998E+03  0.26847759363E+03  0.30198732239E+03  0.47000000000E+01 0.  1.
         13    1    6    6    0    0 -0.12889847308E+02  0.26397934374E+02  0.28640966233E+03  0.28791230223E+03  0.00000000000E+00 0. -1.
        -14    1    6    6    0    0 -0.54583949546E+02  0.73277830433E+01  0.11089818790E+03  0.12382048309E+03  0.00000000000E+00 0.  1.
</event>
<event>
12    1  0.8416569E-002  0.1871514E+03  0.7818608E-02  0.1161320E+00
         21   -1    0    0  501  502  0.00000000000E+00  0.00000000000E+00  0.15483659401E+03  0.15483659401E+03  0.00000000000E+00 0.  1.
         21   -1    0    0  502  503 -0.00000000000E+00 -0.00000000000E+00 -0.42446229996E+03  0.42446229996E+03  0.00000000000E+00 0.  1.
         -6    2    1    2    0  503 -0.71232482996E+02 -0.96753981993E+01 -0.33323410779E+03  0.38163328736E+03  0.17155557544E+03 0.  0.
        -24    2    3    3    0    0 -0.58695682452E+02 -0.52809368271E+02 -0.31194967416E+03  0.33170506031E+03  0.80508603945E+02 0.  0.
          6    2    1    2  501    0  0.71232482996E+02  0.96753981993E+01  0.63608401847E+02  0.19766560661E+03  0.17279462748E+03 0.  0.
         24    2    5    5    0    0  0.82065038449E+02  0.62411186495E+02  0.31666004061E+02  0.13488970039E+03  0.81010300105E+02 0.  0.
          5    1    5    5  501    0 -0.10832555454E+02 -0.52735788296E+02  0.31942397786E+02  0.62775906215E+02  0.47000000000E+01 0. -1.
        -11    1    6    6    0    0  0.15806762878E+02  0.27346907591E+02  0.48669669050E+02  0.58021063355E+02  0.00000000000E+00 0.  1.
         12    1    6    6    0    0  0.66258275571E+02  0.35064278904E+02 -0.17003664989E+02  0.76868637036E+02  0.00000000000E+00 0. -1.
         -5    1    3    3    0  503 -0.12536800544E+02  0.43133970072E+02 -0.21284433631E+02  0.49928227057E+02  0.47000000000E+01 0.  1.
         11    1    4    4    0    0 -0.14851518065E+01 -0.17829734865E+02 -0.20290261502E+03  0.20368990231E+03  0.00000000000E+00 0. -1.
        -12    1    4    4    0    0 -0.57210530645E+02 -0.34979633406E+02 -0.10904705914E+03  0.12801515800E+03  0.00000000000E+00 0.  1.
</event>
<event>
12    1  0.8416569E-002  0.1789958E+03  0.7818608E-02  0.1171543E+00
         21   -1    0    0  503  502  0.00000000000E+00  0.00000000000E+00  0.10383842570E+03  0.10383842570E+03  0.00000000000E+00 0. -1.
         21   -1    0    0  501  503 -0.00000000000E+00 -0.00000000000E+00 -0.31250682710E+03  0.31250682710E+03  0.00000000000E+00 0. -1.
          6    2    1    2  501    0  0.76159285897E+01  0.55445913593E+02 -0.15719267171E+03  0.23009471328E+03  0.15843544217E+03 0.  0.
         24    2    3    3    0    0 -0.28045040286E+02  0.44598383634E+02 -0.16771412298E+03  0.19107978608E+03  0.74886030039E+02 0.  0.
         -6    2    1    2    0  502 -0.76159285897E+01 -0.55445913593E+02 -0.51475729692E+02  0.18625053952E+03  0.17002135461E+03 0.  0.
        -24    2    5    5    0    0 -0.23204195400E+01 -0.85462005878E+02  0.10050926906E+02  0.11742737711E+03  0.79868823508E+02 0.  0.
          5    1    3    3  501    0  0.35660968876E+02  0.10847529959E+02  0.10521451266E+02  0.39014927196E+02  0.47000000000E+01 0. -1.
        -13    1    4    4    0    0 -0.10752406519E+02  0.26644580144E+01  0.52558066274E+01  0.12261202460E+02  0.00000000000E+00 0.  1.
         14    1    4    4    0    0 -0.17292633767E+02  0.41933925619E+02 -0.17296992960E+03  0.17881858362E+03  0.00000000000E+00 0. -1.
         -5    1    5    5    0  502 -0.52955090497E+01  0.30016092285E+02 -0.61526656598E+02  0.68823162412E+02  0.47000000000E+01 0.  1.
         13    1    6    6    0    0 -0.34689148030E+02 -0.53245483905E+02  0.26546996373E+02  0.68870614660E+02  0.00000000000E+00 0. -1.
        -14    1    6    6    0    0  0.32368728490E+02 -0.32216521973E+02 -0.16496069466E+02  0.48556762453E+02  0.00000000000E+00 0.  1.
</event>
<event>
12    1  0.8416569E-002  0.1858249E+03  0.7818608E-02  0.1162364E+00
         21   -1    0    0  503  502  0.00000000000E+00  0.00000000000E+00  0.47580828208E+02  0.47580828208E+02  0.00000000000E+00 0. -1.
         21   -1    0    0  501  503 -0.00000000000E+00 -0.00000000000E+00 -0.10328742337E+04  0.10328742337E+04  0.00000000000E+00 0. -1.
          6    2    1    2  501    0 -0.39006772247E+02 -0.57866353038E+02 -0.78822504848E+03  0.80983307604E+03  0.17222322988E+03 0.  0.
         24    2    3    3    0    0  0.22771033629E+02 -0.61315455698E+02 -0.65133932263E+03  0.65953941168E+03  0.80443876517E+02 0.  0.
         -6    2    1    2    0  502  0.39006772247E+02  0.57866353038E+02 -0.19706835699E+03  0.27062198584E+03  0.17184376275E+03 0.  0.
        -24    2    5    5    0    0  0.70966726565E+02  0.33385518355E+02 -0.56963795244E+02  0.12477230922E+03  0.78564534399E+02 0.  0.
          5    1    3    3  501    0 -0.61777805877E+02  0.34491026600E+01 -0.13688572585E+03  0.15029366437E+03  0.47000000000E+01 0. -1.
        -13    1    4    4    0    0  0.27928379675E+02  0.10964253849E+02 -0.14799017863E+03  0.15100100074E+03  0.00000000000E+00 0.  1.
         14    1    4    4    0    0 -0.51573460461E+01 -0.72279709547E+02 -0.50334914400E+03  0.50853841093E+03  0.00000000000E+00 0. -1.
         -5    1    5    5    0  502 -0.31959954318E+02  0.24480834683E+02 -0.14010456174E+03  0.14584967661E+03  0.47000000000E+01 0.  1.
         11    1    6    6    0    0 -0.14250627832E+02  0.49144954534E+01  0.47113304556E+01  0.15793330676E+02  0.00000000000E+00 0. -1.
        -12    1    6    6    0    0  0.85217354397E+02  0.28471022901E+02 -0.61675125700E+02  0.10897897855E+03  0.00000000000E+00 0.  1.
</event>
<event>
12    1  0.8416569E-002  0.4463522E+03  0.7818608E-02  0.1028859E+00
         21   -1    0    0  503  502  0.00000000000E+00  0.00000000000E+00  0.17114695257E+04  0.17114695257E+04  0.00000000000E+00 0. -1.
         21   -1    0    0  501  503 -0.00000000000E+00 -0.00000000000E+00 -0.12685177935E+03  0.12685177935E+03  0.00000000000E+00 0.  1.
          6    2    1    2  501    0  0.39553317687E+03 -0.11025760968E+03  0.52717283116E+03  0.69075428739E+03  0.17500587742E+03 0.  0.
         24    2    3    3    0    0  0.11595677601E+03 -0.26338359384E+02  0.13009569756E+03  0.19790771439E+03  0.90016053084E+02 0.  0.
         -6    2    1    2    0  502 -0.39553317687E+03  0.11025760968E+03  0.10574449152E+04  0.11475670177E+04  0.17354272355E+03 0.  0.
        -24    2    5    5    0    0 -0.32785365905E+03  0.56424639285E+02  0.94845763942E+03  0.10083591798E+04  0.80898579331E+02 0.  0.
          5    1    3    3  501    0  0.27957640085E+03 -0.83919250296E+02  0.39707713360E+03  0.49284657300E+03  0.47000000000E+01 0. -1.
        -11    1    4    4    0    0  0.91107788900E+02 -0.27380820754E+02  0.37880691427E+02  0.10239768223E+03  0.00000000000E+00 0.  1.
         12    1    4    4    0    0  0.24848987110E+02  0.10424613702E+01  0.92215006136E+02  0.95510032158E+02  0.00000000000E+00 0. -1.
         -5    1    5    5    0  502 -0.67679517814E+02  0.53832970395E+02  0.10898727579E+03  0.13920783784E+03  0.47000000000E+01 0.  1.
         11    1    6    6    0    0 -0.30906438131E+03  0.39003357137E+02  0.81588123201E+03  0.87332939857E+03  0.00000000000E+00 0. -1.
        -12    1    6    6    0    0 -0.18789277737E+02  0.17421282148E+02  0.13257640741E+03  0.13502978127E+03  0.00000000000E+00 0.  1.
</event>
<event>
12    1  0.8416569E-002  0.2293171E+03  0.7818608E-02  0.1127255E+00
         21   -1    0    0  501  502  0.00000000000E+00  0.00000000000E+00  0.20038496513E+04  0.20038496513E+04  0.00000000000E+00 0. -1.
         21   -1    0    0  502  503 -0.00000000000E+00 -0.00000000000E+00 -0.58439205064E+02  0.58439205064E+02  0.00000000000E+00 0.  1.
         -6    2    1    2    0  503  0.69552809454E+02  0.13244124850E+03  0.20558574832E+03  0.30741669296E+03  0.17280406707E+03 0.  0.
        -24    2    3    3    0    0  0.10016784424E+03  0.29893379445E+02  0.10781542048E+03  0.16238403179E+03  0.61783474589E+02 0.  0.
          6    2    1    2  501    0 -0.69552809454E+02 -0.13244124850E+03  0.17398246979E+04  0.17548721634E+04  0.17380463970E+03 0.  0.
         24    2    5    5    0    0 -0.10791400317E+03 -0.67014496210E+02  0.10437608314E+04  0.10546727366E+04  0.82228542847E+02 0.  0.
          5    1    5    5  501    0  0.38361193719E+02 -0.65426752289E+02  0.69606386653E+03  0.70019942686E+03  0.47000000000E+01 0. -1.
        -11    1    6    6    0    0 -0.87525835846E+00 -0.40697014299E+02  0.24923047401E+03  0.25253285376E+03  0.00000000000E+00 0.  1.
         12    1    6    6    0    0 -0.10703874482E+03 -0.26317481911E+02  0.79453035740E+03  0.80213988279E+03  0.00000000000E+00 0. -1.
         -5    1    3    3    0  503 -0.30615034784E+02  0.10254786905E+03  0.97770327843E+02  0.14503266118E+03  0.47000000000E+01 0.  1.
         11    1    4    4    0    0  0.11533244439E+02 -0.79934395986E+01  0.45471298007E+02  0.47587285554E+02  0.00000000000E+00 0. -1.
        -12    1    4    4    0    0  0.88634599800E+02  0.37886819043E+02  0.62344122469E+02  0.11479674623E+03  0.00000000000E+00 0.  1.
</event>
<event>
12    1  0.8416569E-002  0.2332368E+03  0.7818608E-02  0.1124599E+00
         21   -1    0    0  503  502  0.00000000000E+00  0.00000000000E+00  0.16083238379E+04  0.16083238379E+04  0.00000000000E+00 0. -1.
         21   -1    0    0  501  503 -0.00000000000E+00 -0.00000000000E+00 -0.77673034224E+02  0.77673034224E+02  0.00000000000E+00 0. -1.
          6    2    1    2  501    0 -0.14096900253E+03  0.67401134238E+02  0.12973611931E+03  0.26579922343E+03  0.17147184594E+03 0.  0.
         24    2    3    3    0    0 -0.68472632678E+02  0.86980651018E+02  0.13339144288E+03  0.19046973047E+03  0.78938622443E+02 0.  0.
         -6    2    1    2    0  502  0.14096900253E+03 -0.67401134238E+02  0.14009146844E+04  0.14201976487E+04  0.17315956783E+03 0.  0.
        -24    2    5    5    0    0  0.13136573362E+03  0.97383641967E+01  0.86410463394E+03  0.87776807241E+03  0.80300553201E+02 0.  0.
          5    1    3    3  501    0 -0.72496369855E+02 -0.19579516780E+02 -0.36553235655E+01  0.75329492962E+02  0.47000000000E+01 0. -1.
        -13    1    4    4    0    0 -0.28257446252E+02  0.20931211343E+02  0.10043034797E+03  0.10640889846E+03  0.00000000000E+00 0.  1.
         14    1    4    4    0    0 -0.40215186426E+02  0.66049439676E+02  0.32961094908E+02  0.84060832010E+02  0.00000000000E+00 0. -1.
         -5    1    5    5    0  502  0.96032689094E+01 -0.77139498435E+02  0.53681005042E+03  0.54242957628E+03  0.47000000000E+01 0.  1.
         11    1    6    6    0    0  0.10971867407E+03 -0.13799408229E+02  0.77980574394E+03  0.78760752243E+03  0.00000000000E+00 0. -1.
        -12    1    6    6    0    0  0.21647059551E+02  0.23537772425E+02  0.84298889999E+02  0.90160549982E+02  0.00000000000E+00 0.  1.
</event>
<event>
12    1  0.8416569E-002  0.1955900E+03  0.7818608E-02  0.1153627E+00
         21   -1    0    0  503  502  0.00000000000E+00  0.00000000000E+00  0.18933887409E+03  0.18933887409E+03  0.00000000000E+00 0. -1.
         21   -1    0    0  501  503 -0.00000000000E+00 -0.00000000000E+00 -0.62321016533E+03  0.62321016533E+03  0.00000000000E+00 0. -1.
          6    2    1    2  501    0 -0.87720914823E+02 -0.27917493320E+02 -0.55104039158E+03  0.58454893244E+03  0.17198138255E+03 0.  0.
         24    2    3    3    0    0 -0.12111791337E+03 -0.12180429444E+02 -0.33443232289E+03  0.36476685831E+03  0.79949800035E+02 0.  0.
         -6    2    1    2    0  502  0.87720914823E+02  0.27917493320E+02  0.11716910033E+03  0.22800010698E+03  0.17257202954E+03 0.  0.
        -24    2    5    5    0    0  0.65772526653E+02 -0.47196561941E+02  0.45142498972E+02  0.12153990623E+03  0.78616555957E+02 0.  0.
          5    1    3    3  501    0  0.33396998548E+02 -0.15737063876E+02 -0.21660806869E+03  0.21978207414E+03  0.47000000000E+01 0. -1.
        -13    1    4    4    0    0 -0.74959343878E+02 -0.23116720386E+02 -0.10836872317E+03  0.13377991687E+03  0.00000000000E+00 0.  1.
         14    1    4    4    0    0 -0.46158569493E+02  0.10936290942E+02 -0.22606359972E+03  0.23098694144E+03  0.00000000000E+00 0. -1.
         -5    1    5    5    0  502  0.21948388169E+02  0.75114055260E+02  0.72026601359E+02  0.10646020075E+03  0.47000000000E+01 0.  1.
         11    1    6    6    0    0  0.16585513131E+02  0.19006167421E+02  0.27274771251E+02  0.37151403643E+02  0.00000000000E+00 0. -1.
        -12    1    6    6    0    0  0.49187013522E+02 -0.66202729362E+02  0.17867727722E+02  0.84388502583E+02  0.00000000000E+00 0.  1.
</event>
<event>
12    1  0.8416569E-002  0.1843084E+03  0.7818608E-02  0.1163729E+00
         21   -1    0    0  501  502  0.00000000000E+00  0.00000000000E+00  0.23000959613E+02  0.23000959613E+02  0.00000000000E+00 0. -1.
         21   -1    0    0  502  503 -0.00000000000E+00 -0.00000000000E+00 -0.14757949249E+04  0.14757949249E+04  0.00000000000E+00 0. -1.
         -6    2    1    2    0  503  0.62203997613E+02 -0.22460681551E+02 -0.72751325609E+03  0.75046328736E+03  0.17188888371E+03 0.  0.
        -24    2    3    3    0    0  0.14592388342E+02 -0.76030812476E+02 -0.47841454327E+03  0.49121652654E+03  0.80122272117E+02 0.  0.
          6    2    1    2  501    0 -0.62203997613E+02  0.22460681551E+02 -0.72528070917E+03  0.74833259713E+03  0.17203415156E+03 0.  0.
         24    2    5    5    0    0 -0.95199363273E+01 -0.29391319880E+02 -0.18784878987E+03  0.20582047907E+03  0.78233131572E+02 0.  0.
          5    1    5    5  501    0 -0.52684061285E+02  0.51852001431E+02 -0.53743191930E+03  0.54251211807E+03  0.47000000000E+01 0. -1.
        -13    1    6    6    0    0 -0.17882666985E+02  0.10648841980E+02 -0.14535861472E+03  0.14684111988E+03  0.00000000000E+00 0.  1.
         14    1    6    6    0    0  0.83627306579E+01 -0.40040161860E+02 -0.42490175148E+02  0.58979359185E+02  0.00000000000E+00 0. -1.
         -5    1    3    3    0  503  0.47611609270E+02  0.53570130925E+02 -0.24909871282E+03  0.25924676082E+03  0.47000000000E+01 0.  1.
         13    1    4    4    0    0  0.32689703712E+02 -0.26440015752E+02 -0.34788227693E+03  0.35041371229E+03  0.00000000000E+00 0. -1.
        -14    1    4    4    0    0 -0.18097315370E+02 -0.49590796724E+02 -0.13053226634E+03  0.14080281425E+03  0.00000000000E+00 0.  1.
</event>
<event>
12    1  0.8416569E-002  0.2549890E+03  0.7818608E-02  0.1110344E+00
         21   -1    0    0  501  502  0.00000000000E+00  0.00000000000E+00  0.10958141358E+04  0.10958141358E+04  0.00000000000E+00 0.  1.
         21   -1    0    0  502  503 -0.00000000000E+00 -0.00000000000E+00 -0.64096371209E+02  0.64096371209E+02  0.00000000000E+00 0.  1.
         -6    2    1    2    0  503  0.12147124369E+03  0.14408954834E+03  0.35493344286E+03  0.43703221030E+03  0.17176246094E+03 0.  0.
        -24    2    3    3    0    0  0.80200491105E+02  0.89463466067E+02  0.33644908637E+03  0.36596150382E+03  0.79334759271E+02 0.  0.
          6    2    1    2  501    0 -0.12147124369E+03 -0.14408954834E+03  0.67678432172E+03  0.72287829671E+03  0.17029078876E+03 0.  0.
         24    2    5    5    0    0  0.72943622429E+00 -0.95624163093E+02  0.35719873156E+03  0.37727890553E+03  0.74859375424E+02 0.  0.
          5    1    5    5  501    0 -0.12220067992E+03 -0.48465385247E+02  0.31958559016E+03  0.34559939117E+03  0.47000000000E+01 0. -1.
        -13    1    6    6    0    0 -0.30454123386E+02 -0.71884296247E+02  0.18730985779E+03  0.20292803775E+03  0.00000000000E+00 0.  1.
         14    1    6    6    0    0  0.31183559611E+02 -0.23739866846E+02  0.16988887377E+03  0.17435086779E+03  0.00000000000E+00 0. -1.
         -5    1    3    3    0  503  0.41270752588E+02  0.54626082273E+02  0.18484356497E+02  0.71070706475E+02  0.47000000000E+01 0.  1.
         13    1    4    4    0    0  0.59145944913E+02  0.14564718902E+02  0.10052590969E+03  0.11754076890E+03  0.00000000000E+00 0. -1.
        -14    1    4    4    0    0  0.21054546192E+02  0.74898747165E+02  0.23592317668E+03  0.24842073492E+03  0.00000000000E+00 0.  1.
</event>
<event>
12    1  0.8416569E-002  0.1799751E+03  0.7818608E-02  0.1168068E+00
         21   -1    0    0  503  502  0.00000000000E+00  0.00000000000E+00  0.68290674322E+02  0.68290674322E+02  0.00000000000E+00 0.  1.
         21   -1    0    0  501  503 -0.00000000000E+00 -0.00000000000E+00 -0.47322535458E+03  0.47322535458E+03  0.00000000000E+00 0.  1.
          6    2    1    2  501    0  0.45591202844E+02 -0.18073284831E+02 -0.21841532047E+03  0.28301287294E+03  0.17316417825E+03 0.  0.
         24    2    3    3    0    0 -0.35288472113E+02  0.11566989786E+02 -0.91835319822E+02  0.12983110423E+03  0.83924478797E+02 0.  0.
         -6    2    1    2    0  502 -0.45591202844E+02  0.18073284831E+02 -0.18651935979E+03  0.25850315597E+03  0.17213137038E+03 0.  0.
        -24    2    5    5    0    0 -0.33218769229E+02  0.56917193642E+02 -0.48560271559E+02  0.11457009378E+03  0.80157051179E+02 0.  0.
          5    1    3    3  501    0  0.80879674956E+02 -0.29640274617E+02 -0.12658000065E+03  0.15318176871E+03  0.47000000000E+01 0. -1.
        -11    1    4    4    0    0 -0.18751939926E+02 -0.17875059348E+02  0.57769682797E+01  0.26542915443E+02  0.00000000000E+00 0.  1.
         12    1    4    4    0    0 -0.16536532187E+02  0.29442049135E+02 -0.97612288102E+02  0.10328818879E+03  0.00000000000E+00 0. -1.
         -5    1    5    5    0  502 -0.12372433615E+02 -0.38843908811E+02 -0.13795908823E+03  0.14393306219E+03  0.47000000000E+01 0.  1.
         13    1    6    6    0    0 -0.35483732804E+02 -0.34734394666E+01  0.20953384592E+01  0.35714850114E+02  0.00000000000E+00 0. -1.
        -14    1    6    6    0    0  0.22649635752E+01  0.60390633109E+02 -0.50655610018E+02  0.78855243666E+02  0.00000000000E+00 0.  1.
</event>
<event>
12    1  0.8416569E-002  0.3262010E+03  0.7818608E-02  0.1072858E+00
         21   -1    0    0  503  502  0.00000000000E+00  0.00000000000E+00  0.12960317281E+03  0.12960317281E+03  0.00000000000E+00 0. -1.
         21   -1    0    0  501  503 -0.00000000000E+00 -0.00000000000E+00 -0.11979234494E+04  0.11979234494E+04  0.00000000000E+00 0. -1.
          6    2    1    2  501    0 -0.16564193351E+03  0.22184060881E+03 -0.90692826208E+03  0.96380804348E+03  0.17250091665E+03 0.  0.
         24    2    3    3    0    0 -0.59371374080E+02  0.35207176528E+02 -0.37822693947E+03  0.39313068421E+03  0.82046400192E+02 0.  0.
         -6    2    1    2    0  502  0.16564193351E+03 -0.22184060881E+03 -0.16139201447E+03  0.36371857870E+03  0.17202708013E+03 0.  0.
        -24    2    5    5    0    0  0.13314540248E+03 -0.11187572845E+03 -0.38627653999E+02  0.19566656995E+03  0.80928574217E+02 0.  0.
          5    1    3    3  501    0 -0.10627055943E+03  0.18663343229E+03 -0.52870132261E+03  0.57067735927E+03  0.47000000000E+01 0. -1.
        -11    1    4    4    0    0 -0.77238246776E+02  0.18881318051E+02 -0.24077676524E+03  0.25356597094E+03  0.00000000000E+00 0.  1.
         12    1    4    4    0    0  0.17866872696E+02  0.16325858478E+02 -0.13745017423E+03  0.13956471327E+03  0.00000000000E+00 0. -1.
         -5    1    5    5    0  502  0.32496531035E+02 -0.10996488037E+03 -0.12276436047E+03  0.16805200875E+03  0.47000000000E+01 0.  1.
         11    1    6    6    0    0 -0.59559982480E+00 -0.38925734529E+02 -0.19960177124E+01  0.38981426789E+02  0.00000000000E+00 0. -1.
        -12    1    6    6    0    0  0.13374100230E+03 -0.72949993919E+02 -0.36631636286E+02  0.15668514316E+03  0.00000000000E+00 0.  1.
</event>
<event>
12    1  0.8416569E-002  0.4130422E+03  0.7818608E-02  0.1039411E+00
         21   -1    0    0  503  502  0.00000000000E+00  0.00000000000E+00  0.16949919791E+03  0.16949919791E+03  0.00000000000E+00 0.  1.
         21   -1    0    0  501  503 -0.00000000000E+00 -0.00000000000E+00 -0.11889336264E+04  0.11889336264E+04  0.00000000000E+00 0. -1.
          6    2    1    2  501    0 -0.35125074839E+03 -0.13207730797E+03 -0.77660180232E+03  0.87929660972E+03  0.17096977797E+03 0.  0.
         24    2    3    3    0    0 -0.10081325269E+03 -0.10668336121E+02 -0.29118258960E+03  0.31973161817E+03  0.84639717954E+02 0.  0.
         -6    2    1    2    0  502  0.35125074839E+03  0.13207730797E+03 -0.24283262620E+03  0.47913621463E+03  0.17257556112E+03 0.  0.
        -24    2    5    5    0    0  0.10000733092E+03  0.15506157375E+01 -0.50254193100E+02  0.13669057646E+03  0.78453547538E+02 0.  0.
          5    1    3    3  501    0 -0.25043749570E+03 -0.12140897185E+03 -0.48541921271E+03  0.55956499155E+03  0.47000000000E+01 0. -1.
        -13    1    4    4    0    0 -0.30137347047E+02 -0.44236052217E+02 -0.10790566814E+03  0.12045215324E+03  0.00000000000E+00 0.  1.
         14    1    4    4    0    0 -0.70675905640E+02  0.33567716096E+02 -0.18327692147E+03  0.19927946493E+03  0.00000000000E+00 0. -1.
         -5    1    5    5    0  502  0.25124341747E+03  0.13052669223E+03 -0.19257843310E+03  0.34244563817E+03  0.47000000000E+01 0.  1.
         13    1    6    6    0    0 -0.40546138741E+01  0.20807462302E+02 -0.10327362201E+02  0.23580602010E+02  0.00000000000E+00 0. -1.
        -14    1    6    6    0    0  0.10406194480E+03 -0.19256846564E+02 -0.39926830899E+02  0.11310997445E+03  0.00000000000E+00 0.  1.
</event>
<event>
12    1  0.8416569E-002  0.1835624E+03  0.7818608E-02  0.1165894E+00
         21   -1    0    0  503  502  0.00000000000E+00  0.00000000000E+00  0.58313417698E+02  0.58313417698E+02  0.00000000000E+00 0.  1.
         21   -1    0    0  501  503 -0.00000000000E+00 -0.00000000000E+00 -0.11594037083E+04  0.11594037083E+04  0.00000000000E+00 0.  1.
          6    2    1    2  501    0  0.41197006868E+02  0.10035074405E+02 -0.99344876384E+03  0.10102651118E+04  0.17859802241E+03 0.  0.
         24    2    3    3    0    0  0.92938531230E+02  0.35021614304E+01 -0.82618780597E+03  0.83499907878E+03  0.77377872212E+02 0.  0.
         -6    2    1    2    0  502 -0.41197006868E+02 -0.10035074405E+02 -0.10764152674E+03  0.20745201420E+03  0.17219681711E+03 0.  0.
        -24    2    5    5    0    0  0.27652134103E+00 -0.56287736187E+02 -0.10867896376E+03  0.14514207486E+03  0.78017427682E+02 0.  0.
          5    1    3    3  501    0 -0.51741524362E+02  0.65329129747E+01 -0.16726095786E+03  0.17526603299E+03  0.47000000000E+01 0. -1.
        -11    1    4    4    0    0  0.61255674669E+02 -0.30231785823E+02 -0.61604056131E+03  0.61981625643E+03  0.00000000000E+00 0.  1.
         12    1    4    4    0    0  0.31682856561E+02  0.33733947254E+02 -0.21014724466E+03  0.21518282235E+03  0.00000000000E+00 0. -1.
         -5    1    5    5    0  502 -0.41473528209E+02  0.46252661782E+02  0.10374370231E+01  0.62309939332E+02  0.47000000000E+01 0.  1.
         11    1    6    6    0    0  0.59992655933E+01 -0.43573793314E+01  0.11735818010E+02  0.13881907889E+02  0.00000000000E+00 0. -1.
        -12    1    6    6    0    0 -0.57227442523E+01 -0.51930356856E+02 -0.12041478177E+03  0.13126016697E+03  0.00000000000E+00 0.  1.
</event>
<event>
12    1  0.8416569E-002  0.2988783E+03  0.7818608E-02  0.1085890E+00
         21   -1    0    0  501  502  0.00000000000E+00  0.00000000000E+00  0.98241757866E+03  0.98241757866E+03  0.00000000000E+00 0.  1.
         21   -1    0    0  502  503 -0.00000000000E+00 -0.00000000000E+00 -0.17418107974E+03  0.17418107974E+03  0.00000000000E+00 0.  1.
         -6    2    1    2    0  503  0.24077375232E+03 -0.38953907131E+02  0.35546794814E+01  0.29820420334E+03  0.17153339166E+03 0.  0.
        -24    2    3    3    0    0  0.44316622997E+02  0.15539223322E+02  0.15191749755E+02  0.93943545515E+02  0.79932283516E+02 0.  0.
          6    2    1    2  501    0 -0.24077375232E+03  0.38953907131E+02  0.80468181944E+03  0.85839445506E+03  0.17273911906E+03 0.  0.
         24    2    5    5    0    0 -0.21762788486E+03 -0.19621644813E+02  0.67452999116E+03  0.71372789060E+03  0.81669380088E+02 0.  0.
          5    1    5    5  501    0 -0.23145867464E+02  0.58575551944E+02  0.13015182829E+03  0.14466656446E+03  0.47000000000E+01 0. -1.
        -13    1    6    6    0    0 -0.15762849351E+03  0.17470632524E+02  0.40032127957E+03  0.43059156035E+03  0.00000000000E+00 0.  1.
         14    1    6    6    0    0 -0.59999391344E+02 -0.37092277338E+02  0.27420871159E+03  0.28313633026E+03  0.00000000000E+00 0. -1.
         -5    1    3    3    0  503  0.19645712932E+03 -0.54493130453E+02 -0.11637070273E+02  0.20426065782E+03  0.47000000000E+01 0.  1.
         13    1    4    4    0    0 -0.40879011835E+01  0.38783371094E+02  0.56273903136E+01  0.39402136125E+02  0.00000000000E+00 0. -1.
        -14    1    4    4    0    0  0.48404524180E+02 -0.23244147772E+02  0.95643594411E+01  0.54541409390E+02  0.00000000000E+00 0.  1.
</event>
<event>
12    1  0.8416569E-002  0.1953726E+03  0.7818608E-02  0.1153990E+00
         21   -1    0    0  501  502  0.00000000000E+00  0.00000000000E+00  0.12742023718E+03  0.12742023718E+03  0.00000000000E+00 0. -1.
         21   -1    0    0  502  503 -0.00000000000E+00 -0.00000000000E+00 -0.49816854568E+03  0.49816854568E+03  0.00000000000E+00 0.  1.
         -6    2    1    2    0  503  0.65197050455E+02 -0.63454788488E+02 -0.38424692547E+03  0.43106396720E+03  0.17289672790E+03 0.  0.
        -24    2    3    3    0    0  0.62004028087E+02 -0.89759031466E+02 -0.18180557290E+03  0.22684178471E+03  0.80639603959E+02 0.  0.
          6    2    1    2  501    0 -0.65197050455E+02  0.63454788488E+02  0.13498616967E+02  0.19452481566E+03  0.17140748431E+03 0.  0.
         24    2    5    5    0    0 -0.36954151809E+02  0.12757209129E+01 -0.42847866893E+02  0.10586301999E+03  0.89463973217E+02 0.  0.
          5    1    5    5  501    0 -0.28242898646E+02  0.62179067575E+02  0.56346483860E+02  0.88661795672E+02  0.47000000000E+01 0. -1.
        -13    1    6    6    0    0 -0.59522353064E+02 -0.20008837969E+02 -0.15914590950E+02  0.64780694009E+02  0.00000000000E+00 0.  1.
         14    1    6    6    0    0  0.22568201255E+02  0.21284558882E+02 -0.26933275943E+02  0.41082325978E+02  0.00000000000E+00 0. -1.
         -5    1    3    3    0  503  0.31930223677E+01  0.26304242978E+02 -0.20244135257E+03  0.20422218249E+03  0.47000000000E+01 0.  1.
         13    1    4    4    0    0  0.16987061986E+02 -0.23381952307E+02 -0.85517374757E+00  0.28913790667E+02  0.00000000000E+00 0. -1.
        -14    1    4    4    0    0  0.45016966101E+02 -0.66377079159E+02 -0.18095039915E+03  0.19792799405E+03  0.00000000000E+00 0.  1.
</event>
<event>
12    1  0.8416569E-002  0.2623428E+03  0.7818608E-02  0.1106259E+00
         21   -1    0    0  501  502  0.00000000000E+00  0.00000000000E+00  0.11028128449E+04  0.11028128449E+04  0.00000000000E+00 0. -1.
         21   -1    0    0  502  503 -0.00000000000E+00 -0.00000000000E+00 -0.26907786112E+03  0.26907786112E+03  0.00000000000E+00 0.  1.
         -6    2    1    2    0  503  0.13652782414E+03 -0.13851370427E+03 -0.18484544560E+03  0.32092303351E+03  0.17606209600E+03 0.  0.
        -24    2    3    3    0    0 -0.65532179702E+01 -0.85700424445E+02 -0.46253311823E+02  0.11478886196E+03  0.60411973654E+02 0.  0.
          6    2    1    2  501    0 -0.13652782414E+03  0.13851370427E+03  0.10185804294E+04  0.10509676725E+04  0.17088318972E+03 0.  0.
         24    2    5    5    0    0 -0.10604572831E+03  0.51901633133E+02  0.81837256874E+03  0.83065860213E+03  0.79502050389E+02 0.  0.
          5    1    5    5  501    0 -0.30482095824E+02  0.86612071136E+02  0.20020786064E+03  0.22030907039E+03  0.47000000000E+01 0. -1.
        -13    1    6    6    0    0 -0.84865686959E+02 -0.13851846067E+01  0.47161500904E+03  0.47919184082E+03  0.00000000000E+00 0.  1.
         14    1    6    6    0    0 -0.21180041353E+02  0.53286817740E+02  0.34675755970E+03  0.35146676131E+03  0.00000000000E+00 0. -1.
         -5    1    3    3    0  503  0.14308104211E+03 -0.52813279825E+02 -0.13859213377E+03  0.20613417155E+03  0.47000000000E+01 0.  1.
         13    1    4    4    0    0 -0.22745034096E+02 -0.57296032536E+01 -0.97205681670E+01  0.25390044800E+02  0.00000000000E+00 0. -1.
        -14    1    4    4    0    0  0.16191816125E+02 -0.79970821191E+02 -0.36532743656E+02  0.89398817165E+02  0.00000000000E+00 0.  1.
</event>
<event>
12    1  0.8416569E-002  0.1962123E+03  0.7818608E-02  0.1153133E+00
         21   -1    0    0  503  502  0.00000000000E+00  0.00000000000E+00  0.13307055444E+03  0.13307055444E+03  0.00000000000E+00 0.  1.
         21   -1    0    0  501  503 -0.00000000000E+00 -0.00000000000E+00 -0.29810286398E+03  0.29810286398E+03  0.00000000000E+00 0.  1.
          6    2    1    2  501    0  0.14402056285E+02 -0.92749250669E+02 -0.43451692019E+02  0.20096598621E+03  0.17230622551E+03 0.  0.
         24    2    3    3    0    0 -0.27585308286E+02 -0.42421168487E+02 -0.81944029851E+02  0.12481085039E+03  0.79387779783E+02 0.  0.
         -6    2    1    2    0  502 -0.14402056285E+02  0.92749250669E+02 -0.12158061752E+03  0.23020743221E+03  0.17147528266E+03 0.  0.
        -24    2    5    5    0    0  0.55729689087E+02  0.70707329229E+02 -0.92491649365E+02  0.15100789889E+03  0.78379561579E+02 0.  0.
          5    1    3    3  501    0  0.41987364571E+02 -0.50328082182E+02  0.38492337832E+02  0.76155135818E+02  0.47000000000E+01 0. -1.
        -13    1    4    4    0    0  0.20250472612E+02 -0.15591812812E+02 -0.60936946837E+02  0.66079480609E+02  0.00000000000E+00 0.  1.
         14    1    4    4    0    0 -0.47835780898E+02 -0.26829355675E+02 -0.21007083015E+02  0.58731369785E+02  0.00000000000E+00 0. -1.
         -5    1    5    5    0  502 -0.70131745372E+02  0.22041921440E+02 -0.29088968152E+02  0.79199533318E+02  0.47000000000E+01 0.  1.
         11    1    6    6    0    0  0.49774941673E+02  0.33536991400E+02 -0.95981553930E+02  0.11320217889E+03  0.00000000000E+00 0. -1.
        -12    1    6    6    0    0  0.59547474140E+01  0.37170337828E+02  0.34899045646E+01  0.37805720002E+02  0.00000000000E+00 0.  1.
</event>
<event>
12    1  0.8416569E-002  0.1965516E+03  0.7818608E-02  0.1157211E+00
         21   -1    0    0  503  502  0.00000000000E+00  0.00000000000E+00  0.24353793342E+03  0.24353793342E+03  0.00000000000E+00 0.  1.
         21   -1    0    0  501  503 -0.00000000000E+00 -0.00000000000E+00 -0.34949331425E+03  0.34949331425E+03  0.00000000000E+00 0. -1.
          6    2    1    2  501    0  0.14001342272E+02 -0.37578773897E+02 -0.28190441865E+03  0.34366064342E+03  0.19241708539E+03 0.  0.
         24    2    3    3    0    0  0.45819951547E+02  0.32946990738E+02 -0.23123443818E+03  0.25105478888E+03  0.79838395916E+02 0.  0.
         -6    2    1    2    0  502 -0.14001342272E+02  0.37578773897E+02  0.17594903782E+03  0.24937060426E+03  0.17210297071E+03 0.  0.
        -24    2    5    5    0    0  0.11321695962E+02 -0.65228105648E+01  0.12751192983E+02  0.78368169842E+02  0.76211870891E+02 0.  0.
          5    1    3    3  501    0 -0.31818609274E+02 -0.70525764635E+02 -0.50669980466E+02  0.92605854533E+02  0.47000000000E+01 0. -1.
        -13    1    4    4    0    0  0.34811334712E+02  0.21867446075E+02 -0.34406234396E+02  0.53607864979E+02  0.00000000000E+00 0.  1.
         14    1    4    4    0    0  0.11008616835E+02  0.11079544662E+02 -0.19682820378E+03  0.19744692390E+03  0.00000000000E+00 0. -1.
         -5    1    5    5    0  502 -0.25323038235E+02  0.44101584462E+02  0.16319784484E+03  0.17100243442E+03  0.47000000000E+01 0.  1.
         13    1    6    6    0    0  0.86857715419E+01 -0.38854962095E+02 -0.69483590529E+01  0.40415719716E+02  0.00000000000E+00 0. -1.
        -14    1    6    6    0    0  0.26359244204E+01  0.32332151530E+02  0.19699552036E+02  0.37952450125E+02  0.00000000000E+00 0.  1.
</event>
<event>
12    1  0.8416569E-002  0.2030046E+03  0.7818608E-02  0.1147492E+00
         21   -1    0    0  501  502  0.00000000000E+00  0.00000000000E+00  0.40741703855E+03  0.40741703855E+03  0.00000000000E+00 0. -1.
         21   -1    0    0  502  503 -0.00000000000E+00 -0.00000000000E+00 -0.16498501707E+03  0.16498501707E+03  0.00000000000E+00 0.  1.
         -6    2    1    2    0  503 -0.80568521736E+01 -0.10764540158E+03 -0.57452243374E+02  0.21097783745E+03  0.17192568824E+03 0.  0.
        -24    2    3    3    0    0  0.50490447167E+02 -0.25465042422E+02 -0.70418970359E+01  0.98085451921E+02  0.79833664103E+02 0.  0.
          6    2    1    2  501    0  0.80568521736E+01  0.10764540158E+03  0.29988426486E+03  0.36142421817E+03  0.17042431699E+03 0.  0.
         24    2    5    5    0    0 -0.52703491587E+02  0.79877841906E+02  0.12526816578E+03  0.17440622759E+03  0.74614282889E+02 0.  0.
          5    1    5    5  501    0  0.60760343761E+02  0.27767559674E+02  0.17461609907E+03  0.18701799058E+03  0.47000000000E+01 0. -1.
        -13    1    6    6    0    0  0.19090366161E+01  0.41950755117E+02  0.13061156325E+02  0.43978450180E+02  0.00000000000E+00 0.  1.
         14    1    6    6    0    0 -0.54612528203E+02  0.37927086789E+02  0.11220700946E+03  0.13042777741E+03  0.00000000000E+00 0. -1.
         -5    1    3    3    0  503 -0.58547299341E+02 -0.82180359158E+02 -0.50410346338E+02  0.11289238552E+03  0.47000000000E+01 0.  1.
         13    1    4    4    0    0 -0.70716078916E+01 -0.35325609126E+02  0.97430780440E+01  0.37320689544E+02  0.00000000000E+00 0. -1.
        -14    1    4    4    0    0  0.57562055059E+02  0.98605667041E+01 -0.16784975080E+02  0.60764762377E+02  0.00000000000E+00 0.  1.
</event>
<event>
12    1  0.8416569E-002  0.2101035E+03  0.7818608E-02  0.1141659E+00
         21   -1    0    0  503  502  0.00000000000E+00  0.00000000000E+00  0.46806587857E+03  0.46806587857E+03  0.00000000000E+00 0. -1.
         21   -1    0    0  501  503 -0.00000000000E+00 -0.00000000000E+00 -0.41228607790E+03  0.41228607790E+03  0.00000000000E+00 0. -1.
          6    2    1    2  501    0  0.94232053001E+02  0.73014018766E+02 -0.35890283673E+03  0.41587824308E+03  0.17301080922E+03 0.  0.
         24    2    3    3    0    0  0.11610013861E+03  0.55972931206E+02 -0.35704599761E+03  0.38769758154E+03  0.78837548876E+02 0.  0.
         -6    2    1    2    0  502 -0.94232053001E+02 -0.73014018766E+02  0.41468263740E+03  0.46447371338E+03  0.17194014631E+03 0.  0.
        -24    2    5    5    0    0 -0.77354853579E+02 -0.59374325232E+02  0.13898872147E+03  0.18788718735E+03  0.80465188787E+02 0.  0.
          5    1    3    3  501    0 -0.21868085606E+02  0.17041087560E+02 -0.18568391197E+01  0.28180661540E+02  0.47000000000E+01 0. -1.
        -13    1    4    4    0    0  0.38041755668E+02 -0.14018518819E+02 -0.57674075973E+02  0.70498177874E+02  0.00000000000E+00 0.  1.
         14    1    4    4    0    0  0.78058382940E+02  0.69991450025E+02 -0.29937192164E+03  0.31719940367E+03  0.00000000000E+00 0. -1.
         -5    1    5    5    0  502 -0.16877199423E+02 -0.13639693534E+02  0.27569391593E+03  0.27658652603E+03  0.47000000000E+01 0.  1.
         13    1    6    6    0    0 -0.35194144312E+02 -0.61575704526E+02  0.12444034820E+03  0.14323266192E+03  0.00000000000E+00 0. -1.
        -14    1    6    6    0    0 -0.42160709266E+02  0.22013792943E+01  0.14548373274E+02  0.44654525432E+02  0.00000000000E+00 0.  1.
</event>
<event>
12    1  0.8416569E-002  0.2184719E+03  0.7818608E-02  0.1135171E+00
         21   -1    0    0  503  502  0.00000000000E+00  0.00000000000E+00  0.14504059927E+04  0.14504059927E+04  0.00000000000E+00 0. -1.
         21   -1    0    0  501  503 -0.00000000000E+00 -0.00000000000E+00 -0.79209139389E+02  0.79209139389E+02  0.00000000000E+00 0. -1.
          6    2    1    2  501    0  0.13192386061E+03  0.12622979455E+02  0.10063471868E+03  0.24053547998E+03  0.17368571017E+03 0.  0.
         24    2    3    3    0    0  0.65749204984E+02 -0.52784497365E+02  0.90374353396E+02  0.14680934613E+03  0.79223097898E+02 0.  0.
         -6    2    1    2    0  502 -0.13192386061E+03 -0.12622979455E+02  0.12705621346E+04  0.12890796521E+04  0.17272801427E+03 0.  0.
        -24    2    5    5    0    0 -0.70254811272E+02  0.76247862930E+01  0.11202130541E+04  0.11252505348E+04  0.79483354228E+02 0.  0.
          5    1    3    3  501    0  0.66174655625E+02  0.65407476820E+02  0.10260365283E+02  0.93726133851E+02  0.47000000000E+01 0. -1.
        -13    1    4    4    0    0  0.13732105586E+02  0.19382482678E+02  0.66986605688E+01  0.24680425685E+02  0.00000000000E+00 0.  1.
         14    1    4    4    0    0  0.52017099398E+02 -0.72166980043E+02  0.83675692827E+02  0.12212892044E+03  0.00000000000E+00 0. -1.
         -5    1    5    5    0  502 -0.61669049337E+02 -0.20247765748E+02  0.15034908051E+03  0.16382911730E+03  0.47000000000E+01 0.  1.
         13    1    6    6    0    0 -0.43203986524E+02  0.17885901591E+02  0.23727575316E+03  0.24183935363E+03  0.00000000000E+00 0. -1.
        -14    1    6    6    0    0 -0.27050824748E+02 -0.10261115298E+02  0.88293730095E+03  0.88341118117E+03  0.00000000000E+00 0.  1.
</event>
<event>
12    1  0.8416569E-002  0.2335490E+03  0.7818608E-02  0.1124673E+00
         21   -1    0    0  501  502  0.00000000000E+00  0.00000000000E+00  0.42010321660E+03  0.42010321660E+03  0.00000000000E+00 0.  1.
         21   -1    0    0  502  503 -0.00000000000E+00 -0.00000000000E+00 -0.19540892532E+03  0.19540892532E+03  0.00000000000E+00 0.  1.
         -6    2    1    2    0  503 -0.61184662204E+02  0.14180395260E+03  0.29234081825E+03  0.37236361001E+03  0.17128800363E+03 0.  0.
        -24    2    3    3    0    0 -0.68422177665E+02  0.16016321537E+03  0.19408695115E+03  0.27203735941E+03  0.77464381207E+02 0.  0.
          6    2    1    2  501    0  0.61184662204E+02 -0.14180395260E+03 -0.67646526965E+02  0.24314853190E+03  0.17519484038E+03 0.  0.
         24    2    5    5    0    0  0.78900880990E+02 -0.24802449276E+02 -0.56906980857E+02  0.12423409191E+03  0.73179195215E+02 0.  0.
          5    1    5    5  501    0 -0.17716218785E+02 -0.11700150332E+03 -0.10739546109E+02  0.11891443999E+03  0.47000000000E+01 0. -1.
        -13    1    6    6    0    0  0.65658363725E+02 -0.35447447409E+02 -0.70363602809E+02  0.10256012312E+03  0.00000000000E+00 0.  1.
         14    1    6    6    0    0  0.13242517265E+02  0.10644998133E+02  0.13456621952E+02  0.21673968790E+02  0.00000000000E+00 0. -1.
         -5    1    3    3    0  503  0.72375154610E+01 -0.18359262772E+02  0.98253867100E+02  0.10032625060E+03  0.47000000000E+01 0.  1.
         13    1    4    4    0    0 -0.57720283023E+02  0.41596884159E+02  0.63968286833E+02  0.95675877652E+02  0.00000000000E+00 0. -1.
        -14    1    4    4    0    0 -0.10701894642E+02  0.11856633121E+03  0.13011866431E+03  0.17636148176E+03  0.00000000000E+00 0.  1.
</event>
<event>
12    1  0.8416569E-002  0.2305271E+03  0.7818608E-02  0.1126359E+00
         21   -1    0    0  501  502  0.00000000000E+00  0.00000000000E+00  0.75627083097E+02  0.75627083097E+02  0.00000000000E+00 0.  1.
         21   -1    0    0  502  503 -0.00000000000E+00 -0.00000000000E+00 -0.70744136631E+03  0.70744136631E+03  0.00000000000E+00 0.  1.
         -6    2    1    2    0  503  0.13332379214E+03  0.75099612492E+02 -0.27859423186E+03  0.36127805670E+03  0.17173206713E+03 0.  0.
        -24    2    3    3    0    0  0.14280824807E+03  0.10484358575E+03 -0.25964025307E+03  0.32445412207E+03  0.80442794101E+02 0.  0.
          6    2    1    2  501    0 -0.13332379214E+03 -0.75099612492E+02 -0.35322005135E+03  0.42179039270E+03  0.17241677805E+03 0.  0.
         24    2    5    5    0    0 -0.14459350751E+03 -0.97633392893E+02 -0.24992094094E+03  0.31535931662E+03  0.80941089945E+02 0.  0.
          5    1    5    5  501    0  0.11269715367E+02  0.22533780401E+02 -0.10329911041E+03  0.10643107608E+03  0.47000000000E+01 0. -1.
        -13    1    6    6    0    0 -0.92865531908E+02 -0.72756095102E+02 -0.99399678607E+02  0.15426520184E+03  0.00000000000E+00 0.  1.
         14    1    6    6    0    0 -0.51727975597E+02 -0.24877297791E+02 -0.15052126233E+03  0.16109411478E+03  0.00000000000E+00 0. -1.
         -5    1    3    3    0  503 -0.94844559303E+01 -0.29743973263E+02 -0.18953978792E+02  0.36823934632E+02  0.47000000000E+01 0.  1.
         11    1    4    4    0    0  0.18707293803E+02  0.49149702258E+02 -0.11183522903E+03  0.12358306731E+03  0.00000000000E+00 0. -1.
        -12    1    4    4    0    0  0.12410095427E+03  0.55693883497E+02 -0.14780502404E+03  0.20087105476E+03  0.00000000000E+00 0.  1.
</event>
<event>
12    1  0.8416569E-002  0.1770236E+03  0.7818608E-02  0.1174149E+00
         21   -1    0    0  501  502  0.00000000000E+00  0.00000000000E+00  0.24985479103E+03  0.24985479103E+03  0.00000000000E+00 0. -1.
         21   -1    0    0  502  503 -0.00000000000E+00 -0.00000000000E+00 -0.15708429536E+03  0.15708429536E+03  0.00000000000E+00 0. -1.
         -6    2    1    2    0  503 -0.11757064425E+02 -0.32226177855E+02 -0.58746261711E+02  0.17392690436E+03  0.16007088959E+03 0.  0.
        -24    2    3    3    0    0  0.15433857568E+02 -0.76549736849E+02 -0.46194792644E+02  0.12022817536E+03  0.78884657016E+02 0.  0.
          6    2    1    2  501    0  0.11757064425E+02  0.32226177855E+02  0.15151675738E+03  0.23301218202E+03  0.17366805722E+03 0.  0.
         24    2    5    5    0    0 -0.42725825804E+02 -0.25097564070E+02  0.10007889589E+03  0.13855404150E+03  0.82012517950E+02 0.  0.
          5    1    5    5  501    0  0.54482890229E+02  0.57323741925E+02  0.51437861489E+02  0.94458140520E+02  0.47000000000E+01 0. -1.
        -13    1    6    6    0    0 -0.59577990839E+02 -0.57416680598E+01  0.95166464375E+02  0.11242401739E+03  0.00000000000E+00 0.  1.
         14    1    6    6    0    0  0.16852165035E+02 -0.19355896010E+02  0.49124315198E+01  0.26130024113E+02  0.00000000000E+00 0. -1.
         -5    1    3    3    0  503 -0.27190921993E+02  0.44323558994E+02 -0.12551469067E+02  0.53698729002E+02  0.47000000000E+01 0.  1.
         13    1    4    4    0    0 -0.17171664783E+02 -0.86544157771E+01 -0.40332282341E+02  0.44681741044E+02  0.00000000000E+00 0. -1.
        -14    1    4    4    0    0  0.32605522351E+02 -0.67895321072E+02 -0.58625103028E+01  0.75546434319E+02  0.00000000000E+00 0.  1.
</event>
<event>
12    1  0.8416569E-002  0.1918792E+03  0.7818608E-02  0.1157017E+00
         21   -1    0    0  503  502  0.00000000000E+00  0.00000000000E+00  0.53692062750E+02  0.53692062750E+02  0.00000000000E+00 0. -1.
         21   -1    0    0  501  503 -0.00000000000E+00 -0.00000000000E+00 -0.85119219593E+03  0.85119219593E+03  0.00000000000E+00 0. -1.
          6    2    1    2  501    0  0.74101031660E+02 -0.39081003566E+02 -0.60143356775E+03  0.63130022782E+03  0.17262489243E+03 0.  0.
         24    2    3    3    0    0 -0.22905297315E+02  0.82123845121E+01 -0.24521779236E+03  0.25906554236E+03  0.79944315899E+02 0.  0.
         -6    2    1    2    0  502 -0.74101031660E+02  0.39081003566E+02 -0.19606656543E+03  0.27358403086E+03  0.17142880777E+03 0.  0.
        -24    2    5    5    0    0 -0.65747383306E+02 -0.77179389491E+01 -0.43282450556E+02  0.11350592425E+03  0.81412157074E+02 0.  0.
          5    1    3    3  501    0  0.97006328975E+02 -0.47293388078E+02 -0.35621577540E+03  0.37223468546E+03  0.47000000000E+01 0. -1.
        -11    1    4    4    0    0 -0.22358432165E+02  0.24748687063E+02 -0.35551226327E+02  0.48747171134E+02  0.00000000000E+00 0.  1.
         12    1    4    4    0    0 -0.54686515006E+00 -0.16536302551E+02 -0.20966656603E+03  0.21031837122E+03  0.00000000000E+00 0. -1.
         -5    1    5    5    0  502 -0.83536483542E+01  0.46798942515E+02 -0.15278411487E+03  0.16007810662E+03  0.47000000000E+01 0.  1.
         11    1    6    6    0    0 -0.84610348787E+02 -0.96650627157E+01 -0.40636057991E+02  0.94358962310E+02  0.00000000000E+00 0. -1.
        -12    1    6    6    0    0  0.18862965482E+02  0.19471237666E+01 -0.26463925650E+01  0.19146961935E+02  0.00000000000E+00 0.  1.
</event>
<event>
12    1  0.8416569E-002  0.1919186E+03  0.7818608E-02  0.1157020E+00
         21   -1    0    0  501  502  0.00000000000E+00  0.00000000000E+00  0.17563140985E+03  0.17563140985E+03  0.00000000000E+00 0.  1.
         21   -1    0    0  502  503 -0.00000000000E+00 -0.00000000000E+00 -0.21561362767E+03  0.21561362767E+03  0.00000000000E+00 0.  1.
         -6    2    1    2    0  503  0.59796035690E+02 -0.55783783721E+02 -0.55936856955E+02  0.19990420776E+03  0.17362420311E+03 0.  0.
        -24    2    3    3    0    0 -0.10382533469E+02  0.17580373551E+02  0.64893685309E+01  0.80629504788E+02  0.77731194530E+02 0.  0.
          6    2    1    2  501    0 -0.59796035690E+02  0.55783783721E+02  0.15954639135E+02  0.19134082975E+03  0.17224797882E+03 0.  0.
         24    2    5    5    0    0 -0.63298135026E+02 -0.27641956283E+02  0.13489422722E+01  0.10644362617E+03  0.80979591634E+02 0.  0.
          5    1    5    5  501    0  0.35020993358E+01  0.83425740004E+02  0.14605696863E+02  0.84897203581E+02  0.47000000000E+01 0. -1.
        -13    1    6    6    0    0 -0.15437732936E+02  0.21093685386E+02  0.22969063975E+02  0.34797199043E+02  0.00000000000E+00 0.  1.
         14    1    6    6    0    0 -0.47860402090E+02 -0.48735641669E+02 -0.21620121703E+02  0.71646427123E+02  0.00000000000E+00 0. -1.
         -5    1    3    3    0  503  0.70178569159E+02 -0.73364157272E+02 -0.62426225486E+02  0.11927470298E+03  0.47000000000E+01 0.  1.
         13    1    4    4    0    0  0.14394566115E+02  0.12854974704E+02 -0.30359570838E+02  0.35974399922E+02  0.00000000000E+00 0. -1.
        -14    1    4    4    0    0 -0.24777099584E+02  0.47253988475E+01  0.36848939369E+02  0.44655104867E+02  0.00000000000E+00 0.  1.
</event>
<event>
12    1  0.8416569E-002  0.1992727E+03  0.7818608E-02  0.1150545E+00
         21   -1    0    0  503  502  0.00000000000E+00  0.00000000000E+00  0.74486317661E+02  0.74486317661E+02  0.00000000000E+00 0.  1.
         21   -1    0    0  501  503 -0.00000000000E+00 -0.00000000000E+00 -0.58190814559E+03  0.58190814559E+03  0.00000000000E+00 0. -1.
          6    2    1    2  501    0  0.25278783865E+02 -0.95688976957E+02 -0.35157889611E+03  0.40412536903E+03  0.17295720997E+03 0.  0.
         24    2    3    3    0    0  0.31447116812E+02 -0.45494640863E+02 -0.33811765666E+03  0.35158191392E+03  0.78915201001E+02 0.  0.
         -6    2    1    2    0  502 -0.25278783865E+02  0.95688976957E+02 -0.15584293182E+03  0.25226909422E+03  0.17192230593E+03 0.  0.
        -24    2    5    5    0    0 -0.47786817144E+02  0.28930534211E+02 -0.15141017376E+03  0.18152278277E+03  0.83095873822E+02 0.  0.
          5    1    3    3  501    0 -0.61683329470E+01 -0.50194336094E+02 -0.13461239448E+02  0.52543455109E+02  0.47000000000E+01 0. -1.
        -11    1    4    4    0    0  0.38932150312E+02 -0.10422484192E+02 -0.67638338073E+02  0.78735540145E+02  0.00000000000E+00 0.  1.
         12    1    4    4    0    0 -0.74850335007E+01 -0.35072156670E+02 -0.27047931858E+03  0.27284637377E+03  0.00000000000E+00 0. -1.
         -5    1    5    5    0  502  0.22508033279E+02  0.66758442746E+02 -0.44327580693E+01  0.70746311452E+02  0.47000000000E+01 0.  1.
         13    1    6    6    0    0 -0.60154501728E+02  0.44217475195E+02 -0.14032694676E+03  0.15895093953E+03  0.00000000000E+00 0. -1.
        -14    1    6    6    0    0  0.12367684584E+02 -0.15286940984E+02 -0.11083226992E+02  0.22571843239E+02  0.00000000000E+00 0.  1.
</event>
<event>
12    1  0.8416569E-002  0.2028268E+03  0.7818608E-02  0.1147703E+00
         21   -1    0    0  501  502  0.00000000000E+00  0.00000000000E+00  0.14508522713E+03  0.14508522713E+03  0.00000000000E+00 0. -1.
         21   -1    0    0  502  503 -0.00000000000E+00 -0.00000000000E+00 -0.41561579894E+03  0.41561579894E+03  0.00000000000E+00 0. -1.
         -6    2    1    2    0  503  0.52345004615E+02  0.92561360692E+02 -0.29425112560E+03  0.35649191677E+03  0.17086590300E+03 0.  0.
        -24    2    3    3    0    0 -0.20448938645E+02  0.94722034821E+02 -0.21189192303E+03  0.24645212881E+03  0.80312152113E+02 0.  0.
          6    2    1    2  501    0 -0.52345004615E+02 -0.92561360692E+02  0.23720553782E+02  0.20420910930E+03  0.17271679318E+03 0.  0.
         24    2    5    5    0    0 -0.27660347858E+02 -0.37452489175E+02 -0.40186304532E+02  0.11616084675E+03  0.98542475389E+02 0.  0.
          5    1    5    5  501    0 -0.24684656757E+02 -0.55108871516E+02  0.63906858314E+02  0.88048262553E+02  0.47000000000E+01 0. -1.
        -11    1    6    6    0    0  0.20071099017E+01  0.16559978129E+02 -0.50943539715E+02  0.53605089353E+02  0.00000000000E+00 0.  1.
         12    1    6    6    0    0 -0.29667457760E+02 -0.54012467305E+02  0.10757235183E+02  0.62555757393E+02  0.00000000000E+00 0. -1.
         -5    1    3    3    0  503  0.72793943260E+02 -0.21606741290E+01 -0.82359202572E+02  0.11003978797E+03  0.47000000000E+01 0.  1.
         13    1    4    4    0    0  0.26829800387E+02  0.52883322037E+02 -0.13135025594E+03  0.14411583422E+03  0.00000000000E+00 0. -1.
        -14    1    4    4    0    0 -0.47278739032E+02  0.41838712784E+02 -0.80541667085E+02  0.10233629458E+03  0.00000000000E+00 0.  1.
</event>
<event>
12    1  0.8416569E-002  0.2422224E+03  0.7818608E-02  0.1118355E+00
         21   -1    0    0  503  502  0.00000000000E+00  0.00000000000E+00  0.59412298824E+03  0.59412298824E+03  0.00000000000E+00 0. -1.
         21   -1    0    0  501  503 -0.00000000000E+00 -0.00000000000E+00 -0.17176204735E+03  0.17176204735E+03  0.00000000000E+00 0. -1.
          6    2    1    2  501    0 -0.14906199820E+03  0.83305506145E+02 -0.38680887587E+02  0.24508637846E+03  0.17149879062E+03 0.  0.
         24    2    3    3    0    0 -0.20355196611E+02  0.56102191429E+02 -0.51848102764E+02  0.11279531050E+03  0.80453504582E+02 0.  0.
         -6    2    1    2    0  502  0.14906199820E+03 -0.83305506145E+02  0.46104182849E+03  0.52079865713E+03  0.17179169653E+03 0.  0.
        -24    2    5    5    0    0  0.15438005708E+03 -0.11337615069E+03  0.42615317671E+03  0.47419572336E+03  0.81041350311E+02 0.  0.
          5    1    3    3  501    0 -0.12870680158E+03  0.27203314716E+02  0.13167215177E+02  0.13229106796E+03  0.47000000000E+01 0. -1.
        -11    1    4    4    0    0 -0.41686223169E+02  0.29506632966E+02 -0.58922599733E+02  0.77975992141E+02  0.00000000000E+00 0.  1.
         12    1    4    4    0    0  0.21331026558E+02  0.26595558463E+02  0.70744969688E+01  0.34819318364E+02  0.00000000000E+00 0. -1.
         -5    1    5    5    0  502 -0.53180588882E+01  0.30070644544E+02  0.34888651775E+02  0.46602933773E+02  0.47000000000E+01 0.  1.
         11    1    6    6    0    0  0.14199221160E+03 -0.10991359584E+03  0.31729656941E+03  0.36458181477E+03  0.00000000000E+00 0. -1.
        -12    1    6    6    0    0  0.12387845487E+02 -0.34625548459E+01  0.10885660730E+03  0.10961390858E+03  0.00000000000E+00 0.  1.
</event>
<event>
12    1  0.8416569E-002  0.1983514E+03  0.7818608E-02  0.1151569E+00
         21   -1    0    0  503  502  0.00000000000E+00  0.00000000000E+00  0.42971886874E+04  0.42971886874E+04  0.00000000000E+00 0.  1.
         21   -1    0    0  501  503 -0.00000000000E+00 -0.00000000000E+00 -0.14488641208E+02  0.14488641208E+02  0.00000000000E+00 0.  1.
          6    2    1    2  501    0  0.43915182234E+02 -0.88424959945E+02  0.34537723626E+04  0.34593485390E+04  0.16970935460E+03 0.  0.
         24    2    3    3    0    0  0.12358394573E+02 -0.73821401058E+02  0.32905037456E+04  0.32923520538E+04  0.81023559571E+02 0.  0.
         -6    2    1    2    0  502 -0.43915182234E+02  0.88424959945E+02  0.82892768368E+03  0.85232878967E+03  0.17203413660E+03 0.  0.
        -24    2    5    5    0    0  0.76529860873E+00  0.11329686785E+03  0.69919479557E+03  0.71280219927E+03  0.79855163812E+02 0.  0.
          5    1    3    3  501    0  0.31556787661E+02 -0.14603558887E+02  0.16326861695E+03  0.16699648517E+03  0.47000000000E+01 0. -1.
        -11    1    4    4    0    0  0.43703435137E+02 -0.35515464521E+02  0.12785995544E+04  0.12798391145E+04  0.00000000000E+00 0.  1.
         12    1    4    4    0    0 -0.31345040564E+02 -0.38305936536E+02  0.20119041912E+04  0.20125129393E+04  0.00000000000E+00 0. -1.
         -5    1    5    5    0  502 -0.44680480842E+02 -0.24871907901E+02  0.12973288811E+03  0.13952659040E+03  0.47000000000E+01 0.  1.
         13    1    6    6    0    0  0.39863083887E+02  0.62965431688E+02  0.35125669515E+03  0.35907516892E+03  0.00000000000E+00 0. -1.
        -14    1    6    6    0    0 -0.39097785279E+02  0.50331436158E+02  0.34793810042E+03  0.35372703036E+03  0.00000000000E+00 0.  1.
</event>
<event>
12    1  0.8416569E-002  0.1838859E+03  0.7818608E-02  0.1164874E+00
         21   -1    0    0  503  502  0.00000000000E+00  0.00000000000E+00  0.99454418148E+03  0.99454418148E+03  0.00000000000E+00 0. -1.
         21   -1    0    0  501  503 -0.00000000000E+00 -0.00000000000E+00 -0.34203970818E+02  0.34203970818E+02  0.00000000000E+00 0.  1.
          6    2    1    2  501    0  0.58657810689E+02  0.24094262576E+01  0.39688433389E+03  0.43604540224E+03  0.17079775829E+03 0.  0.
         24    2    3    3    0    0 -0.14758081943E+01 -0.24627153448E+02  0.70395661574E+02  0.10293285082E+03  0.70929175329E+02 0.  0.
         -6    2    1    2    0  502 -0.58657810689E+02 -0.24094262576E+01  0.56345587677E+03  0.59270275005E+03  0.17426267750E+03 0.  0.
        -24    2    5    5    0    0 -0.83773492568E+02 -0.52210724674E+02  0.39000131220E+03  0.41044045892E+03  0.81341188661E+02 0.  0.
          5    1    3    3  501    0  0.60133618883E+02  0.27036579705E+02  0.32648867232E+03  0.33311255142E+03  0.47000000000E+01 0. -1.
        -13    1    4    4    0    0  0.13013724347E+02  0.22347022995E+02  0.26535835102E+02  0.37052624775E+02  0.00000000000E+00 0.  1.
         14    1    4    4    0    0 -0.14489532542E+02 -0.46974176442E+02  0.43859826472E+02  0.65880226046E+02  0.00000000000E+00 0. -1.
         -5    1    5    5    0  502  0.25115681879E+02  0.49801298416E+02  0.17345456457E+03  0.18226229113E+03  0.47000000000E+01 0.  1.
         11    1    6    6    0    0 -0.58119713410E+01 -0.51499565733E+01  0.19574055950E+03  0.19589453208E+03  0.00000000000E+00 0. -1.
        -12    1    6    6    0    0 -0.77961521227E+02 -0.47060768100E+02  0.19426075270E+03  0.21454592685E+03  0.00000000000E+00 0.  1.
</event>
<event>
12    1  0.8416569E-002  0.2057982E+03  0.7818608E-02  0.1145267E+00
         21   -1    0    0  501  502  0.00000000000E+00  0.00000000000E+00  0.90571106428E+02  0.90571106428E+02  0.00000000000E+00 0.  1.
         21   -1    0    0  502  503 -0.00000000000E+00 -0.00000000000E+00 -0.47454986635E+03  0.47454986635E+03  0.00000000000E+00 0.  1.
         -6    2    1    2    0  503 -0.20727183452E+02  0.10862388732E+03 -0.15051269009E+03  0.25496463232E+03  0.17356303992E+03 0.  0.
        -24    2    3    3    0    0 -0.56122979743E+02  0.94316275156E+02 -0.16516875064E+03  0.21380080996E+03  0.79904452542E+02 0.  0.
          6    2    1    2  501    0  0.20727183452E+02 -0.10862388732E+03 -0.23346606983E+03  0.31015634045E+03  0.17164435537E+03 0.  0.
         24    2    5    5    0    0 -0.26854383071E+02 -0.12349290712E+03 -0.19930050308E+03  0.24953894052E+03  0.81100778731E+02 0.  0.
          5    1    5    5  501    0  0.47581566523E+02  0.14869019804E+02 -0.34165566749E+02  0.60617399927E+02  0.47000000000E+01 0. -1.
        -11    1    6    6    0    0  0.16490405051E+02 -0.26705234042E+02 -0.10687276700E+02  0.33156008011E+02  0.00000000000E+00 0.  1.
         12    1    6    6    0    0 -0.43344788123E+02 -0.96787673080E+02 -0.18861322638E+03  0.21638293251E+03  0.00000000000E+00 0. -1.
         -5    1    3    3    0  503  0.35395796292E+02  0.14307612161E+02  0.14656060549E+02  0.41163822365E+02  0.47000000000E+01 0.  1.
         13    1    4    4    0    0 -0.19424500195E+01 -0.10312160900E+02  0.50069191128E+00  0.10505449391E+02  0.00000000000E+00 0. -1.
        -14    1    4    4    0    0 -0.54180529724E+02  0.10462843606E+03 -0.16566944255E+03  0.20329536057E+03  0.00000000000E+00 0.  1.
</event>
<event>
12    1  0.8416569E-002  0.2017071E+03  0.7818608E-02  0.1148786E+00
         21   -1    0    0  501  502  0.00000000000E+00  0.00000000000E+00  0.11256610490E+04  0.11256610490E+04  0.00000000000E+00 0.  1.
         21   -1    0    0  502  503 -0.00000000000E+00 -0.00000000000E+00 -0.62450659689E+03  0.62450659689E+03  0.00000000000E+00 0.  1.
         -6    2    1    2    0  503 -0.13268158929E+02  0.10240275885E+03 -0.59901817842E+03  0.63206688519E+03  0.17327261819E+03 0.  0.
        -24    2    3    3    0    0 -0.35636549565E+02  0.12654059767E+03 -0.37286509627E+03  0.40348366899E+03  0.80549392321E+02 0.  0.
          6    2    1    2  501    0  0.13268158929E+02 -0.10240275885E+03  0.11001726306E+04  0.11181007607E+04  0.17060810380E+03 0.  0.
         24    2    5    5    0    0  0.57839578246E+02 -0.63960495280E+02  0.93866596049E+03  0.94613880702E+03  0.81538303981E+02 0.  0.
          5    1    5    5  501    0 -0.44571419317E+02 -0.38442263570E+02  0.16150667007E+03  0.17196195371E+03  0.47000000000E+01 0. -1.
        -11    1    6    6    0    0  0.35912454062E+02 -0.74292239086E+02  0.49661478096E+03  0.50342356105E+03  0.00000000000E+00 0.  1.
         12    1    6    6    0    0  0.21927124184E+02  0.10331743806E+02  0.44205117952E+03  0.44271524598E+03  0.00000000000E+00 0. -1.
         -5    1    3    3    0  503  0.22368390636E+02 -0.24137838817E+02 -0.22615308214E+03  0.22858321619E+03  0.47000000000E+01 0.  1.
         11    1    4    4    0    0  0.11245375421E+02  0.61692845144E+01 -0.52976273191E+01  0.13877441947E+02  0.00000000000E+00 0. -1.
        -12    1    4    4    0    0 -0.46881924986E+02  0.12037131315E+03 -0.36756746895E+03  0.38960622705E+03  0.00000000000E+00 0.  1.
</event>
<event>
12    1  0.8416569E-002  0.1737051E+03  0.7818608E-02  0.1174129E+00
         21   -1    0    0  501  502  0.00000000000E+00  0.00000000000E+00  0.76586574000E+02  0.76586574000E+02  0.00000000000E+00 0.  1.
         21   -1    0    0  502  503 -0.00000000000E+00 -0.00000000000E+00 -0.22175627662E+04  0.22175627662E+04  0.00000000000E+00 0.  1.
         -6    2    1    2    0  503  0.16410599707E+01 -0.21893353162E+02 -0.21107233432E+04  0.21178295092E+04  0.17194995437E+03 0.  0.
        -24    2    3    3    0    0  0.40701753904E+01  0.46047583551E+01 -0.48274257582E+03  0.48962451005E+03  0.81572030788E+02 0.  0.
          6    2    1    2  501    0 -0.16410599707E+01  0.21893353162E+02 -0.30252848999E+02  0.17631983093E+03  0.17231203068E+03 0.  0.
         24    2    5    5    0    0  0.19973041643E+02  0.77798223313E+02 -0.56659348315E+01  0.11136499860E+03  0.76932269898E+02 0.  0.
          5    1    5    5  501    0 -0.21614101613E+02 -0.55904870151E+02 -0.24586914167E+02  0.64954832334E+02  0.47000000000E+01 0. -1.
        -13    1    6    6    0    0  0.37121855717E+02  0.40495697044E+02  0.24766391635E+02  0.60260333600E+02  0.00000000000E+00 0.  1.
         14    1    6    6    0    0 -0.17148814074E+02  0.37302526269E+02 -0.30432326467E+02  0.51104664996E+02  0.00000000000E+00 0. -1.
         -5    1    3    3    0  503 -0.24291154197E+01 -0.26498111517E+02 -0.16279807673E+04  0.16282049992E+04  0.47000000000E+01 0.  1.
         13    1    4    4    0    0  0.31859612960E+02  0.29516302821E+02 -0.29818589985E+03  0.30133217209E+03  0.00000000000E+00 0. -1.
        -14    1    4    4    0    0 -0.27789437569E+02 -0.24911544466E+02 -0.18455667597E+03  0.18829233796E+03  0.00000000000E+00 0.  1.
</event>
<event>
12    1  0.8416569E-002  0.2053250E+03  0.7818608E-02  0.1145417E+00
         21   -1    0    0  501  502  0.00000000000E+00  0.00000000000E+00  0.24209484708E+03  0.24209484708E+03  0.00000000000E+00 0.  1.
         21   -1    0    0  502  503 -0.00000000000E+00 -0.00000000000E+00 -0.22032130613E+03  0.22032130613E+03  0.00000000000E+00 0. -1.
         -6    2    1    2    0  503 -0.10975806809E+03 -0.18889618355E+02 -0.95424074034E+02  0.22599782445E+03  0.17194653691E+03 0.  0.
        -24    2    3    3    0    0 -0.42788974939E+02 -0.34300907924E+02 -0.11914822846E+03  0.15314665571E+03  0.79057884794E+02 0.  0.
          6    2    1    2  501    0  0.10975806809E+03  0.18889618355E+02  0.11719761499E+03  0.23641832875E+03  0.17249548985E+03 0.  0.
         24    2    5    5    0    0  0.11588750640E+03  0.45290894780E+02  0.13815102354E+03  0.20183896004E+03  0.78562594133E+02 0.  0.
          5    1    5    5  501    0 -0.61294383009E+01 -0.26401276425E+02 -0.20953408551E+02  0.34579368714E+02  0.47000000000E+01 0. -1.
        -13    1    6    6    0    0  0.41936544353E+02  0.56550120120E+02  0.83381006069E+02  0.10912828236E+03  0.00000000000E+00 0.  1.
         14    1    6    6    0    0  0.73950962042E+02 -0.11259225340E+02  0.54770017469E+02  0.92710677679E+02  0.00000000000E+00 0. -1.
         -5    1    3    3    0  503 -0.66969093155E+02  0.15411289569E+02  0.23724154424E+02  0.72851168744E+02  0.47000000000E+01 0.  1.
         11    1    4    4    0    0 -0.63573717971E+02 -0.34031089656E+02 -0.73385196431E+02  0.10288401108E+03  0.00000000000E+00 0. -1.
        -12    1    4    4    0    0  0.20784743031E+02 -0.26981826712E+00 -0.45763032027E+02  0.50262644629E+02  0.00000000000E+00 0.  1.
</event>
<event>
12    1  0.8416569E-002  0.3067266E+03  0.7818608E-02  0.1081932E+00
         21   -1    0    0  503  502  0.00000000000E+00  0.00000000000E+00  0.18513047001E+03  0.18513047001E+03  0.00000000000E+00 0. -1.
         21   -1    0    0  501  503 -0.00000000000E+00 -0.00000000000E+00 -0.73044889436E+03  0.73044889436E+03  0.00000000000E+00 0.  1.
          6    2    1    2  501    0 -0.11871301465E+02  0.25413518505E+03 -0.52521753324E+03  0.60819483447E+03  0.17123632608E+03 0.  0.
         24    2    3    3    0    0 -0.55264675069E+02  0.88273966828E+02 -0.28599713348E+03  0.31384569102E+03  0.76539400882E+02 0.  0.
         -6    2    1    2    0  502  0.11871301465E+02 -0.25413518505E+03 -0.20100891103E+02  0.30738452990E+03  0.17133471137E+03 0.  0.
        -24    2    5    5    0    0  0.33386117076E+02 -0.15685352986E+03  0.50018002069E+02  0.18546095997E+03  0.78589468099E+02 0.  0.
          5    1    3    3  501    0  0.43393373603E+02  0.16586121822E+03 -0.23922039976E+03  0.29434914345E+03  0.47000000000E+01 0. -1.
        -13    1    4    4    0    0 -0.23358536905E+02  0.93304236025E+02 -0.22806228208E+03  0.24751506260E+03  0.00000000000E+00 0.  1.
         14    1    4    4    0    0 -0.31906138164E+02 -0.50302691967E+01 -0.57934851400E+02  0.66330628427E+02  0.00000000000E+00 0. -1.
         -5    1    5    5    0  502 -0.21514815610E+02 -0.97281655188E+02 -0.70118893172E+02  0.12192356994E+03  0.47000000000E+01 0.  1.
         11    1    6    6    0    0 -0.31752331339E+01 -0.13589673129E+03  0.32126672187E+02  0.13967865530E+03  0.00000000000E+00 0. -1.
        -12    1    6    6    0    0  0.36561350210E+02 -0.20956798577E+02  0.17891329882E+02  0.45782304668E+02  0.00000000000E+00 0.  1.
</event>
<event>
12    1  0.8416569E-002  0.2038444E+03  0.7818608E-02  0.1147105E+00
         21   -1    0    0  503  502  0.00000000000E+00  0.00000000000E+00  0.57011320325E+03  0.57011320325E+03  0.00000000000E+00 0.  1.
         21   -1    0    0  501  503 -0.00000000000E+00 -0.00000000000E+00 -0.80872596467E+02  0.80872596467E+02  0.00000000000E+00 0.  1.
          6    2    1    2  501    0 -0.10914245143E+03 -0.98201141233E+01  0.35152448015E+03  0.40498121522E+03  0.16861736325E+03 0.  0.
         24    2    3    3    0    0 -0.12360618965E+03 -0.34508969844E+02  0.19942639353E+03  0.25014369627E+03  0.79571497587E+02 0.  0.
         -6    2    1    2    0  502  0.10914245143E+03  0.98201141233E+01  0.13771612663E+03  0.24600458450E+03  0.17188372440E+03 0.  0.
        -24    2    5    5    0    0  0.85077939323E+00 -0.29059382495E+02  0.79457590904E+02  0.11695091940E+03  0.80739316691E+02 0.  0.
          5    1    3    3  501    0  0.14463738218E+02  0.24688855721E+02  0.15209808662E+03  0.15483751894E+03  0.47000000000E+01 0. -1.
        -13    1    4    4    0    0 -0.38289928795E+02  0.17896967532E+02  0.25235524311E+02  0.49226535336E+02  0.00000000000E+00 0.  1.
         14    1    4    4    0    0 -0.85316260856E+02 -0.52405937377E+02  0.17419086922E+03  0.20091716094E+03  0.00000000000E+00 0. -1.
         -5    1    5    5    0  502  0.10829167204E+03  0.38879496619E+02  0.58258535731E+02  0.12905366510E+03  0.47000000000E+01 0.  1.
         13    1    6    6    0    0 -0.23640094212E+01  0.28268458500E+02  0.27708239605E+02  0.39654014028E+02  0.00000000000E+00 0. -1.
        -14    1    6    6    0    0  0.32147888145E+01 -0.57327840995E+02  0.51749351299E+02  0.77296905372E+02  0.00000000000E+00 0.  1.
</event>
<event>
12    1  0.8416569E-002  0.1797140E+03  0.7818608E-02  0.1169546E+00
         21   -1    0    0  501  502  0.00000000000E+00  0.00000000000E+00  0.56082870332E+03  0.56082870332E+03  0.00000000000E+00 0. -1.
         21   -1    0    0  502  503 -0.00000000000E+00 -0.00000000000E+00 -0.72553826021E+02  0.72553826021E+02  0.00000000000E+00 0. -1.
         -6    2    1    2    0  503 -0.33959583388E+02 -0.16234176312E+02  0.94670681092E+02  0.20312478146E+03  0.17572802053E+03 0.  0.
        -24    2    3    3    0    0  0.19275407101E+02 -0.56821931048E+02  0.90531674174E+02  0.13588973535E+03  0.81668616849E+02 0.  0.
          6    2    1    2  501    0  0.33959583388E+02  0.16234176312E+02  0.39360419620E+03  0.43025774788E+03  0.16964865032E+03 0.  0.
         24    2    5    5    0    0 -0.35317446486E+01 -0.44790598491E+02  0.14360639566E+03  0.17016043321E+03  0.79455051596E+02 0.  0.
          5    1    5    5  501    0  0.37491328037E+02  0.61024774803E+02  0.24999780055E+03  0.26009731466E+03  0.47000000000E+01 0. -1.
        -11    1    6    6    0    0  0.21371443268E+02 -0.24589137131E+02  0.12023335180E+02  0.34726428568E+02  0.00000000000E+00 0.  1.
         12    1    6    6    0    0 -0.24903187917E+02 -0.20201461360E+02  0.13158306048E+03  0.13543400465E+03  0.00000000000E+00 0. -1.
         -5    1    3    3    0  503 -0.53234990489E+02  0.40587754736E+02  0.41390069176E+01  0.67235046108E+02  0.47000000000E+01 0.  1.
         13    1    4    4    0    0 -0.23627316595E+02 -0.34773314121E+02  0.11988155387E+02  0.43716693997E+02  0.00000000000E+00 0. -1.
        -14    1    4    4    0    0  0.42902723696E+02 -0.22048616927E+02  0.78543518788E+02  0.92173041354E+02  0.00000000000E+00 0.  1.
</event>
<event>
12    1  0.8416569E-002  0.1763789E+03  0.7818608E-02  0.1172160E+00
         21   -1    0    0  501  502  0.00000000000E+00  0.00000000000E+00  0.52064943403E+03  0.52064943403E+03  0.00000000000E+00 0.  1.
         21   -1    0    0  502  503 -0.00000000000E+00 -0.00000000000E+00 -0.61680096106E+02  0.61680096106E+02  0.00000000000E+00 0. -1.
         -6    2    1    2    0  503  0.19862545887E+02 -0.33484875582E+02  0.16315093756E+03  0.23791982828E+03  0.16873606206E+03 0.  0.
        -24    2    3    3    0    0 -0.33700333511E+02 -0.52067657056E+02  0.14741425953E+03  0.17889411479E+03  0.80158511747E+02 0.  0.
          6    2    1    2  501    0 -0.19862545887E+02  0.33484875582E+02  0.29581840036E+03  0.34440970186E+03  0.17202836719E+03 0.  0.
         24    2    5    5    0    0 -0.12587527775E+01  0.88201568914E+02  0.20349392536E+03  0.23538715221E+03  0.78843088149E+02 0.  0.
          5    1    5    5  501    0 -0.18603793110E+02 -0.54716693332E+02  0.92324475005E+02  0.10902254965E+03  0.47000000000E+01 0. -1.
        -11    1    6    6    0    0  0.39317190512E+01 -0.24328257387E+01  0.89691637876E+02  0.89810728539E+02  0.00000000000E+00 0.  1.
         12    1    6    6    0    0 -0.51904718287E+01  0.90634394653E+02  0.11380228748E+03  0.14557642367E+03  0.00000000000E+00 0. -1.
         -5    1    3    3    0  503  0.53562879398E+02  0.18582781474E+02  0.15736678030E+02  0.59025713483E+02  0.47000000000E+01 0.  1.
         11    1    4    4    0    0  0.18237585801E+01 -0.63567890263E+02  0.10056318063E+03  0.11898384792E+03  0.00000000000E+00 0. -1.
        -12    1    4    4    0    0 -0.35524092091E+02  0.11500233207E+02  0.46851078895E+02  0.59910266869E+02  0.00000000000E+00 0.  1.
</event>
<event>
12    1  0.8416569E-002  0.2019630E+03  0.7818608E-02  0.1148279E+00
         21   -1    0    0  501  502  0.00000000000E+00  0.00000000000E+00  0.30622515663E+02  0.30622515663E+02  0.00000000000E+00 0. -1.
         21   -1    0    0  502  503 -0.00000000000E+00 -0.00000000000E+00 -0.13282547593E+04  0.13282547593E+04  0.00000000000E+00 0.  1.
         -6    2    1    2    0  503  0.10615831013E+03 -0.69122556762E+01 -0.62030292602E+03  0.65207881432E+03  0.17062735412E+03 0.  0.
        -24    2    3    3    0    0  0.58944052303E+02 -0.69677132397E+02 -0.33745510189E+03  0.35849135290E+03  0.79440545250E+02 0.  0.
          6    2    1    2  501    0 -0.10615831013E+03  0.69122556762E+01 -0.67732931763E+03  0.70679846065E+03  0.17167321682E+03 0.  0.
         24    2    5    5    0    0 -0.23652731030E+02 -0.30837780338E+02 -0.49815678980E+03  0.50590764322E+03  0.79195554546E+02 0.  0.
          5    1    5    5  501    0 -0.82505579097E+02  0.37750036014E+02 -0.17917252782E+03  0.20089081743E+03  0.47000000000E+01 0. -1.
        -13    1    6    6    0    0  0.21813033939E+02  0.61021157535E+01 -0.24577056943E+03  0.24681210883E+03  0.00000000000E+00 0.  1.
         14    1    6    6    0    0 -0.45465764968E+02 -0.36939896091E+02 -0.25238622037E+03  0.25909553439E+03  0.00000000000E+00 0. -1.
         -5    1    3    3    0  503  0.47214257823E+02  0.62764876721E+02 -0.28284782413E+03  0.29358746142E+03  0.47000000000E+01 0.  1.
         13    1    4    4    0    0  0.46255970491E+02 -0.72558163787E+02 -0.33417155837E+03  0.34507235815E+03  0.00000000000E+00 0. -1.
        -14    1    4    4    0    0  0.12688081812E+02  0.28810313898E+01 -0.32835435225E+01  0.13418994746E+02  0.00000000000E+00 0.  1.
</event>
<event>
12    1  0.8416569E-002  0.5482639E+03  0.7818608E-02  0.1001906E+00
         21   -1    0    0  503  502  0.00000000000E+00  0.00000000000E+00  0.78067037057E+03  0.78067037057E+03  0.00000000000E+00 0. -1.
         21   -1    0    0  501  503 -0.00000000000E+00 -0.00000000000E+00 -0.74595813575E+03  0.74595813575E+03  0.00000000000E+00 0.  1.
          6    2    1    2  501    0 -0.10360130042E+03  0.50966695579E+03 -0.51367432419E+03  0.75117953481E+03  0.17296169203E+03 0.  0.
         24    2    3    3    0    0  0.41510824916E+00  0.18140532235E+03 -0.24053008024E+03  0.31162864895E+03  0.79684578500E+02 0.  0.
         -6    2    1    2    0  502  0.10360130042E+03 -0.50966695579E+03  0.54838655902E+03  0.77544897152E+03  0.17349251871E+03 0.  0.
        -24    2    5    5    0    0  0.51700816230E+02 -0.18740382358E+03  0.29547769844E+03  0.36249356424E+03  0.79381020099E+02 0.  0.
          5    1    3    3  501    0 -0.10401640867E+03  0.32826163343E+03 -0.27314424395E+03  0.43955088586E+03  0.47000000000E+01 0. -1.
        -11    1    4    4    0    0 -0.27897398924E+02  0.15270516440E+03 -0.16865850245E+03  0.22922221216E+03  0.00000000000E+00 0.  1.
         12    1    4    4    0    0  0.28312507174E+02  0.28700157956E+02 -0.71871577793E+02  0.82406436785E+02  0.00000000000E+00 0. -1.
         -5    1    5    5    0  502  0.51900484188E+02 -0.32226313221E+03  0.25290886058E+03  0.41295540727E+03  0.47000000000E+01 0.  1.
         13    1    6    6    0    0  0.12558098647E+02 -0.72645052138E+02  0.51135154677E+02  0.89720752815E+02  0.00000000000E+00 0. -1.
        -14    1    6    6    0    0  0.39142717583E+02 -0.11475877144E+03  0.24434254376E+03  0.27277281143E+03  0.00000000000E+00 0.  1.
</event>
<event>
12    1  0.8416569E-002  0.2275433E+03  0.7818608E-02  0.1128521E+00
         21   -1    0    0  501  502  0.00000000000E+00  0.00000000000E+00  0.85010756909E+03  0.85010756909E+03  0.00000000000E+00 0.  1.
         21   -1    0    0  502  503 -0.00000000000E+00 -0.00000000000E+00 -0.77150846362E+02  0.77150846362E+02  0.00000000000E+00 0. -1.
         -6    2    1    2    0  503 -0.55853136507E+02  0.13697144261E+03  0.17183830887E+03  0.28451484667E+03  0.17187072070E+03 0.  0.
        -24    2    3    3    0    0 -0.10651187416E+02  0.18586363246E+01  0.87593181114E+02  0.11893097616E+03  0.79718939974E+02 0.  0.
          6    2    1    2  501    0  0.55853136507E+02 -0.13697144261E+03  0.60111841386E+03  0.64274356878E+03  0.17290228101E+03 0.  0.
         24    2    5    5    0    0  0.52887521828E+02 -0.13023690829E+03  0.60962454930E+03  0.63055368924E+03  0.78721799134E+02 0.  0.
          5    1    5    5  501    0  0.29656146787E+01 -0.67345343195E+01 -0.85061354433E+01  0.12189879536E+02  0.47000000000E+01 0. -1.
        -13    1    6    6    0    0  0.60074153018E+02 -0.13168112790E+03  0.49582763930E+03  0.51652093007E+03  0.00000000000E+00 0.  1.
         14    1    6    6    0    0 -0.71866311900E+01  0.14442196158E+01  0.11379691001E+03  0.11403275917E+03  0.00000000000E+00 0. -1.
         -5    1    3    3    0  503 -0.45201949091E+02  0.13511280628E+03  0.84245127756E+02  0.16558387051E+03  0.47000000000E+01 0.  1.
         11    1    4    4    0    0  0.26460942122E+02  0.25251999908E+02  0.39364236481E+02  0.53734421659E+02  0.00000000000E+00 0. -1.
        -12    1    4    4    0    0 -0.37112129537E+02 -0.23393363583E+02  0.48228944632E+02  0.65196554501E+02  0.00000000000E+00 0.  1.
</event>
<event>
12    1  0.8416569E-002  0.2465853E+03  0.7818608E-02  0.1115618E+00
         21   -1    0    0  503  502  0.00000000000E+00  0.00000000000E+00  0.14700464186E+03  0.14700464186E+03  0.00000000000E+00 0. -1.
         21   -1    0    0  501  503 -0.00000000000E+00 -0.00000000000E+00 -0.43729096608E+03  0.43729096608E+03  0.00000000000E+00 0. -1.
          6    2    1    2  501    0 -0.43552256572E+02 -0.16996703659E+03 -0.74939520268E+02  0.25691425531E+03  0.17205641605E+03 0.  0.
         24    2    3    3    0    0 -0.49776591645E+02 -0.14019502798E+03  0.77298054819E+01  0.16870188507E+03  0.79172098537E+02 0.  0.
         -6    2    1    2    0  502  0.43552256572E+02  0.16996703659E+03 -0.21534680395E+03  0.32738135264E+03  0.17325908779E+03 0.  0.
        -24    2    5    5    0    0  0.37797277471E+02  0.17510765400E+03 -0.10834027198E+03  0.21999404605E+03  0.67590244030E+02 0.  0.
          5    1    3    3  501    0  0.62243350732E+01 -0.29772008609E+02 -0.82669325750E+02  0.88212370241E+02  0.47000000000E+01 0. -1.
        -13    1    4    4    0    0 -0.50468527756E+02 -0.67838617814E+02  0.34814072763E+02  0.91439433633E+02  0.00000000000E+00 0.  1.
         14    1    4    4    0    0  0.69193611037E+00 -0.72356410164E+02 -0.27084267281E+02  0.77262451434E+02  0.00000000000E+00 0. -1.
         -5    1    5    5    0  502  0.57549791010E+01 -0.51406174157E+01 -0.10700653197E+03  0.10738730659E+03  0.47000000000E+01 0.  1.
         11    1    6    6    0    0  0.18006610878E+02  0.11579671579E+03 -0.10505224807E+03  0.15738199467E+03  0.00000000000E+00 0. -1.
        -12    1    6    6    0    0  0.19790666593E+02  0.59310938216E+02 -0.32880239153E+01  0.62612051376E+02  0.00000000000E+00 0.  1.
</event>
<event>
12    1  0.8416569E-002  0.2947595E+03  0.7818608E-02  0.1088045E+00
         21   -1    0    0  503  502  0.00000000000E+00  0.00000000000E+00  0.10176338305E+03  0.10176338305E+03  0.00000000000E+00 0. -1.
         21   -1    0    0  501  503 -0.00000000000E+00 -0.00000000000E+00 -0.95121220038E+03  0.95121220038E+03  0.00000000000E+00 0. -1.
          6    2    1    2  501    0  0.22202294981E+03 -0.84557030189E+02 -0.25399483557E+03  0.38909711016E+03  0.17446805737E+03 0.  0.
         24    2    3    3    0    0  0.92270924624E+02 -0.52395114623E+02 -0.20689617530E+03  0.24728614214E+03  0.84173850881E+02 0.  0.
         -6    2    1    2    0  502 -0.22202294981E+03  0.84557030189E+02 -0.59545398176E+03  0.66387847327E+03  0.17240969023E+03 0.  0.
        -24    2    5    5    0    0 -0.65657456256E+02  0.19844347280E+02 -0.14052296979E+03  0.17846914646E+03  0.86022273389E+02 0.  0.
          5    1    3    3  501    0  0.12975202518E+03 -0.32161915566E+02 -0.47098660274E+02  0.14181096802E+03  0.47000000000E+01 0. -1.
        -11    1    4    4    0    0  0.27684613550E+00 -0.45343977236E+01 -0.93550058854E+02  0.93660295313E+02  0.00000000000E+00 0.  1.
         12    1    4    4    0    0  0.91994078488E+02 -0.47860716899E+02 -0.11334611644E+03  0.15362584682E+03  0.00000000000E+00 0. -1.
         -5    1    5    5    0  502 -0.15636549355E+03  0.64712682910E+02 -0.45493101197E+03  0.48540932681E+03  0.47000000000E+01 0.  1.
         11    1    6    6    0    0 -0.84650939562E+02  0.27152520500E+02 -0.12197758622E+03  0.15093565675E+03  0.00000000000E+00 0. -1.
        -12    1    6    6    0    0  0.18993483307E+02 -0.73081732206E+01 -0.18545383571E+02  0.27533489712E+02  0.00000000000E+00 0.  1.
</event>
<event>
12    1  0.8416569E-002  0.2115982E+03  0.7818608E-02  0.1140504E+00
         21   -1    0    0  503  502  0.00000000000E+00  0.00000000000E+00  0.38184007933E+03  0.38184007933E+03  0.00000000000E+00 0.  1.
         21   -1    0    0  501  503 -0.00000000000E+00 -0.00000000000E+00 -0.42844169234E+03  0.42844169234E+03  0.00000000000E+00 0. -1.
          6    2    1    2  501    0  0.12123735226E+03 -0.98880237978E+01 -0.36887115403E+03  0.42475429034E+03  0.17191279849E+03 0.  0.
         24    2    3    3    0    0  0.57253630658E+02  0.56724989934E+02 -0.15431488157E+03  0.19111419471E+03  0.78840662357E+02 0.  0.
         -6    2    1    2    0  502 -0.12123735226E+03  0.98880237978E+01  0.32226954102E+03  0.38552748134E+03  0.17314015477E+03 0.  0.
        -24    2    5    5    0    0 -0.57978514814E+01 -0.13808403527E+02  0.68404942669E+02  0.10560405733E+03  0.79048679011E+02 0.  0.
          5    1    3    3  501    0  0.63983721607E+02 -0.66613013732E+02 -0.21455627246E+03  0.23364009562E+03  0.47000000000E+01 0. -1.
        -13    1    4    4    0    0  0.57883293642E+01  0.36896955871E+02 -0.13213232675E+02  0.39616658455E+02  0.00000000000E+00 0.  1.
         14    1    4    4    0    0  0.51465301293E+02  0.19828034063E+02 -0.14110164889E+03  0.15149753626E+03  0.00000000000E+00 0. -1.
         -5    1    5    5    0  502 -0.11543950078E+03  0.23696427325E+02  0.25386459836E+03  0.27992342401E+03  0.47000000000E+01 0.  1.
         11    1    6    6    0    0 -0.82842863006E+00  0.45162857850E+01 -0.17259979779E+02  0.17860292082E+02  0.00000000000E+00 0. -1.
        -12    1    6    6    0    0 -0.49694228513E+01 -0.18324689312E+02  0.85664922448E+02  0.87743765248E+02  0.00000000000E+00 0.  1.
</event>
<event>
12    1  0.8416569E-002  0.1847568E+03  0.7818608E-02  0.1163482E+00
         21   -1    0    0  503  502  0.00000000000E+00  0.00000000000E+00  0.10334913799E+04  0.10334913799E+04  0.00000000000E+00 0. -1.
         21   -1    0    0  501  503 -0.00000000000E+00 -0.00000000000E+00 -0.83381554221E+02  0.83381554221E+02  0.00000000000E+00 0. -1.
          6    2    1    2  501    0  0.59516681065E+02  0.30715411733E+02  0.39982226128E+02  0.18818174935E+03  0.17125454896E+03 0.  0.
         24    2    3    3    0    0 -0.19382754869E+02  0.88558281104E+01 -0.35353276338E+02  0.76824260521E+02  0.64791943781E+02 0.  0.
         -6    2    1    2    0  502 -0.59516681065E+02 -0.30715411733E+02  0.91012759955E+03  0.92869118476E+03  0.17219000366E+03 0.  0.
        -24    2    5    5    0    0 -0.39256618555E+02  0.78142085807E+01  0.84857279512E+03  0.85315254749E+03  0.78685047497E+02 0.  0.
          5    1    3    3  501    0  0.78899435934E+02  0.21859583622E+02  0.75335502466E+02  0.11135748883E+03  0.47000000000E+01 0. -1.
        -11    1    4    4    0    0  0.60757162383E+01  0.28309725143E+02 -0.34134490836E+02  0.44760678392E+02  0.00000000000E+00 0.  1.
         12    1    4    4    0    0 -0.25458471107E+02 -0.19453897032E+02 -0.12187855018E+01  0.32063582129E+02  0.00000000000E+00 0. -1.
         -5    1    5    5    0  502 -0.20260062511E+02 -0.38529620313E+02  0.61554804422E+02  0.75538637279E+02  0.47000000000E+01 0.  1.
         11    1    6    6    0    0 -0.40027555500E+02  0.28115286196E+02  0.28166315076E+03  0.28587900415E+03  0.00000000000E+00 0. -1.
        -12    1    6    6    0    0  0.77093694561E+00 -0.20301077615E+02  0.56690964436E+03  0.56727354333E+03  0.00000000000E+00 0.  1.
</event>
<event>
12    1  0.8416569E-002  0.1919712E+03  0.7818608E-02  0.1157209E+00
         21   -1    0    0  501  502  0.00000000000E+00  0.00000000000E+00  0.17304338508E+03  0.17304338508E+03  0.00000000000E+00 0. -1.
         21   -1    0    0  502  503 -0.00000000000E+00 -0.00000000000E+00 -0.31635961096E+03  0.31635961096E+03  0.00000000000E+00 0. -1.
         -6    2    1    2    0  503 -0.78629398863E+02 -0.11850506664E+02 -0.21296469841E+03  0.28518781324E+03  0.17220658865E+03 0.  0.
        -24    2    3    3    0    0 -0.12079105705E+02  0.47814636058E+02 -0.65595711197E+02  0.11276803720E+03  0.77341377480E+02 0.  0.
          6    2    1    2  501    0  0.78629398863E+02  0.11850506664E+02  0.69648472524E+02  0.20421518280E+03  0.17472811534E+03 0.  0.
         24    2    5    5    0    0  0.10699618481E+03  0.51536644491E+02  0.56345879951E+02  0.15343415239E+03  0.79138938851E+02 0.  0.
          5    1    5    5  501    0 -0.28366785949E+02 -0.39686137827E+02  0.13302592574E+02  0.50781030414E+02  0.47000000000E+01 0. -1.
        -13    1    6    6    0    0 -0.15099309434E+01 -0.15219447234E+02  0.52008347775E+01  0.16154260984E+02  0.00000000000E+00 0.  1.
         14    1    6    6    0    0  0.10850611576E+03  0.66756091725E+02  0.51145045173E+02  0.13727989141E+03  0.00000000000E+00 0. -1.
         -5    1    3    3    0  503 -0.66550293158E+02 -0.59665142722E+02 -0.14736898722E+03  0.17241977604E+03  0.47000000000E+01 0.  1.
         13    1    4    4    0    0 -0.15713060660E+02 -0.91213070139E+01  0.78290260323E+01  0.19783633780E+02  0.00000000000E+00 0. -1.
        -14    1    4    4    0    0  0.36339549552E+01  0.56935943071E+02 -0.73424737229E+02  0.92984403419E+02  0.00000000000E+00 0.  1.
</event>
<event>
12    1  0.8416569E-002  0.1726040E+03  0.7818608E-02  0.1175216E+00
         21   -1    0    0  501  502  0.00000000000E+00  0.00000000000E+00  0.36177162154E+03  0.36177162154E+03  0.00000000000E+00 0. -1.
         21   -1    0    0  502  503 -0.00000000000E+00 -0.00000000000E+00 -0.28586130156E+03  0.28586130156E+03  0.00000000000E+00 0. -1.
         -6    2    1    2    0  503  0.86445909480E+01  0.44956217089E+01 -0.23534506718E+03  0.29172273814E+03  0.17210437453E+03 0.  0.
        -24    2    3    3    0    0 -0.48046698034E+02 -0.31718773122E+02 -0.11444737345E+03  0.15328962437E+03  0.84172096845E+02 0.  0.
          6    2    1    2  501    0 -0.86445909480E+01 -0.44956217089E+01  0.31125538717E+03  0.35591018497E+03  0.17232876764E+03 0.  0.
         24    2    5    5    0    0 -0.54266600958E+02  0.39619524093E+02  0.15147447375E+03  0.18392313843E+03  0.79803721598E+02 0.  0.
          5    1    5    5  501    0  0.45622010010E+02 -0.44115145802E+02  0.15978091341E+03  0.17198704654E+03  0.47000000000E+01 0. -1.
        -11    1    6    6    0    0 -0.44110953583E+02  0.26793749542E+02  0.26751766246E+02  0.58132075809E+02  0.00000000000E+00 0.  1.
         12    1    6    6    0    0 -0.10155647375E+02  0.12825774551E+02  0.12472270751E+03  0.12579106262E+03  0.00000000000E+00 0. -1.
         -5    1    3    3    0  503  0.56691288982E+02  0.36214394831E+02 -0.12089769373E+03  0.13843311377E+03  0.47000000000E+01 0.  1.
         11    1    4    4    0    0  0.25387183052E+00  0.15844110941E+02 -0.71061078031E+02  0.72806435934E+02  0.00000000000E+00 0. -1.
        -12    1    4    4    0    0 -0.48300569865E+02 -0.47562884064E+02 -0.43386295423E+02  0.80483188433E+02  0.00000000000E+00 0.  1.
</event>
<event>
12    1  0.8416569E-002  0.1852231E+03  0.7818608E-02  0.1163539E+00
         21   -1    0    0  503  502  0.00000000000E+00  0.00000000000E+00  0.29440761899E+03  0.29440761899E+03  0.00000000000E+00 0. -1.
         21   -1    0    0  501  503 -0.00000000000E+00 -0.00000000000E+00 -0.29043615384E+03  0.29043615384E+03  0.00000000000E+00 0. -1.
          6    2    1    2  501    0  0.65705644232E+02  0.15918920540E+02 -0.22550013533E+03  0.28994578201E+03  0.16925602430E+03 0.  0.
         24    2    3    3    0    0  0.29888337696E+02  0.27535886854E+02 -0.37151815706E+02  0.97812981957E+02  0.80842960324E+02 0.  0.
         -6    2    1    2    0  502 -0.65705644232E+02 -0.15918920540E+02  0.22947160048E+03  0.29489799081E+03  0.17244409484E+03 0.  0.
        -24    2    5    5    0    0 -0.10714218314E+03 -0.21568890714E+02  0.20920741193E+03  0.24819000158E+03  0.76719431863E+02 0.  0.
          5    1    3    3  501    0  0.35817306536E+02 -0.11616966314E+02 -0.18834831962E+03  0.19213280006E+03  0.47000000000E+01 0. -1.
        -13    1    4    4    0    0  0.23557952799E+02  0.28926912008E+02 -0.61876629959E+02  0.72252755750E+02  0.00000000000E+00 0.  1.
         14    1    4    4    0    0  0.63303848968E+01 -0.13910251536E+01  0.24724814253E+02  0.25560226207E+02  0.00000000000E+00 0. -1.
         -5    1    5    5    0  502  0.41436538913E+02  0.56499701740E+01  0.20264188550E+02  0.46707989227E+02  0.47000000000E+01 0.  1.
         13    1    6    6    0    0 -0.36416279005E+02  0.21470636279E+02  0.11630453748E+03  0.12374925874E+03  0.00000000000E+00 0. -1.
        -14    1    6    6    0    0 -0.70725904139E+02 -0.43039526994E+02  0.92902874441E+02  0.12444074284E+03  0.00000000000E+00 0.  1.
</event>
<event>
12    1  0.8416569E-002  0.2496784E+03  0.7818608E-02  0.1113543E+00
         21   -1    0    0  503  502  0.00000000000E+00  0.00000000000E+00  0.56586668679E+02  0.56586668679E+02  0.00000000000E+00 0. -1.
         21   -1    0    0  501  503 -0.00000000000E+00 -0.00000000000E+00 -0.17424347175E+04  0.17424347175E+04  0.00000000000E+00 0.  1.
          6    2    1    2  501    0 -0.23630781719E+02  0.17869944224E+03 -0.13885834400E+04  0.14108132599E+04  0.17244761502E+03 0.  0.
         24    2    3    3    0    0 -0.54339602733E+02  0.82437890713E+02 -0.10418378506E+04  0.10496153754E+04  0.80731227422E+02 0.  0.
         -6    2    1    2    0  502  0.23630781719E+02 -0.17869944224E+03 -0.29726460887E+03  0.38820812634E+03  0.17276399269E+03 0.  0.
        -24    2    5    5    0    0 -0.18854970775E+02 -0.12346653855E+03 -0.98862646192E+02  0.17787234334E+03  0.79153342633E+02 0.  0.
          5    1    3    3  501    0  0.30708821013E+02  0.96261551527E+02 -0.34674558943E+03  0.36119788452E+03  0.47000000000E+01 0. -1.
        -11    1    4    4    0    0  0.13457379058E+02  0.26877377093E+02 -0.48402792603E+03  0.48496033614E+03  0.00000000000E+00 0.  1.
         12    1    4    4    0    0 -0.67796981791E+02  0.55560513620E+02 -0.55780992453E+03  0.56465503922E+03  0.00000000000E+00 0. -1.
         -5    1    5    5    0  502  0.42485752494E+02 -0.55232903690E+02 -0.19840196268E+03  0.21033578300E+03  0.47000000000E+01 0.  1.
         11    1    6    6    0    0  0.20272298542E+02 -0.65545644595E+01 -0.26140537640E+01  0.21465360014E+02  0.00000000000E+00 0. -1.
        -12    1    6    6    0    0 -0.39127269317E+02 -0.11691197409E+03 -0.96248592428E+02  0.15640698333E+03  0.00000000000E+00 0.  1.
</event>
<event>
12    1  0.8416569E-002  0.1929774E+03  0.7818608E-02  0.1155818E+00
         21   -1    0    0  503  502  0.00000000000E+00  0.00000000000E+00  0.11525386000E+04  0.11525386000E+04  0.00000000000E+00 0.  1.
         21   -1    0    0  501  503 -0.00000000000E+00 -0.00000000000E+00 -0.58086502204E+02  0.58086502204E+02  0.00000000000E+00 0.  1.
          6    2    1    2  501    0  0.29915018170E+02 -0.83819302412E+02  0.14386617216E+03  0.24064887073E+03  0.17115437395E+03 0.  0.
         24    2    3    3    0    0 -0.44700044977E+02 -0.21395705175E+02  0.83302246206E+02  0.12595714362E+03  0.80436730321E+02 0.  0.
         -6    2    1    2    0  502 -0.29915018170E+02  0.83819302412E+02  0.95058592563E+03  0.96997623147E+03  0.17122997354E+03 0.  0.
        -24    2    5    5    0    0 -0.38439870421E+02  0.22738009526E+02  0.82396401757E+03  0.82905499444E+03  0.80130149331E+02 0.  0.
          5    1    3    3  501    0  0.74615063147E+02 -0.62423597237E+02  0.60563925953E+02  0.11469172711E+03  0.47000000000E+01 0. -1.
        -11    1    4    4    0    0 -0.42136766837E+02 -0.46153502510E+02  0.35023750642E+02  0.71640184411E+02  0.00000000000E+00 0.  1.
         12    1    4    4    0    0 -0.25632781403E+01  0.24757797334E+02  0.48278495564E+02  0.54316959208E+02  0.00000000000E+00 0. -1.
         -5    1    5    5    0  502  0.85248522514E+01  0.61081292886E+02  0.12662190806E+03  0.14092123703E+03  0.47000000000E+01 0.  1.
         13    1    6    6    0    0 -0.43482225517E+02 -0.11224543290E+02  0.24554303931E+03  0.24961586180E+03  0.00000000000E+00 0. -1.
        -14    1    6    6    0    0  0.50423550956E+01  0.33962552816E+02  0.57842097826E+03  0.57943913264E+03  0.00000000000E+00 0.  1.
</event>
<event>
12    1  0.8416569E-002  0.1731106E+03  0.7818608E-02  0.1174889E+00
         21   -1    0    0  503  502  0.00000000000E+00  0.00000000000E+00  0.85293647633E+02  0.85293647633E+02  0.00000000000E+00 0.  1.
         21   -1    0    0  501  503 -0.00000000000E+00 -0.00000000000E+00 -0.13030877029E+04  0.13030877029E+04  0.00000000000E+00 0.  1.
          6    2    1    2  501    0 -0.22671125328E+01 -0.98501470055E+01 -0.12032319410E+04  0.12156209925E+04  0.17281530109E+03 0.  0.
         24    2    3    3    0    0  0.17333662936E+02  0.91023537083E+01 -0.11699761120E+04  0.11723609897E+04  0.72130982539E+02 0.  0.
         -6    2    1    2    0  502  0.22671125328E+01  0.98501470055E+01 -0.14562114286E+02  0.17276035808E+03  0.17184854075E+03 0.  0.
        -24    2    5    5    0    0  0.63089852807E+02  0.57739672887E+01  0.17335468238E+02  0.10379974073E+03  0.80375366191E+02 0.  0.
          5    1    3    3  501    0 -0.19600775468E+02 -0.18952500714E+02 -0.33255828964E+02  0.43260002801E+02  0.47000000000E+01 0. -1.
        -13    1    4    4    0    0  0.39518905371E+02  0.69308109134E+01 -0.38835184213E+03  0.39041892028E+03  0.00000000000E+00 0.  1.
         14    1    4    4    0    0 -0.22185242435E+02  0.21715427949E+01 -0.78162426991E+03  0.78194206940E+03  0.00000000000E+00 0. -1.
         -5    1    5    5    0  502 -0.60822740274E+02  0.40761797168E+01 -0.31897582524E+02  0.68960617358E+02  0.47000000000E+01 0.  1.
         11    1    6    6    0    0  0.21146881546E+02  0.35854493537E+02 -0.13396723720E+02  0.43728795002E+02  0.00000000000E+00 0. -1.
        -12    1    6    6    0    0  0.41942971261E+02 -0.30080526249E+02  0.30732191958E+02  0.60070945724E+02  0.00000000000E+00 0.  1.
</event>
<event>
12    1  0.8416569E-002  0.1737926E+03  0.7818608E-02  0.1174763E+00
         21   -1    0    0  503  502  0.00000000000E+00  0.00000000000E+00  0.12411854522E+04  0.12411854522E+04  0.00000000000E+00 0. -1.
         21   -1    0    0  501  503 -0.00000000000E+00 -0.00000000000E+00 -0.33773276467E+02  0.33773276467E+02  0.00000000000E+00 0. -1.
          6    2    1    2  501    0  0.84411248426E+00 -0.84442694291E+01  0.26283704611E+03  0.31509868880E+03  0.17358528930E+03 0.  0.
         24    2    3    3    0    0 -0.31442001398E+02  0.39817646612E+02  0.89904765623E+02  0.13261781494E+03  0.83250066213E+02 0.  0.
         -6    2    1    2    0  502 -0.84411248426E+00  0.84442694291E+01  0.94457512967E+03  0.95986003992E+03  0.17040276530E+03 0.  0.
        -24    2    5    5    0    0  0.41377401015E+01 -0.58870927383E+02  0.60055002014E+03  0.60924412390E+03  0.83875913286E+02 0.  0.
          5    1    3    3  501    0  0.32286113882E+02 -0.48261916041E+02  0.17293228048E+03  0.18248087385E+03  0.47000000000E+01 0. -1.
        -13    1    4    4    0    0 -0.54862928894E+02  0.98795499382E+01  0.70691879604E+02  0.90027153214E+02  0.00000000000E+00 0.  1.
         14    1    4    4    0    0  0.23420927496E+02  0.29938096674E+02  0.19212886019E+02  0.42590661728E+02  0.00000000000E+00 0. -1.
         -5    1    5    5    0  502 -0.49818525857E+01  0.67315196812E+02  0.34402510953E+03  0.35061591602E+03  0.47000000000E+01 0.  1.
         13    1    6    6    0    0 -0.34498131137E+02 -0.32222219846E+02  0.42185941384E+03  0.42449235275E+03  0.00000000000E+00 0. -1.
        -14    1    6    6    0    0  0.38635871239E+02 -0.26648707536E+02  0.17869060631E+03  0.18475177115E+03  0.00000000000E+00 0.  1.
</event>
<event>
12    1  0.8416569E-002  0.2020747E+03  0.7818608E-02  0.1149203E+00
         21   -1    0    0  501  502  0.00000000000E+00  0.00000000000E+00  0.31484069402E+03  0.31484069402E+03  0.00000000000E+00 0. -1.
         21   -1    0    0  502  503 -0.00000000000E+00 -0.00000000000E+00 -0.13280583295E+03  0.13280583295E+03  0.00000000000E+00 0. -1.
         -6    2    1    2    0  503 -0.89057593338E+02 -0.55608675072E+02  0.39387515324E+02  0.20029568888E+03  0.16596206478E+03 0.  0.
        -24    2    3    3    0    0 -0.26394008798E+02 -0.79102044820E+02 -0.12238789926E+02  0.11564328996E+03  0.79182102386E+02 0.  0.
          6    2    1    2  501    0  0.89057593338E+02  0.55608675072E+02  0.14264734575E+03  0.24735083809E+03  0.17265744172E+03 0.  0.
         24    2    5    5    0    0  0.97978667140E+02  0.42417252236E+02  0.33656679718E+02  0.13710268856E+03  0.79153854094E+02 0.  0.
          5    1    5    5  501    0 -0.89210738014E+01  0.13191422836E+02  0.10899066603E+03  0.11024814953E+03  0.47000000000E+01 0. -1.
        -11    1    6    6    0    0  0.10359859849E+02  0.44042217048E+02  0.12825362813E+02  0.47026944509E+02  0.00000000000E+00 0.  1.
         12    1    6    6    0    0  0.87618807290E+02 -0.16249648119E+01  0.20831316904E+02  0.90075744047E+02  0.00000000000E+00 0. -1.
         -5    1    3    3    0  503 -0.62663584541E+02  0.23493369748E+02  0.51626305249E+02  0.84652398922E+02  0.47000000000E+01 0.  1.
         11    1    4    4    0    0 -0.16679379470E+02  0.67941304935E+01 -0.22245677770E+02  0.28622230663E+02  0.00000000000E+00 0. -1.
        -12    1    4    4    0    0 -0.97146293278E+01 -0.85896175313E+02  0.10006887845E+02  0.87021059295E+02  0.00000000000E+00 0.  1.
</event>
<event>
12    1  0.8416569E-002  0.2425841E+03  0.7818608E-02  0.1118126E+00
         21   -1    0    0  503  502  0.00000000000E+00  0.00000000000E+00  0.48286724398E+03  0.48286724398E+03  0.00000000000E+00 0. -1.
         21   -1    0    0  501  503 -0.00000000000E+00 -0.00000000000E+00 -0.14137341211E+03  0.14137341211E+03  0.00000000000E+00 0. -1.
          6    2    1    2  501    0  0.61880785251E+01 -0.17108599274E+03  0.28713744872E+03  0.37589220851E+03  0.17186718341E+03 0.  0.
         24    2    3    3    0    0  0.18567577083E+01 -0.54644736596E+02  0.21498285884E+03  0.23875832753E+03  0.88308632544E+02 0.  0.
         -6    2    1    2    0  502 -0.61880785251E+01  0.17108599274E+03  0.54356383149E+02  0.24834844757E+03  0.17150401102E+03 0.  0.
        -24    2    5    5    0    0 -0.63257089103E+02  0.13271634046E+03  0.63415781281E+02  0.17882676118E+03  0.79638953109E+02 0.  0.
          5    1    3    3  501    0  0.43313208168E+01 -0.11644125614E+03  0.72154589882E+02  0.13713388098E+03  0.47000000000E+01 0. -1.
        -11    1    4    4    0    0 -0.80619468898E+01  0.21993916326E+02  0.28458719474E+02  0.36859544993E+02  0.00000000000E+00 0.  1.
         12    1    4    4    0    0  0.99187045980E+01 -0.76638652922E+02  0.18652413937E+03  0.20189878253E+03  0.00000000000E+00 0. -1.
         -5    1    5    5    0  502  0.57069010578E+02  0.38369652284E+02 -0.90593981319E+01  0.69521686396E+02  0.47000000000E+01 0.  1.
         13    1    6    6    0    0  0.18459332707E+01  0.75751044042E+02  0.51228012485E+02  0.91465498448E+02  0.00000000000E+00 0. -1.
        -14    1    6    6    0    0 -0.65103022374E+02  0.56965296414E+02  0.12187768797E+02  0.87361262732E+02  0.00000000000E+00 0.  1.
</event>
<event>
12    1  0.8416569E-002  0.1898271E+03  0.7818608E-02  0.1159748E+00
         21   -1    0    0  503  502  0.00000000000E+00  0.00000000000E+00  0.26166215066E+03  0.26166215066E+03  0.00000000000E+00 0. -1.
         21   -1    0    0  501  503 -0.00000000000E+00 -0.00000000000E+00 -0.21849706312E+03  0.21849706312E+03  0.00000000000E+00 0.  1.
          6    2    1    2  501    0 -0.57645570936E+02  0.49844660970E+02 -0.12774432623E+03  0.22472950360E+03  0.16845543871E+03 0.  0.
         24    2    3    3    0    0 -0.95421206889E+01  0.58336853998E+02 -0.11243896415E+02  0.98315503529E+02  0.77751349994E+02 0.  0.
         -6    2    1    2    0  502  0.57645570936E+02 -0.49844660970E+02  0.17090941377E+03  0.25542971018E+03  0.17385858348E+03 0.  0.
        -24    2    5    5    0    0  0.99601796251E+02 -0.49188109540E+02  0.16113037175E+03  0.21208832620E+03  0.81721927734E+02 0.  0.
          5    1    3    3  501    0 -0.48103450247E+02 -0.84921930283E+01 -0.11650042981E+03  0.12641400008E+03  0.47000000000E+01 0. -1.
        -13    1    4    4    0    0  0.59384239954E+01  0.77520854208E+01 -0.37858212599E+02  0.39097365246E+02  0.00000000000E+00 0.  1.
         14    1    4    4    0    0 -0.15480544684E+02  0.50584768578E+02  0.26614316185E+02  0.59218138284E+02  0.00000000000E+00 0. -1.
         -5    1    5    5    0  502 -0.41956225315E+02 -0.65655143025E+00  0.97790420210E+01  0.43341383980E+02  0.47000000000E+01 0.  1.
         11    1    6    6    0    0  0.50701923562E+02 -0.21452517700E+02  0.17373271678E+02  0.57729768208E+02  0.00000000000E+00 0. -1.
        -12    1    6    6    0    0  0.48899872689E+02 -0.27735591840E+02  0.14375710007E+03  0.15435855799E+03  0.00000000000E+00 0.  1.
</event>
<event>
12    1  0.8416569E-002  0.1969221E+03  0.7818608E-02  0.1152464E+00
         21   -1    0    0  503  502  0.00000000000E+00  0.00000000000E+00  0.10592323379E+04  0.10592323379E+04  0.00000000000E+00 0. -1.
         21   -1    0    0  501  503 -0.00000000000E+00 -0.00000000000E+00 -0.46086179585E+02  0.46086179585E+02  0.00000000000E+00 0. -1.
          6    2    1    2  501    0  0.82617133057E+02 -0.55686794338E+02  0.75881700639E+03  0.78395252109E+03  0.16985787119E+03 0.  0.
         24    2    3    3    0    0  0.19423514557E+02 -0.78083371435E+02  0.61122508482E+03  0.62177821550E+03  0.80856410600E+02 0.  0.
         -6    2    1    2    0  502 -0.82617133057E+02  0.55686794338E+02  0.25432915197E+03  0.32136599643E+03  0.16931088679E+03 0.  0.
        -24    2    5    5    0    0 -0.84679660168E+02 -0.19702583252E+02  0.12544844830E+03  0.17196673925E+03  0.79223794353E+02 0.  0.
          5    1    3    3  501    0  0.63193618501E+02  0.22396577097E+02  0.14759192156E+03  0.16217430560E+03  0.47000000000E+01 0. -1.
        -13    1    4    4    0    0  0.11665342530E+02 -0.81054770259E+01  0.37536783810E+03  0.37563651693E+03  0.00000000000E+00 0.  1.
         14    1    4    4    0    0  0.77581720272E+01 -0.69977894409E+02  0.23585724673E+03  0.24614169857E+03  0.00000000000E+00 0. -1.
         -5    1    5    5    0  502  0.20625271104E+01  0.75389377590E+02  0.12888070366E+03  0.14939925719E+03  0.47000000000E+01 0.  1.
         11    1    6    6    0    0 -0.87725419533E+02  0.17375267418E+01  0.12163295439E+03  0.14997781111E+03  0.00000000000E+00 0. -1.
        -12    1    6    6    0    0  0.30457593659E+01 -0.21440109994E+02  0.38154939116E+01  0.21988928134E+02  0.00000000000E+00 0.  1.
</event>
<event>
12    1  0.8416569E-002  0.2231966E+03  0.7818608E-02  0.1132466E+00
         21   -1    0    0  501  502  0.00000000000E+00  0.00000000000E+00  0.26914800711E+03  0.26914800711E+03  0.00000000000E+00 0.  1.
         21   -1    0    0  502  503 -0.00000000000E+00 -0.00000000000E+00 -0.39383940362E+03  0.39383940362E+03  0.00000000000E+00 0.  1.
         -6    2    1    2    0  503 -0.95948098811E+02 -0.95311257860E+02 -0.30642541893E+03  0.37909530965E+03  0.17755687228E+03 0.  0.
        -24    2    3    3    0    0  0.45574007839E+01 -0.71083700762E+02 -0.21813660381E+03  0.24306099469E+03  0.80133680823E+02 0.  0.
          6    2    1    2  501    0  0.95948098811E+02  0.95311257860E+02  0.18173402242E+03  0.28389210107E+03  0.17110580528E+03 0.  0.
         24    2    5    5    0    0  0.42464070051E+02  0.75068295074E+02  0.30512519105E+02  0.12215048014E+03  0.80939976557E+02 0.  0.
          5    1    5    5  501    0  0.53484028760E+02  0.20242962786E+02  0.15122150332E+03  0.16174162093E+03  0.47000000000E+01 0. -1.
        -13    1    6    6    0    0  0.25046494588E+02  0.17512263135E+02  0.50289884942E+02  0.58847929265E+02  0.00000000000E+00 0.  1.
         14    1    6    6    0    0  0.17417575464E+02  0.57556031938E+02 -0.19777365837E+02  0.63302550872E+02  0.00000000000E+00 0. -1.
         -5    1    3    3    0  503 -0.10050549960E+03 -0.24227557098E+02 -0.88288815123E+02  0.13603431496E+03  0.47000000000E+01 0.  1.
         11    1    4    4    0    0  0.13129848711E+02  0.15072364983E+02 -0.52158662144E+02  0.55857811898E+02  0.00000000000E+00 0. -1.
        -12    1    4    4    0    0 -0.85724479274E+01 -0.86156065745E+02 -0.16597794167E+03  0.18720318279E+03  0.00000000000E+00 0.  1.
</event>
<event>
12    1  0.8416569E-002  0.2189242E+03  0.7818608E-02  0.1137756E+00
         21   -1    0    0  503  502  0.00000000000E+00  0.00000000000E+00  0.21700552169E+02  0.21700552169E+02  0.00000000000E+00 0. -1.
         21   -1    0    0  501  503 -0.00000000000E+00 -0.00000000000E+00 -0.22180403625E+04  0.22180403625E+04  0.00000000000E+00 0.  1.
          6    2    1    2  501    0 -0.97413342106E+02 -0.46875298888E+02 -0.83061448309E+03  0.85898092676E+03  0.19037111165E+03 0.  0.
         24    2    3    3    0    0 -0.11395585735E+02  0.93654809930E+01 -0.61275484648E+03  0.61805149519E+03  0.79382474210E+02 0.  0.
         -6    2    1    2    0  502  0.97413342106E+02  0.46875298888E+02 -0.13657253273E+04  0.13807599880E+04  0.17206342401E+03 0.  0.
        -24    2    5    5    0    0  0.40268145971E+02  0.56228977245E+02 -0.12068352618E+04  0.12115819526E+04  0.81830662061E+02 0.  0.
          5    1    3    3  501    0 -0.86017756371E+02 -0.56240779881E+02 -0.21785963662E+03  0.24092943158E+03  0.47000000000E+01 0. -1.
        -11    1    4    4    0    0  0.40204546017E+01  0.32457735070E+02 -0.11603255763E+03  0.12055381807E+03  0.00000000000E+00 0.  1.
         12    1    4    4    0    0 -0.15416040337E+02 -0.23092254077E+02 -0.49672228885E+03  0.49749767712E+03  0.00000000000E+00 0. -1.
         -5    1    5    5    0  502  0.57145196135E+02 -0.93536783569E+01 -0.15889006548E+03  0.16917803536E+03  0.47000000000E+01 0.  1.
         11    1    6    6    0    0  0.51674597110E+00  0.17825868968E+02 -0.44600516839E+02  0.48033683319E+02  0.00000000000E+00 0. -1.
        -12    1    6    6    0    0  0.39751400000E+02  0.38403108277E+02 -0.11622347450E+04  0.11635482693E+04  0.00000000000E+00 0.  1.
</event>
<event>
12    1  0.8416569E-002  0.2325817E+03  0.7818608E-02  0.1124842E+00
         21   -1    0    0  503  502  0.00000000000E+00  0.00000000000E+00  0.47262980342E+03  0.47262980342E+03  0.00000000000E+00 0.  1.
         21   -1    0    0  501  503 -0.00000000000E+00 -0.00000000000E+00 -0.12756220498E+03  0.12756220498E+03  0.00000000000E+00 0.  1.
          6    2    1    2  501    0  0.10376237338E+03  0.11684446937E+03  0.76277894768E+02  0.24477039293E+03  0.17226423853E+03 0.  0.
         24    2    3    3    0    0  0.59857566626E+02  0.14355064353E+03  0.81049704156E+02  0.19294653781E+03  0.80433801155E+02 0.  0.
         -6    2    1    2    0  502 -0.10376237338E+03 -0.11684446937E+03  0.26878970368E+03  0.35542161546E+03  0.17221312315E+03 0.  0.
        -24    2    5    5    0    0 -0.41759773250E+02 -0.10371635649E+03  0.86583629834E+02  0.16245059920E+03  0.79953179807E+02 0.  0.
          5    1    3    3  501    0  0.43904806759E+02 -0.26706174165E+02 -0.47718093887E+01  0.51823855124E+02  0.47000000000E+01 0. -1.
        -13    1    4    4    0    0  0.45742074953E+02  0.19598118616E+02  0.30320552968E+02  0.58273146531E+02  0.00000000000E+00 0.  1.
         14    1    4    4    0    0  0.14115491672E+02  0.12395252492E+03  0.50729151189E+02  0.13467339128E+03  0.00000000000E+00 0. -1.
         -5    1    5    5    0  502 -0.62002600134E+02 -0.13128112879E+02  0.18220607384E+03  0.19297101626E+03  0.47000000000E+01 0.  1.
         13    1    6    6    0    0 -0.60412605660E+02 -0.44276753715E+02  0.42327354919E+02  0.86033242509E+02  0.00000000000E+00 0. -1.
        -14    1    6    6    0    0  0.18652832410E+02 -0.59439602774E+02  0.44256274915E+02  0.76417356695E+02  0.00000000000E+00 0.  1.
</event>
<event>
12    1  0.8416569E-002  0.1975830E+03  0.7818608E-02  0.1153091E+00
         21   -1    0    0  503  502  0.00000000000E+00  0.00000000000E+00  0.17644867121E+03  0.17644867121E+03  0.00000000000E+00 0. -1.
         21   -1    0    0  501  503 -0.00000000000E+00 -0.00000000000E+00 -0.22174261816E+03  0.22174261816E+03  0.00000000000E+00 0.  1.
          6    2    1    2  501    0 -0.19670496367E+02  0.84673877292E+02  0.13327707532E+02  0.19209535534E+03  0.17078174326E+03 0.  0.
         24    2    3    3    0    0 -0.21045042402E+02  0.74444346373E+02  0.73401085850E+02  0.13096080323E+03  0.76014196445E+02 0.  0.
         -6    2    1    2    0  502  0.19670496367E+02 -0.84673877292E+02 -0.58621654483E+02  0.20609593402E+03  0.17743292175E+03 0.  0.
        -24    2    5    5    0    0  0.86003254618E+02 -0.69166687627E+02 -0.35070656063E+02  0.13386541917E+03  0.67152133635E+02 0.  0.
          5    1    3    3  501    0  0.13745460340E+01  0.10229530919E+02 -0.60073378318E+02  0.61134552114E+02  0.47000000000E+01 0. -1.
        -13    1    4    4    0    0 -0.20069427973E+02 -0.14727499149E+01 -0.61023524405E+01  0.21028305609E+02  0.00000000000E+00 0.  1.
         14    1    4    4    0    0 -0.97561442816E+00  0.75917096288E+02  0.79503438290E+02  0.10993249762E+03  0.00000000000E+00 0. -1.
         -5    1    5    5    0  502 -0.66332758251E+02 -0.15507189666E+02 -0.23550998419E+02  0.72230514847E+02  0.47000000000E+01 0.  1.
         13    1    6    6    0    0  0.58204427813E+02 -0.79149327485E+02 -0.18419113845E+02  0.99958167316E+02  0.00000000000E+00 0. -1.
        -14    1    6    6    0    0  0.27798826806E+02  0.99826398582E+01 -0.16651542218E+02  0.33907251858E+02  0.00000000000E+00 0.  1.
</event>
<event>
12    1  0.8416569E-002  0.1723718E+03  0.7818608E-02  0.1175619E+00
         21   -1    0    0  503  502  0.00000000000E+00  0.00000000000E+00  0.80401336529E+02  0.80401336529E+02  0.00000000000E+00 0.  1.
         21   -1    0    0  501  503 -0.00000000000E+00 -0.00000000000E+00 -0.39978443241E+03  0.39978443241E+03  0.00000000000E+00 0.  1.
          6    2    1    2  501    0 -0.82103213227E+01  0.18014505543E+02 -0.92035593467E+02  0.19540361100E+03  0.17123109806E+03 0.  0.
         24    2    3    3    0    0 -0.52883060403E+02  0.17986867438E+02 -0.11036153239E+03  0.14688985607E+03  0.79226362449E+02 0.  0.
         -6    2    1    2    0  502  0.82103213227E+01 -0.18014505543E+02 -0.22734750241E+03  0.28478215794E+03  0.17035861833E+03 0.  0.
        -24    2    5    5    0    0 -0.26263695938E+02 -0.66853602020E+02 -0.17371913885E+03  0.20433461857E+03  0.80094390053E+02 0.  0.
          5    1    3    3  501    0  0.44672739080E+02  0.27638104888E-01  0.18325938918E+02  0.48513754937E+02  0.47000000000E+01 0. -1.
        -13    1    4    4    0    0 -0.16673774216E+02  0.10733565763E+02 -0.10808731947E+03  0.10989127723E+03  0.00000000000E+00 0.  1.
         14    1    4    4    0    0 -0.36209286187E+02  0.72533016746E+01 -0.22742129111E+01  0.36998578834E+02  0.00000000000E+00 0. -1.
         -5    1    5    5    0  502  0.34474017260E+02  0.48839096478E+02 -0.53628363565E+02  0.80447539363E+02  0.47000000000E+01 0.  1.
         11    1    6    6    0    0 -0.18618148118E+02 -0.50564549517E+02 -0.17788309531E+03  0.18586501743E+03  0.00000000000E+00 0. -1.
        -12    1    6    6    0    0 -0.76455478200E+01 -0.16289052503E+02  0.41639564631E+01  0.18469601142E+02  0.00000000000E+00 0.  1.
</event>
<event>
12    1  0.8416569E-002  0.2162721E+03  0.7818608E-02  0.1136736E+00
         21   -1    0    0  503  502  0.00000000000E+00  0.00000000000E+00  0.37099689590E+03  0.37099689590E+03  0.00000000000E+00 0.  1.
         21   -1    0    0  501  503 -0.00000000000E+00 -0.00000000000E+00 -0.12733492554E+03  0.12733492554E+03  0.00000000000E+00 0.  1.
          6    2    1    2  501    0 -0.71917786684E+02  0.10825627431E+03  0.14792681361E+03  0.26202283491E+03  0.17286420931E+03 0.  0.
         24    2    3    3    0    0 -0.82132549733E+02  0.13998170718E+03  0.11019149793E+03  0.21145714967E+03  0.78938747530E+02 0.  0.
         -6    2    1    2    0  502  0.71917786684E+02 -0.10825627431E+03  0.95735156750E+02  0.23630898652E+03  0.17258368377E+03 0.  0.
        -24    2    5    5    0    0 -0.28038863079E+01 -0.12721015731E+02 -0.11131295206E+01  0.81028612357E+02  0.79966936565E+02 0.  0.
          5    1    3    3  501    0  0.10214763048E+02 -0.31725432863E+02  0.37735315683E+02  0.50565685244E+02  0.47000000000E+01 0. -1.
        -13    1    4    4    0    0 -0.83747846252E+02  0.69382382886E+02  0.78081824065E+02  0.13388199302E+03  0.00000000000E+00 0.  1.
         14    1    4    4    0    0  0.16152965196E+01  0.70599324290E+02  0.32109673861E+02  0.77575156645E+02  0.00000000000E+00 0. -1.
         -5    1    5    5    0  502  0.74721672992E+02 -0.95535258581E+02  0.96848286271E+02  0.15528037416E+03  0.47000000000E+01 0.  1.
         11    1    6    6    0    0 -0.23640045399E+02  0.17728528722E+02  0.22572466964E+02  0.37184253952E+02  0.00000000000E+00 0. -1.
        -12    1    6    6    0    0  0.20836159091E+02 -0.30449544454E+02 -0.23685596485E+02  0.43844358405E+02  0.00000000000E+00 0.  1.
</event>
<event>
12    1  0.8416569E-002  0.2560533E+03  0.7818608E-02  0.1109561E+00
         21   -1    0    0  503  502  0.00000000000E+00  0.00000000000E+00  0.99388400387E+03  0.99388400387E+03  0.00000000000E+00 0. -1.
         21   -1    0    0  501  503 -0.00000000000E+00 -0.00000000000E+00 -0.70628972615E+02  0.70628972615E+02  0.00000000000E+00 0. -1.
          6    2    1    2  501    0 -0.20082398435E+02  0.18866287963E+03  0.32417322314E+03  0.41300524797E+03  0.17172091129E+03 0.  0.
         24    2    3    3    0    0 -0.45684572211E+02  0.15310476835E+03  0.15097666728E+03  0.23429042614E+03  0.81054916504E+02 0.  0.
         -6    2    1    2    0  502  0.20082398435E+02 -0.18866287963E+03  0.59908180811E+03  0.65150772851E+03  0.17194860460E+03 0.  0.
        -24    2    5    5    0    0 -0.34478519730E+02 -0.11312237345E+03  0.47680106107E+03  0.49769637340E+03  0.79856048987E+02 0.  0.
          5    1    3    3  501    0  0.25602173776E+02  0.35558111280E+02  0.17319655586E+03  0.17871482183E+03  0.47000000000E+01 0. -1.
        -11    1    4    4    0    0 -0.26485178833E+02  0.17900734793E+02  0.66309573321E+02  0.73612909995E+02  0.00000000000E+00 0.  1.
         12    1    4    4    0    0 -0.19199393378E+02  0.13520403356E+03  0.84667093964E+02  0.16067751615E+03  0.00000000000E+00 0. -1.
         -5    1    5    5    0  502  0.54560918166E+02 -0.75540506175E+02  0.12228074704E+03  0.15381135511E+03  0.47000000000E+01 0.  1.
         11    1    6    6    0    0  0.34076393734E+01 -0.92101388191E+02  0.24251059856E+03  0.25943335970E+03  0.00000000000E+00 0. -1.
        -12    1    6    6    0    0 -0.37886159104E+02 -0.21020985263E+02  0.23429046251E+03  0.23826301370E+03  0.00000000000E+00 0.  1.
</event>
<event>
12    1  0.8416569E-002  0.2278925E+03  0.7818608E-02  0.1128186E+00
         21   -1    0    0  501  502  0.00000000000E+00  0.00000000000E+00  0.97686690069E+03  0.97686690069E+03  0.00000000000E+00 0.  1.
         21   -1    0    0  502  503 -0.00000000000E+00 -0.00000000000E+00 -0.78939815553E+02  0.78939815553E+02  0.00000000000E+00 0. -1.
         -6    2    1    2    0  503  0.93478394096E+02 -0.11601153436E+03  0.75082679170E+03  0.78456234280E+03  0.17204741308E+03 0.  0.
        -24    2    3    3    0    0  0.10660786183E+03 -0.33880834285E+02  0.55287594520E+03  0.56979627834E+03  0.80516090865E+02 0.  0.
          6    2    1    2  501    0 -0.93478394096E+02  0.11601153436E+03  0.14710029344E+03  0.27124437344E+03  0.17244746309E+03 0.  0.
         24    2    5    5    0    0 -0.74528920213E+02  0.20437341477E+02  0.19150690050E+01  0.96331971651E+02  0.57479878201E+02 0.  0.
          5    1    5    5  501    0 -0.18949473883E+02  0.95574192883E+02  0.14518522444E+03  0.17491240179E+03  0.47000000000E+01 0. -1.
        -13    1    6    6    0    0  0.22573476060E+01 -0.10100481986E+02  0.85578455900E+01  0.13429522542E+02  0.00000000000E+00 0.  1.
         14    1    6    6    0    0 -0.76786267819E+02  0.30537823463E+02 -0.66427765850E+01  0.82902449108E+02  0.00000000000E+00 0. -1.
         -5    1    3    3    0  503 -0.13129467738E+02 -0.82130700076E+02  0.19795084650E+03  0.21476606447E+03  0.47000000000E+01 0.  1.
         11    1    4    4    0    0  0.43047946529E+02 -0.37903467404E+02  0.12918546065E+03  0.14134596487E+03  0.00000000000E+00 0. -1.
        -12    1    4    4    0    0  0.63559915305E+02  0.40226331197E+01  0.42369048455E+03  0.42845031347E+03  0.00000000000E+00 0.  1.
</event>
<event>
12    1  0.8416569E-002  0.1869592E+03  0.7818608E-02  0.1162638E+00
         21   -1    0    0  503  502  0.00000000000E+00  0.00000000000E+00  0.25953733569E+03  0.25953733569E+03  0.00000000000E+00 0. -1.
         21   -1    0    0  501  503 -0.00000000000E+00 -0.00000000000E+00 -0.13067826515E+03  0.13067826515E+03  0.00000000000E+00 0. -1.
          6    2    1    2  501    0  0.58703184566E+02 -0.41568598765E+02  0.74592570513E+02  0.20129032310E+03  0.17256804547E+03 0.  0.
         24    2    3    3    0    0  0.47985408576E+02  0.39646060696E+02  0.60742379692E+02  0.11807608502E+03  0.79861853215E+02 0.  0.
         -6    2    1    2    0  502 -0.58703184566E+02  0.41568598765E+02  0.54266500029E+02  0.18892527774E+03  0.16605389264E+03 0.  0.
        -24    2    5    5    0    0  0.20481745366E+02  0.54705778801E+02  0.18117197462E+02  0.10076802788E+03  0.80085819410E+02 0.  0.
          5    1    3    3  501    0  0.10717775990E+02 -0.81214659460E+02  0.13850190821E+02  0.83214238080E+02  0.47000000000E+01 0. -1.
        -13    1    4    4    0    0  0.33951203755E+02  0.17532215804E+02  0.77898984575E+02  0.86765860943E+02  0.00000000000E+00 0.  1.
         14    1    4    4    0    0  0.14034204821E+02  0.22113844892E+02 -0.17156604883E+02  0.31310224080E+02  0.00000000000E+00 0. -1.
         -5    1    5    5    0  502 -0.79184929931E+02 -0.13137180037E+02  0.36149302568E+02  0.88157249865E+02  0.47000000000E+01 0.  1.
         11    1    6    6    0    0 -0.23782722065E+02  0.13382425031E+02  0.28354497315E+02  0.39353331327E+02  0.00000000000E+00 0. -1.
        -12    1    6    6    0    0  0.44264467431E+02  0.41323353771E+02 -0.10237299853E+02  0.61414696548E+02  0.00000000000E+00 0.  1.
</event>
<event>
12    1  0.8416569E-002  0.2089773E+03  0.7818608E-02  0.1142557E+00
         21   -1    0    0  501  502  0.00000000000E+00  0.00000000000E+00  0.99316594369E+03  0.99316594369E+03  0.00000000000E+00 0.  1.
         21   -1    0    0  502  503 -0.00000000000E+00 -0.00000000000E+00 -0.47266759215E+02  0.47266759215E+02  0.00000000000E+00 0. -1.
         -6    2    1    2    0  503  0.93014965973E+02 -0.70483665398E+02  0.33079791865E+03  0.39080120790E+03  0.17227475186E+03 0.  0.
        -24    2    3    3    0    0  0.90451318355E+02  0.78672526391E+01  0.25229311151E+03  0.27975827300E+03  0.79809413856E+02 0.  0.
          6    2    1    2  501    0 -0.93014965973E+02  0.70483665398E+02  0.61510126582E+03  0.64963149501E+03  0.17335449549E+03 0.  0.
         24    2    5    5    0    0 -0.12977450702E+03  0.77183728456E+02  0.54181784045E+03  0.56723789612E+03  0.73440506225E+02 0.  0.
          5    1    5    5  501    0  0.36759541048E+02 -0.67000630575E+01  0.73283425373E+02  0.82393598887E+02  0.47000000000E+01 0. -1.
        -11    1    6    6    0    0 -0.71862590582E+02  0.95661664158E+01  0.32232147684E+03  0.33037384566E+03  0.00000000000E+00 0.  1.
         12    1    6    6    0    0 -0.57911916439E+02  0.67617562040E+02  0.21949636362E+03  0.23686405046E+03  0.00000000000E+00 0. -1.
         -5    1    3    3    0  503  0.25636476180E+01 -0.78350918037E+02  0.78504807143E+02  0.11104293490E+03  0.47000000000E+01 0.  1.
         13    1    4    4    0    0 -0.58689783962E+01 -0.15428068619E+02  0.13867686010E+02  0.21558824736E+02  0.00000000000E+00 0. -1.
        -14    1    4    4    0    0  0.96320296751E+02  0.23295321258E+02  0.23842542550E+03  0.25819944826E+03  0.00000000000E+00 0.  1.
</event>
<event>
12    1  0.8416569E-002  0.2234216E+03  0.7818608E-02  0.1131388E+00
         21   -1    0    0  501  502  0.00000000000E+00  0.00000000000E+00  0.68663934250E+02  0.68663934250E+02  0.00000000000E+00 0. -1.
         21   -1    0    0  502  503 -0.00000000000E+00 -0.00000000000E+00 -0.29188064756E+04  0.29188064756E+04  0.00000000000E+00 0. -1.
         -6    2    1    2    0  503 -0.14025194606E+03  0.26501317454E+02 -0.27197816784E+04  0.27289429434E+04  0.17188450139E+03 0.  0.
        -24    2    3    3    0    0 -0.16838848181E+03  0.34512561325E+02 -0.24987764811E+04  0.25059603613E+04  0.80047687236E+02 0.  0.
          6    2    1    2  501    0  0.14025194606E+03 -0.26501317454E+02 -0.13036086296E+03  0.25852746649E+03  0.17166702694E+03 0.  0.
         24    2    5    5    0    0  0.10442381732E+03 -0.82662787792E+02 -0.84568817158E+02  0.17755360022E+03  0.81461193257E+02 0.  0.
          5    1    5    5  501    0  0.35828128736E+02  0.56161470338E+02 -0.45792045803E+02  0.80973866266E+02  0.47000000000E+01 0. -1.
        -13    1    6    6    0    0  0.26093673156E+02  0.15148004068E+02 -0.22979389567E+02  0.37926167100E+02  0.00000000000E+00 0.  1.
         14    1    6    6    0    0  0.78330144167E+02 -0.97810791860E+02 -0.61589427591E+02  0.13962743312E+03  0.00000000000E+00 0. -1.
         -5    1    3    3    0  503  0.28136535747E+02 -0.80112438709E+01 -0.22100519726E+03  0.22298258203E+03  0.47000000000E+01 0.  1.
         13    1    4    4    0    0 -0.57423735664E+02  0.34225692146E+02 -0.13999505088E+04  0.14015456862E+04  0.00000000000E+00 0. -1.
        -14    1    4    4    0    0 -0.11096474614E+03  0.28686917865E+00 -0.10988259724E+04  0.11044146752E+04  0.00000000000E+00 0.  1.
</event>
<event>
12    1  0.8416569E-002  0.2049288E+03  0.7818608E-02  0.1146054E+00
         21   -1    0    0  501  502  0.00000000000E+00  0.00000000000E+00  0.12419002372E+04  0.12419002372E+04  0.00000000000E+00 0.  1.
         21   -1    0    0  502  503 -0.00000000000E+00 -0.00000000000E+00 -0.22919275611E+03  0.22919275611E+03  0.00000000000E+00 0.  1.
         -6    2    1    2    0  503  0.29920162922E+02 -0.10716543603E+03 -0.17297253373E+03  0.26817033560E+03  0.17209353458E+03 0.  0.
        -24    2    3    3    0    0  0.85394788589E+02 -0.85773321569E+02 -0.11195072119E+03  0.18284268323E+03  0.79051566870E+02 0.  0.
          6    2    1    2  501    0 -0.29920162922E+02  0.10716543603E+03  0.11856800148E+04  0.12029226577E+04  0.16972382288E+03 0.  0.
         24    2    5    5    0    0  0.47290807224E+02  0.39210800384E+02  0.60271752121E+03  0.61093724795E+03  0.78752798284E+02 0.  0.
          5    1    5    5  501    0 -0.77210970146E+02  0.67954635641E+02  0.58296249361E+03  0.59198540976E+03  0.47000000000E+01 0. -1.
        -13    1    6    6    0    0  0.27255681213E+02  0.49393686958E+02  0.55844152080E+03  0.56128383250E+03  0.00000000000E+00 0.  1.
         14    1    6    6    0    0  0.20035126011E+02 -0.10182886574E+02  0.44276000413E+02  0.49653415450E+02  0.00000000000E+00 0. -1.
         -5    1    3    3    0  503 -0.55474625666E+02 -0.21392114457E+02 -0.61021812534E+02  0.85327652369E+02  0.47000000000E+01 0.  1.
         11    1    4    4    0    0  0.56352713301E+02 -0.70961817581E+02 -0.31328428600E+02  0.95878455815E+02  0.00000000000E+00 0. -1.
        -12    1    4    4    0    0  0.29042075287E+02 -0.14811503988E+02 -0.80622292592E+02  0.86964227417E+02  0.00000000000E+00 0.  1.
</event>
<event>
12    1  0.8416569E-002  0.1960057E+03  0.7818608E-02  0.1154689E+00
         21   -1    0    0  501  502  0.00000000000E+00  0.00000000000E+00  0.27357753495E+03  0.27357753495E+03  0.00000000000E+00 0.  1.
         21   -1    0    0  502  503 -0.00000000000E+00 -0.00000000000E+00 -0.23862941140E+03  0.23862941140E+03  0.00000000000E+00 0. -1.
         -6    2    1    2    0  503 -0.58123286594E+02 -0.60442652592E+02 -0.15070231662E+03  0.24724363097E+03  0.17716262057E+03 0.  0.
        -24    2    3    3    0    0 -0.33545843627E+02 -0.21695535487E+02 -0.17368517428E+03  0.19571022886E+03  0.80869858618E+02 0.  0.
          6    2    1    2  501    0  0.58123286594E+02  0.60442652592E+02  0.18565044017E+03  0.26496331538E+03  0.16943388640E+03 0.  0.
         24    2    5    5    0    0  0.94418718389E+02  0.25668258683E+02  0.16826908786E+03  0.21157026106E+03  0.82907994491E+02 0.  0.
          5    1    5    5  501    0 -0.36295431795E+02  0.34774393909E+02  0.17381352318E+02  0.53393054317E+02  0.47000000000E+01 0. -1.
        -11    1    6    6    0    0  0.10590693112E+03  0.27823907266E+02  0.16715574220E+03  0.19982865166E+03  0.00000000000E+00 0.  1.
         12    1    6    6    0    0 -0.11488212735E+02 -0.21556485828E+01  0.11133456582E+01  0.11741609396E+02  0.00000000000E+00 0. -1.
         -5    1    3    3    0  503 -0.24577442967E+02 -0.38747117105E+02  0.22982857661E+02  0.51533402110E+02  0.47000000000E+01 0.  1.
         11    1    4    4    0    0 -0.45097209309E+02 -0.15099749337E+02 -0.42283206159E+02  0.63636705136E+02  0.00000000000E+00 0. -1.
        -12    1    4    4    0    0  0.11551365682E+02 -0.65957861501E+01 -0.13140196812E+03  0.13207352373E+03  0.00000000000E+00 0.  1.
</event>
<event>
12    1  0.8416569E-002  0.2216425E+03  0.7818608E-02  0.1132818E+00
         21   -1    0    0  501  502  0.00000000000E+00  0.00000000000E+00  0.10443761039E+04  0.10443761039E+04  0.00000000000E+00 0.  1.
         21   -1    0    0  502  503 -0.00000000000E+00 -0.00000000000E+00 -0.80055628525E+02  0.80055628525E+02  0.00000000000E+00 0.  1.
         -6    2    1    2    0  503 -0.13834253396E+03 -0.96909977704E+01  0.11960892461E+03  0.25112595338E+03  0.17182950118E+03 0.  0.
        -24    2    3    3    0    0 -0.16378518261E+03 -0.27064361611E+02  0.11469697589E+03  0.21957631975E+03  0.86604262051E+02 0.  0.
          6    2    1    2  501    0  0.13834253396E+03  0.96909977704E+01  0.84471155075E+03  0.87330577903E+03  0.17289536598E+03 0.  0.
         24    2    5    5    0    0  0.93705121715E+02  0.36104411631E+02  0.77809445700E+03  0.78874754949E+03  0.81286742053E+02 0.  0.
          5    1    5    5  501    0  0.44637412242E+02 -0.26413413861E+02  0.66617093742E+02  0.84558229535E+02  0.47000000000E+01 0. -1.
        -13    1    6    6    0    0  0.10639678870E+03  0.21195250569E+02  0.61668129349E+03  0.62615120620E+03  0.00000000000E+00 0.  1.
         14    1    6    6    0    0 -0.12691666983E+02  0.14909161062E+02  0.16141316352E+03  0.16259634329E+03  0.00000000000E+00 0. -1.
         -5    1    3    3    0  503  0.25442648655E+02  0.17373363840E+02  0.49119487176E+01  0.31549633625E+02  0.47000000000E+01 0.  1.
         11    1    4    4    0    0 -0.32101574910E+01  0.64249546362E+01  0.37692097126E+02  0.38370292401E+02  0.00000000000E+00 0. -1.
        -12    1    4    4    0    0 -0.16057502512E+03 -0.33489316247E+02  0.77004878764E+02  0.18120602735E+03  0.00000000000E+00 0.  1.
</event>
<event>
12    1  0.8416569E-002  0.1897647E+03  0.7818608E-02  0.1159164E+00
         21   -1    0    0  503  502  0.00000000000E+00  0.00000000000E+00  0.46508644911E+02  0.46508644911E+02  0.00000000000E+00 0.  1.
         21   -1    0    0  501  503 -0.00000000000E+00 -0.00000000000E+00 -0.80778543235E+03  0.80778543235E+03  0.00000000000E+00 0.  1.
          6    2    1    2  501    0  0.76552788626E+02 -0.20274495611E+02 -0.47629647024E+03  0.51191355343E+03  0.17007578900E+03 0.  0.
         24    2    3    3    0    0  0.11818105110E+03 -0.81041243615E+01 -0.38212028147E+03  0.40812398409E+03  0.80726942280E+02 0.  0.
         -6    2    1    2    0  502 -0.76552788626E+02  0.20274495611E+02 -0.28498031720E+03  0.34238052383E+03  0.17245073873E+03 0.  0.
        -24    2    5    5    0    0  0.22302276709E+01  0.41597994152E+02 -0.22004413099E+03  0.23797624457E+03  0.80485441960E+02 0.  0.
          5    1    3    3  501    0 -0.41628262469E+02 -0.12170371250E+02 -0.94176188771E+02  0.10378956934E+03  0.47000000000E+01 0. -1.
        -11    1    4    4    0    0  0.33831029591E+02  0.26629314139E+02 -0.19822274825E+03  0.20284456329E+03  0.00000000000E+00 0.  1.
         12    1    4    4    0    0  0.84350021504E+02 -0.34733438501E+02 -0.18389753322E+03  0.20527942080E+03  0.00000000000E+00 0. -1.
         -5    1    5    5    0  502 -0.78783016297E+02 -0.21323498541E+02 -0.64936186211E+02  0.10440427925E+03  0.47000000000E+01 0.  1.
         11    1    6    6    0    0 -0.21386124367E+02  0.48059210143E+02 -0.79579481363E+02  0.95393646795E+02  0.00000000000E+00 0. -1.
        -12    1    6    6    0    0  0.23616352037E+02 -0.64612159905E+01 -0.14046464962E+03  0.14258259778E+03  0.00000000000E+00 0.  1.
</event>
<event>
12    1  0.8416569E-002  0.2120203E+03  0.7818608E-02  0.1140536E+00
         21   -1    0    0  503  502  0.00000000000E+00  0.00000000000E+00  0.56557702130E+03  0.56557702130E+03  0.00000000000E+00 0.  1.
         21   -1    0    0  501  503 -0.00000000000E+00 -0.00000000000E+00 -0.10650081357E+03  0.10650081357E+03  0.00000000000E+00 0.  1.
          6    2    1    2  501    0  0.11269365634E+03 -0.33648724826E+02  0.55842491189E+02  0.21650124687E+03  0.17298066139E+03 0.  0.
         24    2    3    3    0    0  0.11459820449E+03 -0.56768819402E+02 -0.55595281313E+01  0.15069498537E+03  0.79514922703E+02 0.  0.
         -6    2    1    2    0  502 -0.11269365634E+03  0.33648724826E+02  0.40323371654E+03  0.45557658800E+03  0.17641003519E+03 0.  0.
        -24    2    5    5    0    0 -0.12153638322E+03 -0.27614325112E+02  0.23865851137E+03  0.27968331563E+03  0.75704878282E+02 0.  0.
          5    1    3    3  501    0 -0.19045481529E+01  0.23120094576E+02  0.61402019320E+02  0.65806261507E+02  0.47000000000E+01 0. -1.
        -11    1    4    4    0    0  0.68958365844E+02 -0.41837249765E+02  0.34917446287E+02  0.87891067482E+02  0.00000000000E+00 0.  1.
         12    1    4    4    0    0  0.45639838648E+02 -0.14931569637E+02 -0.40476974418E+02  0.62803917885E+02  0.00000000000E+00 0. -1.
         -5    1    5    5    0  502  0.88427268838E+01  0.61263049938E+02  0.16457520517E+03  0.17589327237E+03  0.47000000000E+01 0.  1.
         11    1    6    6    0    0 -0.23698829132E+02 -0.22474148169E+02  0.15886535190E+02  0.36319469139E+02  0.00000000000E+00 0. -1.
        -12    1    6    6    0    0 -0.97837554091E+02 -0.51401769434E+01  0.22277197618E+03  0.24336384649E+03  0.00000000000E+00 0.  1.
</event>
<event>
12    1  0.8416569E-002  0.2138059E+03  0.7818608E-02  0.1138603E+00
         21   -1    0    0  503  502  0.00000000000E+00  0.00000000000E+00  0.98808315997E+03  0.98808315997E+03  0.00000000000E+00 0.  1.
         21   -1    0    0  501  503 -0.00000000000E+00 -0.00000000000E+00 -0.67875083837E+02  0.67875083837E+02  0.00000000000E+00 0.  1.
          6    2    1    2  501    0  0.45787743821E+02  0.11823598800E+03  0.16199927389E+03  0.26818062813E+03  0.17204888323E+03 0.  0.
         24    2    3    3    0    0  0.91349646746E+02  0.50067302209E+02  0.10754484179E+03  0.16964011922E+03  0.79752017795E+02 0.  0.
         -6    2    1    2    0  502 -0.45787743821E+02 -0.11823598800E+03  0.75820880224E+03  0.78777761568E+03  0.17215318072E+03 0.  0.
        -24    2    5    5    0    0 -0.64106753447E+02 -0.66812607278E+02  0.24354259371E+03  0.27020313177E+03  0.71576093327E+02 0.  0.
          5    1    3    3  501    0 -0.45561902924E+02  0.68168685787E+02  0.54454432105E+02  0.98540508908E+02  0.47000000000E+01 0. -1.
        -11    1    4    4    0    0 -0.47820872005E+01  0.32229448747E+02  0.18912230232E+02  0.37673308547E+02  0.00000000000E+00 0.  1.
         12    1    4    4    0    0  0.96131733946E+02  0.17837853462E+02  0.88632611558E+02  0.13196681067E+03  0.00000000000E+00 0. -1.
         -5    1    5    5    0  502  0.18319009626E+02 -0.51423380718E+02  0.51466620853E+03  0.51757448392E+03  0.47000000000E+01 0.  1.
         13    1    6    6    0    0 -0.20189123661E+02  0.33786584109E+01  0.11835071361E+03  0.12010789924E+03  0.00000000000E+00 0. -1.
        -14    1    6    6    0    0 -0.43917629787E+02 -0.70191265689E+02  0.12519188010E+03  0.15009523253E+03  0.00000000000E+00 0.  1.
</event>
<event>
12    1  0.8416569E-002  0.1976882E+03  0.7818608E-02  0.1152047E+00
         21   -1    0    0  501  502  0.00000000000E+00  0.00000000000E+00  0.21741740878E+03  0.21741740878E+03  0.00000000000E+00 0.  1.
         21   -1    0    0  502  503 -0.00000000000E+00 -0.00000000000E+00 -0.18119152258E+03  0.18119152258E+03  0.00000000000E+00 0.  1.
         -6    2    1    2    0  503 -0.42319322031E+01 -0.94746474397E+02 -0.69747649491E+01  0.19781116918E+03  0.17345260922E+03 0.  0.
        -24    2    3    3    0    0 -0.41457478817E+02 -0.71116263828E+01  0.20152488171E+02  0.98697165276E+02  0.86981089177E+02 0.  0.
          6    2    1    2  501    0  0.42319322031E+01  0.94746474397E+02  0.43200651149E+02  0.20079776218E+03  0.17163519853E+03 0.  0.
         24    2    5    5    0    0  0.60392323778E+02  0.41512121949E+02  0.56342799457E+02  0.12216766664E+03  0.79874518346E+02 0.  0.
          5    1    5    5  501    0 -0.56160391575E+02  0.53234352448E+02 -0.13142148308E+02  0.78630095540E+02  0.47000000000E+01 0. -1.
        -13    1    6    6    0    0 -0.85905473785E+01  0.52594029928E+01  0.41669300727E+02  0.42869446546E+02  0.00000000000E+00 0.  1.
         14    1    6    6    0    0  0.68982871157E+02  0.36252718956E+02  0.14673498730E+02  0.79298220091E+02  0.00000000000E+00 0. -1.
         -5    1    3    3    0  503  0.37225546613E+02 -0.87634848014E+02 -0.27127253120E+02  0.99114003899E+02  0.47000000000E+01 0.  1.
         13    1    4    4    0    0 -0.56224909685E+02  0.19011155176E+02 -0.49721151777E+01  0.59559939720E+02  0.00000000000E+00 0. -1.
        -14    1    4    4    0    0  0.14767430868E+02 -0.26122781558E+02  0.25124603349E+02  0.39137225556E+02  0.00000000000E+00 0.  1.
</event>
<event>
12    1  0.8416569E-002  0.2063450E+03  0.7818608E-02  0.1144758E+00
         21   -1    0    0  501  502  0.00000000000E+00  0.00000000000E+00  0.57826378905E+02  0.57826378905E+02  0.00000000000E+00 0. -1.
         21   -1    0    0  502  503 -0.00000000000E+00 -0.00000000000E+00 -0.78560291624E+03  0.78560291624E+03  0.00000000000E+00 0. -1.
         -6    2    1    2    0  503 -0.94597900882E+02 -0.58120842585E+02 -0.47545313612E+03  0.51829910179E+03  0.17392952331E+03 0.  0.
        -24    2    3    3    0    0  0.15004855036E+02  0.12016953542E+01 -0.19519783174E+03  0.21154667190E+03  0.80144938262E+02 0.  0.
          6    2    1    2  501    0  0.94597900882E+02  0.58120842585E+02 -0.25232340122E+03  0.32513019335E+03  0.17238256477E+03 0.  0.
         24    2    5    5    0    0  0.12450087547E+02  0.28650674343E+02 -0.33979834367E+02  0.89943549949E+02  0.77196808312E+02 0.  0.
          5    1    5    5  501    0  0.82147813335E+02  0.29470168242E+02 -0.21834356685E+03  0.23518664341E+03  0.47000000000E+01 0. -1.
        -13    1    6    6    0    0 -0.12142600700E+02 -0.21699627658E+02 -0.92047129741E+00  0.24883003430E+02  0.00000000000E+00 0.  1.
         14    1    6    6    0    0  0.24592688247E+02  0.50350302001E+02 -0.33059363069E+02  0.65060546519E+02  0.00000000000E+00 0. -1.
         -5    1    3    3    0  503 -0.10960275592E+03 -0.59322537939E+02 -0.28025530438E+03  0.30675242989E+03  0.47000000000E+01 0.  1.
         13    1    4    4    0    0 -0.15498189429E+01 -0.15896493054E+02 -0.11156884542E+01  0.16010783582E+02  0.00000000000E+00 0. -1.
        -14    1    4    4    0    0  0.16554673979E+02  0.17098188408E+02 -0.19408214328E+03  0.19553588831E+03  0.00000000000E+00 0.  1.
</event>
<event>
12    1  0.8416569E-002  0.1775320E+03  0.7818608E-02  0.1171501E+00
         21   -1    0    0  501  502  0.00000000000E+00  0.00000000000E+00  0.22075576319E+04  0.22075576319E+04  0.00000000000E+00 0.  1.
         21   -1    0    0  502  503 -0.00000000000E+00 -0.00000000000E+00 -0.15233037927E+02  0.15233037927E+02  0.00000000000E+00 0.  1.
         -6    2    1    2    0  503 -0.47319682013E+02 -0.71309074171E+01  0.77795748498E+03  0.79795706088E+03  0.17096087394E+03 0.  0.
        -24    2    3    3    0    0 -0.19631478912E+02 -0.18622559445E+02  0.17208173593E+03  0.19132190862E+03  0.79118608398E+02 0.  0.
          6    2    1    2  501    0  0.47319682013E+02  0.71309074171E+01  0.14143671090E+04  0.14248336089E+04  0.16560945640E+03 0.  0.
         24    2    5    5    0    0  0.52246253373E+01  0.12529612147E+02  0.13064096978E+04  0.13087386804E+04  0.76852762569E+02 0.  0.
          5    1    5    5  501    0  0.42095056675E+02 -0.53987047304E+01  0.10795741117E+03  0.11609492855E+03  0.47000000000E+01 0. -1.
        -11    1    6    6    0    0  0.10069063649E+02  0.38695655526E+02  0.41258328896E+03  0.41451623627E+03  0.00000000000E+00 0.  1.
         12    1    6    6    0    0 -0.48444383113E+01 -0.26166043379E+02  0.89382640883E+03  0.89422244410E+03  0.00000000000E+00 0. -1.
         -5    1    3    3    0  503 -0.27688203101E+02  0.11491652028E+02  0.60587574906E+03  0.60663515225E+03  0.47000000000E+01 0.  1.
         11    1    4    4    0    0  0.15827501064E+01 -0.17454511618E+01  0.16257877493E+03  0.16259584790E+03  0.00000000000E+00 0. -1.
        -12    1    4    4    0    0 -0.21214229019E+02 -0.16877108284E+02  0.95029609998E+01  0.28726060722E+02  0.00000000000E+00 0.  1.
</event>
<event>
12    1  0.8416569E-002  0.2371917E+03  0.7818608E-02  0.1121968E+00
         21   -1    0    0  503  502  0.00000000000E+00  0.00000000000E+00  0.15016192065E+03  0.15016192065E+03  0.00000000000E+00 0. -1.
         21   -1    0    0  501  503 -0.00000000000E+00 -0.00000000000E+00 -0.18046407331E+04  0.18046407331E+04  0.00000000000E+00 0.  1.
          6    2    1    2  501    0  0.28775924234E+02 -0.16088156010E+03 -0.16987199703E+04  0.17151995364E+04  0.17189817357E+03 0.  0.
         24    2    3    3    0    0  0.67386232639E+02 -0.95492160291E+02 -0.13879977631E+04  0.13952981304E+04  0.81605302212E+02 0.  0.
         -6    2    1    2    0  502 -0.28775924234E+02  0.16088156010E+03  0.44241157829E+02  0.23960311735E+03  0.16953301626E+03 0.  0.
        -24    2    5    5    0    0  0.17691526466E+02  0.16358182579E+03  0.56753377845E+02  0.19117625436E+03  0.79091153083E+02 0.  0.
          5    1    3    3  501    0 -0.38610308405E+02 -0.65389399804E+02 -0.31072220725E+03  0.31990140606E+03  0.47000000000E+01 0. -1.
        -13    1    4    4    0    0  0.23736217734E+02 -0.95075066294E+02 -0.10292487278E+04  0.10339030998E+04  0.00000000000E+00 0.  1.
         14    1    4    4    0    0  0.43650014905E+02 -0.41709399708E+00 -0.35874903530E+03  0.36139503054E+03  0.00000000000E+00 0. -1.
         -5    1    5    5    0  502 -0.46467450700E+02 -0.27002656948E+01 -0.12512220016E+02  0.48426862991E+02  0.47000000000E+01 0.  1.
         13    1    6    6    0    0  0.42550443845E+02  0.92806352075E+02  0.55381819429E+02  0.11614949496E+03  0.00000000000E+00 0. -1.
        -14    1    6    6    0    0 -0.24858917379E+02  0.70775473715E+02  0.13715584156E+01  0.75026759395E+02  0.00000000000E+00 0.  1.
</event>
<event>
12    1  0.8416569E-002  0.2909112E+03  0.7818608E-02  0.1089929E+00
         21   -1    0    0  503  502  0.00000000000E+00  0.00000000000E+00  0.58498497666E+02  0.58498497666E+02  0.00000000000E+00 0. -1.
         21   -1    0    0  501  503 -0.00000000000E+00 -0.00000000000E+00 -0.15553115818E+04  0.15553115818E+04  0.00000000000E+00 0.  1.
          6    2    1    2  501    0  0.11281566520E+01  0.23414927652E+03 -0.96416559337E+03  0.10070971287E+04  0.17263307521E+03 0.  0.
         24    2    3    3    0    0 -0.49095565915E+02  0.12169019738E+03 -0.37361044204E+03  0.40381697520E+03  0.79148646995E+02 0.  0.
         -6    2    1    2    0  502 -0.11281566520E+01 -0.23414927652E+03 -0.53264749073E+03  0.60671295078E+03  0.17193050583E+03 0.  0.
        -24    2    5    5    0    0  0.26175974967E+02 -0.10274666927E+03 -0.38464968198E+03  0.40686900618E+03  0.79655198438E+02 0.  0.
          5    1    3    3  501    0  0.50223722567E+02  0.11245907914E+03 -0.59055515133E+03  0.60328015345E+03  0.47000000000E+01 0. -1.
        -11    1    4    4    0    0  0.31759457012E+01  0.14115391209E+02 -0.35337304270E+01  0.14893560716E+02  0.00000000000E+00 0.  1.
         12    1    4    4    0    0 -0.52271511616E+02  0.10757480617E+03 -0.37007671162E+03  0.38892341448E+03  0.00000000000E+00 0. -1.
         -5    1    5    5    0  502 -0.27304131619E+02 -0.13140260726E+03 -0.14799780875E+03  0.19984394460E+03  0.47000000000E+01 0.  1.
         13    1    6    6    0    0 -0.25080426575E+02 -0.62120730482E+02 -0.20632052814E+03  0.21692434922E+03  0.00000000000E+00 0. -1.
        -14    1    6    6    0    0  0.51256401542E+02 -0.40625938786E+02 -0.17832915384E+03  0.18994465697E+03  0.00000000000E+00 0.  1.
</event>
<event>
12    1  0.8416569E-002  0.2007655E+03  0.7818608E-02  0.1149361E+00
         21   -1    0    0  503  502  0.00000000000E+00  0.00000000000E+00  0.19450546270E+04  0.19450546270E+04  0.00000000000E+00 0. -1.
         21   -1    0    0  501  503 -0.00000000000E+00 -0.00000000000E+00 -0.78317301644E+02  0.78317301644E+02  0.00000000000E+00 0. -1.
          6    2    1    2  501    0  0.97912795344E+02 -0.34490135875E+02  0.65587771066E+02  0.21120738553E+03  0.17184387980E+03 0.  0.
         24    2    3    3    0    0 -0.94405689743E+01 -0.46231313937E+01  0.58169674106E+02  0.99431265766E+02  0.79952285394E+02 0.  0.
         -6    2    1    2    0  502 -0.97912795344E+02  0.34490135875E+02  0.18011495543E+04  0.18121645431E+04  0.17036469538E+03 0.  0.
        -24    2    5    5    0    0  0.11787595574E+02  0.41403195312E+02  0.80730082078E+03  0.81224486571E+03  0.78447018098E+02 0.  0.
          5    1    3    3  501    0  0.10735336432E+03 -0.29867004481E+02  0.74180969603E+01  0.11177611977E+03  0.47000000000E+01 0. -1.
        -13    1    4    4    0    0 -0.39561430628E+02 -0.18008936070E+02  0.16955011947E+02  0.46657271693E+02  0.00000000000E+00 0.  1.
         14    1    4    4    0    0  0.30120861654E+02  0.13385804676E+02  0.41214662159E+02  0.52773994073E+02  0.00000000000E+00 0. -1.
         -5    1    5    5    0  502 -0.10970039092E+03 -0.69130594370E+01  0.99384873353E+03  0.99991967743E+03  0.47000000000E+01 0.  1.
         13    1    6    6    0    0 -0.23246749513E+02  0.21558413974E+02  0.61282658821E+03  0.61364615520E+03  0.00000000000E+00 0. -1.
        -14    1    6    6    0    0  0.35034345087E+02  0.19844781338E+02  0.19447423257E+03  0.19859871051E+03  0.00000000000E+00 0.  1.
</event>
<event>
12    1  0.8416569E-002  0.2165056E+03  0.7818608E-02  0.1136809E+00
         21   -1    0    0  503  502  0.00000000000E+00  0.00000000000E+00  0.49804055711E+03  0.49804055711E+03  0.00000000000E+00 0.  1.
         21   -1    0    0  501  503 -0.00000000000E+00 -0.00000000000E+00 -0.14462093342E+03  0.14462093342E+03  0.00000000000E+00 0.  1.
          6    2    1    2  501    0  0.11105366775E+03 -0.68958209737E+02 -0.14018271823E+02  0.21695899801E+03  0.17258778364E+03 0.  0.
         24    2    3    3    0    0  0.39322108484E+02 -0.26130632471E+02  0.52907933402E+02  0.10981038665E+03  0.83845294629E+02 0.  0.
         -6    2    1    2    0  502 -0.11105366775E+03  0.68958209737E+02  0.36743789552E+03  0.42570249252E+03  0.17065712192E+03 0.  0.
        -24    2    5    5    0    0 -0.90814180052E+02  0.43703433089E+02  0.37171651354E+03  0.39272011574E+03  0.76803108693E+02 0.  0.
          5    1    3    3  501    0  0.71731559269E+02 -0.42827577266E+02 -0.66926205224E+02  0.10714861136E+03  0.47000000000E+01 0. -1.
        -11    1    4    4    0    0  0.65350282500E+02 -0.22043857039E+02  0.44810737648E+02  0.82247147455E+02  0.00000000000E+00 0.  1.
         12    1    4    4    0    0 -0.26028174017E+02 -0.40867754325E+01  0.80971957541E+01  0.27563239199E+02  0.00000000000E+00 0. -1.
         -5    1    5    5    0  502 -0.20239487701E+02  0.25254776648E+02 -0.42786180196E+01  0.32982376780E+02  0.47000000000E+01 0.  1.
         13    1    6    6    0    0 -0.23677078858E+02 -0.19167410400E+02  0.54479217757E+02  0.62417776731E+02  0.00000000000E+00 0. -1.
        -14    1    6    6    0    0 -0.67137101194E+02  0.62870843489E+02  0.31723729578E+03  0.33030233901E+03  0.00000000000E+00 0.  1.
</event>
<event>
12    1  0.8416569E-002  0.2155301E+03  0.7818608E-02  0.1138377E+00
         21   -1    0    0  501  502  0.00000000000E+00  0.00000000000E+00  0.22520671514E+03  0.22520671514E+03  0.00000000000E+00 0. -1.
         21   -1    0    0  502  503 -0.00000000000E+00 -0.00000000000E+00 -0.20611700712E+03  0.20611700712E+03  0.00000000000E+00 0. -1.
         -6    2    1    2    0  503 -0.10621250415E+03 -0.74657683648E+02 -0.24952259087E+02  0.21696963960E+03  0.17204169119E+03 0.  0.
        -24    2    3    3    0    0 -0.59659759403E+02 -0.87769086585E+01 -0.72088113746E+02  0.12342118503E+03  0.79998573450E+02 0.  0.
          6    2    1    2  501    0  0.10621250415E+03  0.74657683648E+02  0.44041967113E+02  0.21435408266E+03  0.16478201394E+03 0.  0.
         24    2    5    5    0    0  0.10446872117E+03  0.31932866993E+02 -0.19985784314E+02  0.13721723225E+03  0.80596002110E+02 0.  0.
          5    1    5    5  501    0  0.17437829869E+01  0.42724816655E+02  0.64027751427E+02  0.77136850403E+02  0.47000000000E+01 0. -1.
        -13    1    6    6    0    0 -0.26085906978E+01  0.19117887907E+02 -0.22122305903E+02  0.29354638508E+02  0.00000000000E+00 0.  1.
         14    1    6    6    0    0  0.10707731187E+03  0.12814979086E+02  0.21365215887E+01  0.10786259375E+03  0.00000000000E+00 0. -1.
         -5    1    3    3    0  503 -0.46552744752E+02 -0.65880774990E+02  0.47135854660E+02  0.93548454566E+02  0.47000000000E+01 0.  1.
         11    1    4    4    0    0 -0.58717757742E+02  0.26201532308E+02 -0.54346343046E+02  0.84189193915E+02  0.00000000000E+00 0. -1.
        -12    1    4    4    0    0 -0.94200166022E+00 -0.34978440966E+02 -0.17741770701E+02  0.39231991119E+02  0.00000000000E+00 0.  1.
</event>
<event>
12    1  0.8416569E-002  0.3403383E+03  0.7818608E-02  0.1066803E+00
         21   -1    0    0  501  502  0.00000000000E+00  0.00000000000E+00  0.19137972029E+03  0.19137972029E+03  0.00000000000E+00 0.  1.
         21   -1    0    0  502  503 -0.00000000000E+00 -0.00000000000E+00 -0.60326742452E+03  0.60326742452E+03  0.00000000000E+00 0. -1.
         -6    2    1    2    0  503 -0.24334232753E+03 -0.15634392164E+03 -0.19443484777E+03  0.39196307498E+03  0.17936340741E+03 0.  0.
        -24    2    3    3    0    0 -0.21185833982E+03 -0.10069859431E+03 -0.21109373233E+03  0.32572673774E+03  0.80704279967E+02 0.  0.
          6    2    1    2  501    0  0.24334232753E+03  0.15634392164E+03 -0.21745285646E+03  0.40268406983E+03  0.17666297040E+03 0.  0.
         24    2    5    5    0    0  0.18508443919E+03  0.18581276864E+03 -0.17170711522E+03  0.32282696408E+03  0.77144544187E+02 0.  0.
          5    1    5    5  501    0  0.58257888338E+02 -0.29468847004E+02 -0.45745741236E+02  0.79857105749E+02  0.47000000000E+01 0. -1.
        -11    1    6    6    0    0  0.69371888007E+02  0.11585636864E+03 -0.61474655291E+02  0.14837213432E+03  0.00000000000E+00 0.  1.
         12    1    6    6    0    0  0.11571255119E+03  0.69956399997E+02 -0.11023245993E+03  0.17445482975E+03  0.00000000000E+00 0. -1.
         -5    1    3    3    0  503 -0.31483987708E+02 -0.55645327331E+02  0.16658884557E+02  0.66236337236E+02  0.47000000000E+01 0.  1.
         11    1    4    4    0    0 -0.15327205840E+03 -0.44514735658E+02 -0.17511782419E+03  0.23693910173E+03  0.00000000000E+00 0. -1.
        -12    1    4    4    0    0 -0.58586281419E+02 -0.56183858647E+02 -0.35975908138E+02  0.88787636016E+02  0.00000000000E+00 0.  1.
</event>
<event>
12    1  0.8416569E-002  0.4274514E+03  0.7818608E-02  0.1034804E+00
         21   -1    0    0  503  502  0.00000000000E+00  0.00000000000E+00  0.12625970690E+04  0.12625970690E+04  0.00000000000E+00 0. -1.
         21   -1    0    0  501  503 -0.00000000000E+00 -0.00000000000E+00 -0.15464086391E+03  0.15464086391E+03  0.00000000000E+00 0.  1.
          6    2    1    2  501    0 -0.27428465376E+02 -0.38837456697E+03  0.37031943270E+03  0.56555385648E+03  0.17643003531E+03 0.  0.
         24    2    3    3    0    0  0.19479789385E+02 -0.13038606515E+03  0.20253617814E+03  0.25421519529E+03  0.78895334995E+02 0.  0.
         -6    2    1    2    0  502  0.27428465376E+02  0.38837456697E+03  0.73763677238E+03  0.85168407643E+03  0.17225165629E+03 0.  0.
        -24    2    5    5    0    0 -0.35592081413E+02  0.25467020000E+03  0.55360458241E+03  0.61559429688E+03  0.79715730277E+02 0.  0.
          5    1    3    3  501    0 -0.46908254761E+02 -0.25798850182E+03  0.16778325456E+03  0.31133866119E+03  0.47000000000E+01 0. -1.
        -13    1    4    4    0    0 -0.88899474902E+01 -0.75142305520E+01 -0.39286658432E+01  0.12285326307E+02  0.00000000000E+00 0.  1.
         14    1    4    4    0    0  0.28369736875E+02 -0.12287183459E+03  0.20646484398E+03  0.24192986899E+03  0.00000000000E+00 0. -1.
         -5    1    5    5    0  502  0.63020546789E+02  0.13370436697E+03  0.18403218996E+03  0.23608977955E+03  0.47000000000E+01 0.  1.
         13    1    6    6    0    0 -0.10232017448E+02  0.12767428586E+03  0.36489870299E+03  0.38672533004E+03  0.00000000000E+00 0. -1.
        -14    1    6    6    0    0 -0.25360063964E+02  0.12699591414E+03  0.18870587942E+03  0.22886896684E+03  0.00000000000E+00 0.  1.
</event>
<event>
12    1  0.8416569E-002  0.1802017E+03  0.7818608E-02  0.1167640E+00
         21   -1    0    0  501  502  0.00000000000E+00  0.00000000000E+00  0.20905363582E+03  0.20905363582E+03  0.00000000000E+00 0. -1.
         21   -1    0    0  502  503 -0.00000000000E+00 -0.00000000000E+00 -0.30445831647E+03  0.30445831647E+03  0.00000000000E+00 0. -1.
         -6    2    1    2    0  503  0.21934595181E+02 -0.49481869646E+02 -0.22747418771E+03  0.29020193434E+03  0.17188099001E+03 0.  0.
        -24    2    3    3    0    0  0.19520991649E+02 -0.99619743174E+02 -0.14520008579E+03  0.19370970827E+03  0.78327669569E+02 0.  0.
          6    2    1    2  501    0 -0.21934595181E+02  0.49481869646E+02  0.13206950706E+03  0.22331001795E+03  0.17174232889E+03 0.  0.
         24    2    5    5    0    0  0.41783964872E+02  0.56100131920E+02  0.11257274131E+03  0.15618274953E+03  0.82627505362E+02 0.  0.
          5    1    5    5  501    0 -0.63718560053E+02 -0.66182622738E+01  0.19496765751E+02  0.67127268420E+02  0.47000000000E+01 0. -1.
        -13    1    6    6    0    0  0.10875509738E+02  0.46389700945E+01 -0.12649675078E+02  0.17315052272E+02  0.00000000000E+00 0.  1.
         14    1    6    6    0    0  0.30908455134E+02  0.51461161826E+02  0.12522241639E+03  0.13886769726E+03  0.00000000000E+00 0. -1.
         -5    1    3    3    0  503  0.24136035322E+01  0.50137873527E+02 -0.82274101923E+02  0.96492226066E+02  0.47000000000E+01 0.  1.
         13    1    4    4    0    0 -0.16453811013E+01 -0.13343636031E+02 -0.85796622393E+02  0.86843654435E+02  0.00000000000E+00 0. -1.
        -14    1    4    4    0    0  0.21166372750E+02 -0.86276107142E+02 -0.59403463398E+02  0.10686605384E+03  0.00000000000E+00 0.  1.
</event>
<event>
12    1  0.8416569E-002  0.1842921E+03  0.7818608E-02  0.1163763E+00
         21   -1    0    0  501  502  0.00000000000E+00  0.00000000000E+00  0.59501703802E+03  0.59501703802E+03  0.00000000000E+00 0.  1.
         21   -1    0    0  502  503 -0.00000000000E+00 -0.00000000000E+00 -0.81707102349E+02  0.81707102349E+02  0.00000000000E+00 0.  1.
         -6    2    1    2    0  503  0.95784380290E+01  0.51919631534E+02  0.70744850698E+02  0.19740415100E+03  0.17656774993E+03 0.  0.
        -24    2    3    3    0    0  0.61301477065E+01  0.97928435839E+02  0.78145642118E+02  0.15044073445E+03  0.83054897171E+02 0.  0.
          6    2    1    2  501    0 -0.95784380290E+01 -0.51919631534E+02  0.44256508497E+03  0.47931998937E+03  0.17634172269E+03 0.  0.
         24    2    5    5    0    0  0.21874272654E+02 -0.80987331509E+02  0.40749368226E+03  0.42376553429E+03  0.80552438198E+02 0.  0.
          5    1    5    5  501    0 -0.31452710683E+02  0.29067699975E+02  0.35071402705E+02  0.55554455076E+02  0.47000000000E+01 0. -1.
        -11    1    6    6    0    0 -0.25074371621E+02 -0.45113923505E+01  0.11632170150E+03  0.11907902844E+03  0.00000000000E+00 0.  1.
         12    1    6    6    0    0  0.46948644275E+02 -0.76475939158E+02  0.29117198076E+03  0.30468650585E+03  0.00000000000E+00 0. -1.
         -5    1    3    3    0  503  0.34482903225E+01 -0.46008804305E+02 -0.74007914201E+01  0.46963416543E+02  0.47000000000E+01 0.  1.
         11    1    4    4    0    0 -0.36884030730E+01 -0.11196140110E+02 -0.50943867067E+01  0.12841754028E+02  0.00000000000E+00 0. -1.
        -12    1    4    4    0    0  0.98185507795E+01  0.10912457595E+03  0.83240028825E+02  0.13759898043E+03  0.00000000000E+00 0.  1.
</event>
<event>
12    1  0.8416569E-002  0.2017969E+03  0.7818608E-02  0.1148466E+00
         21   -1    0    0  503  502  0.00000000000E+00  0.00000000000E+00  0.65571625441E+02  0.65571625441E+02  0.00000000000E+00 0. -1.
         21   -1    0    0  501  503 -0.00000000000E+00 -0.00000000000E+00 -0.10076978023E+04  0.10076978023E+04  0.00000000000E+00 0. -1.
          6    2    1    2  501    0  0.68127565299E+02  0.82661508399E+02 -0.80575739122E+03  0.83064249121E+03  0.17101954441E+03 0.  0.
         24    2    3    3    0    0  0.27650807282E+02  0.69407124328E+02 -0.25358716754E+03  0.27681210873E+03  0.82076646790E+02 0.  0.
         -6    2    1    2    0  502 -0.68127565299E+02 -0.82661508399E+02 -0.13636878567E+03  0.24262693656E+03  0.16969706691E+03 0.  0.
        -24    2    5    5    0    0 -0.51515902193E+02 -0.21102310541E+02 -0.32502550470E+01  0.94951226349E+02  0.76850345076E+02 0.  0.
          5    1    3    3  501    0  0.40476758017E+02  0.13254384071E+02 -0.55217022367E+03  0.55383038247E+03  0.47000000000E+01 0. -1.
        -11    1    4    4    0    0 -0.10487503328E+02  0.24030671991E+01  0.10013005793E+01  0.10805788304E+02  0.00000000000E+00 0.  1.
         12    1    4    4    0    0  0.38138310609E+02  0.67004057129E+02 -0.25458846812E+03  0.26600632043E+03  0.00000000000E+00 0. -1.
         -5    1    5    5    0  502 -0.16611663106E+02 -0.61559197858E+02 -0.13311853062E+03  0.14767571021E+03  0.47000000000E+01 0.  1.
         13    1    6    6    0    0 -0.63841082407E+02 -0.36785706058E+02 -0.89081204992E+01  0.74217427764E+02  0.00000000000E+00 0. -1.
        -14    1    6    6    0    0  0.12325180214E+02  0.15683395517E+02  0.56578654523E+01  0.20733798584E+02  0.00000000000E+00 0.  1.
</event>
<event>
12    1  0.8416569E-002  0.3670110E+03  0.7818608E-02  0.1055847E+00
         21   -1    0    0  503  502  0.00000000000E+00  0.00000000000E+00  0.27955804473E+03  0.27955804473E+03  0.00000000000E+00 0. -1.
         21   -1    0    0  501  503 -0.00000000000E+00 -0.00000000000E+00 -0.71938548486E+03  0.71938548486E+03  0.00000000000E+00 0.  1.
          6    2    1    2  501    0 -0.11610044520E+03  0.30290819627E+03  0.67145912949E+02  0.37310273111E+03  0.17165193152E+03 0.  0.
         24    2    3    3    0    0  0.82733227783E+01  0.96911638860E+02  0.27237295053E+02  0.12913920186E+03  0.80465828759E+02 0.  0.
         -6    2    1    2    0  502  0.11610044520E+03 -0.30290819627E+03 -0.50697335308E+03  0.62584079847E+03  0.17152852696E+03 0.  0.
        -24    2    5    5    0    0 -0.44412208489E+01 -0.86554287111E+02 -0.18780204310E+03  0.22182134056E+03  0.80148179488E+02 0.  0.
          5    1    3    3  501    0 -0.12437376797E+03  0.20599655741E+03  0.39908617896E+02  0.24396352926E+03  0.47000000000E+01 0. -1.
        -11    1    4    4    0    0  0.19741682507E+02  0.57033310320E+02 -0.22459423345E+02  0.64396880446E+02  0.00000000000E+00 0.  1.
         12    1    4    4    0    0 -0.11468359728E+02  0.39878328540E+02  0.49696718397E+02  0.64742321409E+02  0.00000000000E+00 0. -1.
         -5    1    5    5    0  502  0.12054166604E+03 -0.21635390916E+03 -0.31917130998E+03  0.40401945792E+03  0.47000000000E+01 0.  1.
         13    1    6    6    0    0  0.25151167021E+01  0.15407419377E+02 -0.29936860094E+02  0.33762849053E+02  0.00000000000E+00 0. -1.
        -14    1    6    6    0    0 -0.69563375510E+01 -0.10196170649E+03 -0.15786518300E+03  0.18805849150E+03  0.00000000000E+00 0.  1.
</event>
<event>
12    1  0.8416569E-002  0.2286608E+03  0.7818608E-02  0.1127649E+00
         21   -1    0    0  503  502  0.00000000000E+00  0.00000000000E+00  0.33911793976E+03  0.33911793976E+03  0.00000000000E+00 0. -1.
         21   -1    0    0  501  503 -0.00000000000E+00 -0.00000000000E+00 -0.34433777058E+03  0.34433777058E+03  0.00000000000E+00 0. -1.
          6    2    1    2  501    0 -0.40028620118E+02  0.14435469725E+03 -0.25671794412E+03  0.34378754376E+03  0.17275764345E+03 0.  0.
         24    2    3    3    0    0  0.44134947944E+02  0.84747593480E+02 -0.12751824324E+03  0.17840566533E+03  0.80234847987E+02 0.  0.
         -6    2    1    2    0  502  0.40028620118E+02 -0.14435469725E+03  0.25149811330E+03  0.33966816658E+03  0.17228637017E+03 0.  0.
        -24    2    5    5    0    0  0.51076774236E+02 -0.92344082477E+02  0.25248492593E+03  0.28628062536E+03  0.84093354070E+02 0.  0.
          5    1    3    3  501    0 -0.84163568062E+02  0.59607103768E+02 -0.12919970088E+03  0.16538187844E+03  0.47000000000E+01 0. -1.
        -11    1    4    4    0    0  0.26369155578E+02 -0.81539893459E+01 -0.45476670485E+02  0.53197250554E+02  0.00000000000E+00 0.  1.
         12    1    4    4    0    0  0.17765792366E+02  0.92901582826E+02 -0.82041572754E+02  0.12520841477E+03  0.00000000000E+00 0. -1.
         -5    1    5    5    0  502 -0.11048154118E+02 -0.52010614771E+02 -0.98681263080E+00  0.53387541219E+02  0.47000000000E+01 0.  1.
         11    1    6    6    0    0  0.64075375807E+01  0.97894524862E+01  0.80384249998E+02  0.81231259781E+02  0.00000000000E+00 0. -1.
        -12    1    6    6    0    0  0.44669236655E+02 -0.10213353496E+03  0.17210067593E+03  0.20504936558E+03  0.00000000000E+00 0.  1.
</event>
<event>
12    1  0.8416569E-002  0.2686919E+03  0.7818608E-02  0.1102138E+00
         21   -1    0    0  503  502  0.00000000000E+00  0.00000000000E+00  0.50437172562E+03  0.50437172562E+03  0.00000000000E+00 0. -1.
         21   -1    0    0  501  503 -0.00000000000E+00 -0.00000000000E+00 -0.21527483678E+03  0.21527483678E+03  0.00000000000E+00 0. -1.
          6    2    1    2  501    0 -0.15913450626E+03 -0.13087899455E+03 -0.64443227177E+02  0.27559031676E+03  0.17130087819E+03 0.  0.
         24    2    3    3    0    0 -0.18718953952E+03 -0.10740459922E+03 -0.67461201115E+02  0.23858585360E+03  0.76134908152E+02 0.  0.
         -6    2    1    2    0  502  0.15913450626E+03  0.13087899455E+03  0.35354011602E+03  0.44405624564E+03  0.17245936726E+03 0.  0.
        -24    2    5    5    0    0 -0.89102709345E+00  0.55340151048E+02  0.13747032760E+03  0.16473110952E+03  0.71936925312E+02 0.  0.
          5    1    3    3  501    0  0.28055033264E+02 -0.23474395331E+02  0.30179739381E+01  0.37004463167E+02  0.47000000000E+01 0. -1.
        -11    1    4    4    0    0 -0.75033533140E+02 -0.66759063000E+02  0.21712334781E+01  0.10045654704E+03  0.00000000000E+00 0.  1.
         12    1    4    4    0    0 -0.11215600638E+03 -0.40645536221E+02 -0.69632434593E+02  0.13812930656E+03  0.00000000000E+00 0. -1.
         -5    1    5    5    0  502  0.16002553335E+03  0.75538843504E+02  0.21606978841E+03  0.27932513612E+03  0.47000000000E+01 0.  1.
         13    1    6    6    0    0  0.30737082970E+02  0.37954683536E+02  0.49004881694E+02  0.69186737903E+02  0.00000000000E+00 0. -1.
        -14    1    6    6    0    0 -0.31628110063E+02  0.17385467513E+02  0.88465445909E+02  0.95544371612E+02  0.00000000000E+00 0.  1.
</event>
<event>
12    1  0.8416569E-002  0.2008780E+03  0.7818608E-02  0.1149107E+00
         21   -1    0    0  503  502  0.00000000000E+00  0.00000000000E+00  0.26636068726E+03  0.26636068726E+03  0.00000000000E+00 0. -1.
         21   -1    0    0  501  503 -0.00000000000E+00 -0.00000000000E+00 -0.44745872766E+03  0.44745872766E+03  0.00000000000E+00 0. -1.
          6    2    1    2  501    0 -0.13942702338E+02  0.10154054382E+03 -0.38096828743E+03  0.43044672832E+03  0.17217046469E+03 0.  0.
         24    2    3    3    0    0  0.45583852540E+02  0.13716830657E+02 -0.20570524178E+03  0.22551834937E+03  0.79232823709E+02 0.  0.
         -6    2    1    2    0  502  0.13942702338E+02 -0.10154054382E+03  0.19987024702E+03  0.28337268660E+03  0.17276308308E+03 0.  0.
        -24    2    5    5    0    0 -0.22830704524E+02  0.47868653655E+00  0.13159409826E+03  0.15513880143E+03  0.78927630158E+02 0.  0.
          5    1    3    3  501    0 -0.59526554877E+02  0.87823713164E+02 -0.17526304565E+03  0.20492837895E+03  0.47000000000E+01 0. -1.
        -13    1    4    4    0    0  0.21248286266E+02 -0.13413425154E+02 -0.10997579041E+02  0.27429115705E+02  0.00000000000E+00 0.  1.
         14    1    4    4    0    0  0.24335566274E+02  0.27130255811E+02 -0.19470766274E+03  0.19808923367E+03  0.00000000000E+00 0. -1.
         -5    1    5    5    0  502  0.36773406861E+02 -0.10201923036E+03  0.68276148757E+02  0.12823388516E+03  0.47000000000E+01 0.  1.
         11    1    6    6    0    0  0.10342486936E+02 -0.25366440021E+02  0.96665795371E+02  0.10047238083E+03  0.00000000000E+00 0. -1.
        -12    1    6    6    0    0 -0.33173191459E+02  0.25845126558E+02  0.34928302894E+02  0.54666420602E+02  0.00000000000E+00 0.  1.
</event>
<event>
12    1  0.8416569E-002  0.1869486E+03  0.7818608E-02  0.1162262E+00
         21   -1    0    0  501  502  0.00000000000E+00  0.00000000000E+00  0.74010768726E+03  0.74010768726E+03  0.00000000000E+00 0. -1.
         21   -1    0    0  502  503 -0.00000000000E+00 -0.00000000000E+00 -0.50825106934E+02  0.50825106934E+02  0.00000000000E+00 0. -1.
         -6    2    1    2    0  503  0.41459382146E+02  0.58527022858E+02  0.22808898628E+03  0.29491419478E+03  0.17264270576E+03 0.  0.
        -24    2    3    3    0    0  0.87765126471E+02  0.68165111090E+02  0.18931063091E+03  0.23357117931E+03  0.79798377399E+02 0.  0.
          6    2    1    2  501    0 -0.41459382146E+02 -0.58527022858E+02  0.46119359405E+03  0.49601859941E+03  0.16790064620E+03 0.  0.
         24    2    5    5    0    0  0.16665765525E+02 -0.23209995899E+02  0.38361373588E+03  0.39273961036E+03  0.79173553298E+02 0.  0.
          5    1    5    5  501    0 -0.58125147670E+02 -0.35317026959E+02  0.77579858167E+02  0.10327898904E+03  0.47000000000E+01 0. -1.
        -13    1    6    6    0    0  0.44206397276E+02  0.44269430501E+01  0.17831529088E+03  0.18376655393E+03  0.00000000000E+00 0.  1.
         14    1    6    6    0    0 -0.27540631751E+02 -0.27636938949E+02  0.20529844501E+03  0.20897305643E+03  0.00000000000E+00 0. -1.
         -5    1    3    3    0  503 -0.46305744325E+02 -0.96380882318E+01  0.38778355366E+02  0.61343015472E+02  0.47000000000E+01 0.  1.
         11    1    4    4    0    0  0.20661391112E+02  0.42210299860E+02  0.22911067527E+02  0.52283070990E+02  0.00000000000E+00 0. -1.
        -12    1    4    4    0    0  0.67103735359E+02  0.25954811230E+02  0.16639956338E+03  0.18128810832E+03  0.00000000000E+00 0.  1.
</event>
<event>
12    1  0.8416569E-002  0.2439437E+03  0.7818608E-02  0.1117844E+00
         21   -1    0    0  503  502  0.00000000000E+00  0.00000000000E+00  0.85453441872E+03  0.85453441872E+03  0.00000000000E+00 0. -1.
         21   -1    0    0  501  503 -0.00000000000E+00 -0.00000000000E+00 -0.68666560270E+02  0.68666560270E+02  0.00000000000E+00 0. -1.
          6    2    1    2  501    0  0.14519604230E+03  0.94020755812E+02  0.41144893714E+03  0.47632507797E+03  0.16635371593E+03 0.  0.
         24    2    3    3    0    0  0.13329739580E+03  0.59130845114E+02  0.40604736460E+03  0.43877310541E+03  0.79891946775E+02 0.  0.
         -6    2    1    2    0  502 -0.14519604230E+03 -0.94020755812E+02  0.37441892131E+03  0.44687590102E+03  0.17200799126E+03 0.  0.
        -24    2    5    5    0    0 -0.16565600571E+03 -0.88345221068E+02  0.25959281475E+03  0.33000868344E+03  0.79186560496E+02 0.  0.
          5    1    3    3  501    0  0.11898646501E+02  0.34889910699E+02  0.54015725402E+01  0.37551972558E+02  0.47000000000E+01 0. -1.
        -13    1    4    4    0    0  0.53680810828E+02  0.26383332190E+02  0.27877351492E+03  0.28511819004E+03  0.00000000000E+00 0.  1.
         14    1    4    4    0    0  0.79616584973E+02  0.32747512924E+02  0.12727384968E+03  0.15365491537E+03  0.00000000000E+00 0. -1.
         -5    1    5    5    0  502  0.20459963412E+02 -0.56755347444E+01  0.11482610656E+03  0.11686721758E+03  0.47000000000E+01 0.  1.
         13    1    6    6    0    0 -0.87734783724E+02 -0.88705988118E+02  0.17592590217E+03  0.21567583930E+03  0.00000000000E+00 0. -1.
        -14    1    6    6    0    0 -0.77921221990E+02  0.36076704995E+00  0.83666912578E+02  0.11433284414E+03  0.00000000000E+00 0.  1.
</event>
<event>
12    1  0.8416569E-002  0.1976443E+03  0.7818608E-02  0.1151867E+00
         21   -1    0    0  503  502  0.00000000000E+00  0.00000000000E+00  0.63208739103E+03  0.63208739103E+03  0.00000000000E+00 0. -1.
         21   -1    0    0  501  503 -0.00000000000E+00 -0.00000000000E+00 -0.63235837370E+02  0.63235837370E+02  0.00000000000E+00 0.  1.
          6    2    1    2  501    0  0.40827022161E+01 -0.97284503674E+02  0.33961879103E+03  0.39265028500E+03  0.17132536292E+03 0.  0.
         24    2    3    3    0    0  0.20454782572E+02 -0.20076968879E+02  0.28604974417E+03  0.29714750376E+03  0.75171138345E+02 0.  0.
         -6    2    1    2    0  502 -0.40827022161E+01  0.97284503674E+02  0.22923276263E+03  0.30267294340E+03  0.17199508158E+03 0.  0.
        -24    2    5    5    0    0  0.43632499816E+02  0.35344172382E+02  0.51954571533E+02  0.10886119921E+03  0.77449839438E+02 0.  0.
          5    1    3    3  501    0 -0.16372080356E+02 -0.77207534795E+02  0.53569046859E+02  0.95502781246E+02  0.47000000000E+01 0. -1.
        -13    1    4    4    0    0  0.10280501262E+02  0.28573664678E+02  0.94811037338E+02  0.99555390715E+02  0.00000000000E+00 0.  1.
         14    1    4    4    0    0  0.10174281310E+02 -0.48650633557E+02  0.19123870683E+03  0.19759211304E+03  0.00000000000E+00 0. -1.
         -5    1    5    5    0  502 -0.47715202032E+02  0.61940331293E+02  0.17727819110E+03  0.19381174419E+03  0.47000000000E+01 0.  1.
         13    1    6    6    0    0  0.43730447190E+01 -0.10714392283E+02  0.46700920858E+02  0.48113384116E+02  0.00000000000E+00 0. -1.
        -14    1    6    6    0    0  0.39259455097E+02  0.46058564664E+02  0.52536506751E+01  0.60747815095E+02  0.00000000000E+00 0.  1.
</event>
<event>
12    1  0.8416569E-002  0.2240716E+03  0.7818608E-02  0.1131214E+00
         21   -1    0    0  503  502  0.00000000000E+00  0.00000000000E+00  0.28593314258E+03  0.28593314258E+03  0.00000000000E+00 0. -1.
         21   -1    0    0  501  503 -0.00000000000E+00 -0.00000000000E+00 -0.28809305583E+03  0.28809305583E+03  0.00000000000E+00 0. -1.
          6    2    1    2  501    0 -0.14464361622E+03  0.19235862546E+02  0.17939994441E+03  0.28563052833E+03  0.16765638830E+03 0.  0.
         24    2    3    3    0    0 -0.92132309109E+02  0.54899227755E+02  0.54629717890E+02  0.14556264330E+03  0.81864457836E+02 0.  0.
         -6    2    1    2    0  502  0.14464361622E+03 -0.19235862546E+02 -0.18155985766E+03  0.28839567009E+03  0.17004789471E+03 0.  0.
        -24    2    5    5    0    0  0.94040408231E+02 -0.51833672883E+02 -0.18433040533E+03  0.22795505600E+03  0.80346009251E+02 0.  0.
          5    1    3    3  501    0 -0.52511307108E+02 -0.35663365208E+02  0.12477022652E+03  0.14006788503E+03  0.47000000000E+01 0. -1.
        -11    1    4    4    0    0  0.14636775605E+01  0.14173724366E+02  0.39981217667E+02  0.42444488223E+02  0.00000000000E+00 0.  1.
         12    1    4    4    0    0 -0.93595986669E+02  0.40725503388E+02  0.14648500224E+02  0.10311815507E+03  0.00000000000E+00 0. -1.
         -5    1    5    5    0  502  0.50603207986E+02  0.32597810336E+02  0.27705476732E+01  0.60440614090E+02  0.47000000000E+01 0.  1.
         11    1    6    6    0    0  0.38665726853E+02 -0.63594838240E+02 -0.80078450965E+02  0.10932474648E+03  0.00000000000E+00 0. -1.
        -12    1    6    6    0    0  0.55374681378E+02  0.11761165357E+02 -0.10425195436E+03  0.11863030952E+03  0.00000000000E+00 0.  1.
</event>
<event>
12    1  0.8416569E-002  0.2235503E+03  0.7818608E-02  0.1131295E+00
         21   -1    0    0  503  502  0.00000000000E+00  0.00000000000E+00  0.34154689995E+03  0.34154689995E+03  0.00000000000E+00 0. -1.
         21   -1    0    0  501  503 -0.00000000000E+00 -0.00000000000E+00 -0.16665100705E+03  0.16665100705E+03  0.00000000000E+00 0. -1.
          6    2    1    2  501    0  0.85810836140E+02 -0.11380910481E+03 -0.15861070339E+01  0.22338109031E+03  0.17199006901E+03 0.  0.
         24    2    3    3    0    0  0.12234990468E+01 -0.11284799283E+03  0.38911350228E+01  0.13848096361E+03  0.80160276418E+02 0.  0.
         -6    2    1    2    0  502 -0.85810836140E+02  0.11380910481E+03  0.17648199994E+03  0.28481681669E+03  0.17221704570E+03 0.  0.
        -24    2    5    5    0    0 -0.99534132125E+02  0.12630245059E+03  0.98827328702E+02  0.20483712860E+03  0.79574216128E+02 0.  0.
          5    1    3    3  501    0  0.84587337093E+02 -0.96111197698E+00 -0.54772420567E+01  0.84900126698E+02  0.47000000000E+01 0. -1.
        -11    1    4    4    0    0 -0.14899158661E+02 -0.60532870113E+02 -0.34846927259E+02  0.71417936348E+02  0.00000000000E+00 0.  1.
         12    1    4    4    0    0  0.16122657708E+02 -0.52315122719E+02  0.38738062281E+02  0.67063027265E+02  0.00000000000E+00 0. -1.
         -5    1    5    5    0  502  0.13723295985E+02 -0.12493345783E+02  0.77654671235E+02  0.79979688085E+02  0.47000000000E+01 0.  1.
         11    1    6    6    0    0 -0.10722608605E+03  0.98657387479E+02  0.98970362403E+02  0.17614155179E+03  0.00000000000E+00 0. -1.
        -12    1    6    6    0    0  0.76919539270E+01  0.27645063113E+02 -0.14303370104E+00  0.28695576809E+02  0.00000000000E+00 0.  1.
</event>
<event>
12    1  0.8416569E-002  0.2075647E+03  0.7818608E-02  0.1143871E+00
         21   -1    0    0  501  502  0.00000000000E+00  0.00000000000E+00  0.96916067267E+02  0.96916067267E+02  0.00000000000E+00 0.  1.
         21   -1    0    0  502  503 -0.00000000000E+00 -0.00000000000E+00 -0.55405985101E+03  0.55405985101E+03  0.00000000000E+00 0.  1.
         -6    2    1    2    0  503  0.11541484123E+03  0.19705979901E+02 -0.37657950836E+03  0.42999444209E+03  0.17138898125E+03 0.  0.
        -24    2    3    3    0    0  0.61811072842E+02  0.75479339095E+02 -0.26066271499E+03  0.29055691284E+03  0.83429786363E+02 0.  0.
          6    2    1    2  501    0 -0.11541484123E+03 -0.19705979901E+02 -0.80564275385E+02  0.22098147619E+03  0.16921376756E+03 0.  0.
         24    2    5    5    0    0 -0.62028174949E+02  0.54417959742E+02 -0.42770131790E+02  0.12201187553E+03  0.79049381824E+02 0.  0.
          5    1    5    5  501    0 -0.53386666277E+02 -0.74123939643E+02 -0.37794143595E+02  0.98969600658E+02  0.47000000000E+01 0. -1.
        -11    1    6    6    0    0 -0.74458935460E+02  0.29092709916E+02 -0.48107609198E+02  0.93299844066E+02  0.00000000000E+00 0.  1.
         12    1    6    6    0    0  0.12430760510E+02  0.25325249826E+02  0.53374774088E+01  0.28712031463E+02  0.00000000000E+00 0. -1.
         -5    1    3    3    0  503  0.53603768384E+02 -0.55773359194E+02 -0.11591679337E+03  0.13943752926E+03  0.47000000000E+01 0.  1.
         11    1    4    4    0    0 -0.90092721855E+01  0.30447780613E+02 -0.14014332003E+03  0.14369545740E+03  0.00000000000E+00 0. -1.
        -12    1    4    4    0    0  0.70820345028E+02  0.45031558482E+02 -0.12051939497E+03  0.14686145543E+03  0.00000000000E+00 0.  1.
</event>
<event>
12    1  0.8416569E-002  0.1866671E+03  0.7818608E-02  0.1161624E+00
         21   -1    0    0  503  502  0.00000000000E+00  0.00000000000E+00  0.45356710490E+03  0.45356710490E+03  0.00000000000E+00 0.  1.
         21   -1    0    0  501  503 -0.00000000000E+00 -0.00000000000E+00 -0.76622237178E+02  0.76622237178E+02  0.00000000000E+00 0.  1.
          6    2    1    2  501    0  0.73998756132E+02  0.30639778035E+01  0.19200307355E+03  0.26741933425E+03  0.17077094663E+03 0.  0.
         24    2    3    3    0    0 -0.26174996810E+02  0.13654682781E+02  0.74380875929E+02  0.11248704200E+03  0.79052128967E+02 0.  0.
         -6    2    1    2    0  502 -0.73998756132E+02 -0.30639778035E+01  0.18494179418E+03  0.26277000783E+03  0.17134586634E+03 0.  0.
        -24    2    5    5    0    0 -0.22416195899E+02  0.19808848722E+02  0.20446600418E+02  0.88802523843E+02  0.81073722290E+02 0.  0.
          5    1    3    3  501    0  0.10017375294E+03 -0.10590704977E+02  0.11762219762E+03  0.15493229225E+03  0.47000000000E+01 0. -1.
        -11    1    4    4    0    0 -0.79840583024E+01 -0.28607685563E+02  0.63732405328E+01  0.30377015244E+02  0.00000000000E+00 0.  1.
         12    1    4    4    0    0 -0.18190938508E+02  0.42262368344E+02  0.68007635396E+02  0.82110026756E+02  0.00000000000E+00 0. -1.
         -5    1    5    5    0  502 -0.51582560233E+02 -0.22872826525E+02  0.16449519376E+03  0.17396748398E+03  0.47000000000E+01 0.  1.
         11    1    6    6    0    0 -0.41592915942E+02 -0.65016769426E+01 -0.11028030437E+02  0.43518500835E+02  0.00000000000E+00 0. -1.
        -12    1    6    6    0    0  0.19176720043E+02  0.26310525664E+02  0.31474630855E+02  0.45284023008E+02  0.00000000000E+00 0.  1.
</event>
<event>
12    1  0.8416569E-002  0.1839022E+03  0.7818608E-02  0.1164232E+00
         21   -1    0    0  503  502  0.00000000000E+00  0.00000000000E+00  0.54854540396E+03  0.54854540396E+03  0.00000000000E+00 0.  1.
         21   -1    0    0  501  503 -0.00000000000E+00 -0.00000000000E+00 -0.61609144794E+02  0.61609144794E+02  0.00000000000E+00 0.  1.
          6    2    1    2  501    0  0.30741114541E+02  0.56281940269E+02  0.22778493165E+03  0.29275584421E+03  0.17235816286E+03 0.  0.
         24    2    3    3    0    0  0.75434554214E+02  0.49130720289E+02  0.63275323405E+02  0.12206857256E+03  0.52846666957E+02 0.  0.
         -6    2    1    2    0  502 -0.30741114541E+02 -0.56281940269E+02  0.25915132751E+03  0.31739870455E+03  0.17166786005E+03 0.  0.
        -24    2    5    5    0    0 -0.43812994079E+02 -0.41054625966E+02  0.59785990266E+02  0.11697073038E+03  0.80639483935E+02 0.  0.
          5    1    3    3  501    0 -0.44693439673E+02  0.71512199810E+01  0.16450960825E+03  0.17068727165E+03  0.47000000000E+01 0. -1.
        -11    1    4    4    0    0  0.45227880053E+02  0.38414290501E+02  0.10410042358E+02  0.60246060707E+02  0.00000000000E+00 0.  1.
         12    1    4    4    0    0  0.30206674161E+02  0.10716429787E+02  0.52865281047E+02  0.61822511850E+02  0.00000000000E+00 0. -1.
         -5    1    5    5    0  502  0.13071879538E+02 -0.15227314303E+02  0.19936533725E+03  0.20042797417E+03  0.47000000000E+01 0.  1.
         13    1    6    6    0    0 -0.53638512257E+02 -0.30098865798E+02  0.74195662912E+02  0.96374416286E+02  0.00000000000E+00 0. -1.
        -14    1    6    6    0    0  0.98255181780E+01 -0.10955760169E+02 -0.14409672646E+02  0.20596314091E+02  0.00000000000E+00 0.  1.
</event>
<event>
12    1  0.8416569E-002  0.1991490E+03  0.7818608E-02  0.1151513E+00
         21   -1    0    0  501  502  0.00000000000E+00  0.00000000000E+00  0.13108250207E+04  0.13108250207E+04  0.00000000000E+00 0. -1.
         21   -1    0    0  502  503 -0.00000000000E+00 -0.00000000000E+00 -0.63223359508E+02  0.63223359508E+02  0.00000000000E+00 0. -1.
         -6    2    1    2    0  503  0.81587891108E+02  0.56694478080E+02  0.11854352491E+03  0.22756131110E+03  0.16691535337E+03 0.  0.
        -24    2    3    3    0    0  0.91172521403E+01  0.45885400375E+01  0.11205309902E+01  0.79990067987E+02  0.79328282476E+02 0.  0.
          6    2    1    2  501    0 -0.81587891108E+02 -0.56694478080E+02  0.11290581362E+04  0.11464870691E+04  0.17259628245E+03 0.  0.
         24    2    5    5    0    0 -0.51913451507E+02 -0.10177939603E+03  0.82921301002E+03  0.84178654083E+03  0.89198163832E+02 0.  0.
          5    1    5    5  501    0 -0.29674439602E+02  0.45084917953E+02  0.29984512622E+03  0.30470052824E+03  0.47000000000E+01 0. -1.
        -13    1    6    6    0    0 -0.37768891057E+02 -0.43205663539E+02  0.16211031107E+03  0.17196793727E+03  0.00000000000E+00 0.  1.
         14    1    6    6    0    0 -0.14144560450E+02 -0.58573732494E+02  0.66710269895E+03  0.66981860356E+03  0.00000000000E+00 0. -1.
         -5    1    3    3    0  503  0.72470638968E+02  0.52105938042E+02  0.11742299392E+03  0.14757124311E+03  0.47000000000E+01 0.  1.
         13    1    4    4    0    0  0.26982686209E+02 -0.28877642164E+02  0.10537293756E+02  0.40902544318E+02  0.00000000000E+00 0. -1.
        -14    1    4    4    0    0 -0.17865434068E+02  0.33466182202E+02 -0.94167627656E+01  0.39087523669E+02  0.00000000000E+00 0.  1.
</event>
<event>
12    1  0.8416569E-002  0.1767564E+03  0.7818608E-02  0.1171636E+00
         21   -1    0    0  501  502  0.00000000000E+00  0.00000000000E+00  0.34844684922E+02  0.34844684922E+02  0.00000000000E+00 0.  1.
         21   -1    0    0  502  503 -0.00000000000E+00 -0.00000000000E+00 -0.93479765490E+03  0.93479765490E+03  0.00000000000E+00 0.  1.
         -6    2    1    2    0  503  0.27183860107E+02  0.67032340959E+01 -0.56052723090E+03  0.58695100469E+03  0.17186276424E+03 0.  0.
        -24    2    3    3    0    0  0.42770359186E+02  0.61041839635E+02 -0.27664633795E+03  0.29745821655E+03  0.79954890280E+02 0.  0.
          6    2    1    2  501    0 -0.27183860107E+02 -0.67032340959E+01 -0.33942573908E+03  0.38269133513E+03  0.17452486939E+03 0.  0.
         24    2    5    5    0    0 -0.75755961422E+02 -0.20973983627E+02 -0.12987100122E+03  0.16705696524E+03  0.69732911867E+02 0.  0.
          5    1    5    5  501    0  0.48572101315E+02  0.14270749531E+02 -0.20955473787E+03  0.21563436990E+03  0.47000000000E+01 0. -1.
        -13    1    6    6    0    0 -0.18785779256E+02 -0.23750591637E+02 -0.62616764570E+01  0.30922559684E+02  0.00000000000E+00 0.  1.
         14    1    6    6    0    0 -0.56970182166E+02  0.27766080101E+01 -0.12360932476E+03  0.13613440555E+03  0.00000000000E+00 0. -1.
         -5    1    3    3    0  503 -0.15586499079E+02 -0.54338605540E+02 -0.28388089295E+03  0.28949278814E+03  0.47000000000E+01 0.  1.
         13    1    4    4    0    0 -0.13928892208E+02 -0.32527104701E+01 -0.10217837908E+02  0.17578349611E+02  0.00000000000E+00 0. -1.
        -14    1    4    4    0    0  0.56699251394E+02  0.64294550106E+02 -0.26642850005E+03  0.27987986694E+03  0.00000000000E+00 0.  1.
</event>
<event>
12    1  0.8416569E-002  0.2027550E+03  0.7818608E-02  0.1147754E+00
         21   -1    0    0  501  502  0.00000000000E+00  0.00000000000E+00  0.94510523371E+02  0.94510523371E+02  0.00000000000E+00 0.  1.
         21   -1    0    0  502  503 -0.00000000000E+00 -0.00000000000E+00 -0.43432522338E+03  0.43432522338E+03  0.00000000000E+00 0. -1.
         -6    2    1    2    0  503 -0.86753356015E+02  0.56500806008E+02 -0.19113635527E+03  0.27864435964E+03  0.17433039607E+03 0.  0.
        -24    2    3    3    0    0 -0.66691436348E+02 -0.19617454452E+02 -0.16347363675E+03  0.19507530920E+03  0.80611129168E+02 0.  0.
          6    2    1    2  501    0  0.86753356015E+02 -0.56500806008E+02 -0.14867834474E+03  0.25019138711E+03  0.17254562912E+03 0.  0.
         24    2    5    5    0    0  0.40936942217E+01  0.10958647238E+02 -0.10920547438E+03  0.13633360294E+03  0.80772305750E+02 0.  0.
          5    1    5    5  501    0  0.82659661793E+02 -0.67459453246E+02 -0.39472870362E+02  0.11385778416E+03  0.47000000000E+01 0. -1.
        -13    1    6    6    0    0 -0.19715476526E+02 -0.24117978827E+02 -0.18551073743E+02  0.36256299513E+02  0.00000000000E+00 0.  1.
         14    1    6    6    0    0  0.23809170748E+02  0.35076626065E+02 -0.90654400633E+02  0.10007730343E+03  0.00000000000E+00 0. -1.
         -5    1    3    3    0  503 -0.20061919667E+02  0.76118260460E+02 -0.27662718522E+02  0.83569050445E+02  0.47000000000E+01 0.  1.
         11    1    4    4    0    0  0.10223431105E+02  0.17154293547E+02 -0.43830403438E+02  0.48165263377E+02  0.00000000000E+00 0. -1.
        -12    1    4    4    0    0 -0.76914867453E+02 -0.36771747999E+02 -0.11964323331E+03  0.14691004582E+03  0.00000000000E+00 0.  1.
</event>
<event>
12    1  0.8416569E-002  0.1991288E+03  0.7818608E-02  0.1150658E+00
         21   -1    0    0  501  502  0.00000000000E+00  0.00000000000E+00  0.71146081099E+03  0.71146081099E+03  0.00000000000E+00 0.  1.
         21   -1    0    0  502  503 -0.00000000000E+00 -0.00000000000E+00 -0.91489416473E+02  0.91489416473E+02  0.00000000000E+00 0.  1.
         -6    2    1    2    0  503 -0.10024871680E+03 -0.99004471980E+00  0.56140187388E+03  0.59538656121E+03  0.17106229236E+03 0.  0.
        -24    2    3    3    0    0 -0.18858693540E+02 -0.43652107746E+02  0.39233258449E+03  0.40290045230E+03  0.78375766541E+02 0.  0.
          6    2    1    2  501    0  0.10024871680E+03  0.99004471980E+00  0.58569520635E+02  0.20756366625E+03  0.17205086862E+03 0.  0.
         24    2    5    5    0    0  0.13583340336E+03 -0.11445916018E+02  0.59456318282E+02  0.16956630519E+03  0.81461374957E+02 0.  0.
          5    1    5    5  501    0 -0.35584686566E+02  0.12435960738E+02 -0.88679764693E+00  0.37997361060E+02  0.47000000000E+01 0. -1.
        -11    1    6    6    0    0  0.54466156262E+02  0.30312676905E+02  0.36771757191E+01  0.62441510075E+02  0.00000000000E+00 0.  1.
         12    1    6    6    0    0  0.81367247100E+02 -0.41758592923E+02  0.55779142563E+02  0.10712479512E+03  0.00000000000E+00 0. -1.
         -5    1    3    3    0  503 -0.81390023256E+02  0.42662063027E+02  0.16906928939E+03  0.19248610891E+03  0.47000000000E+01 0.  1.
         11    1    4    4    0    0 -0.16820676531E+02 -0.57055215451E+02  0.16910625191E+03  0.17926281602E+03  0.00000000000E+00 0. -1.
        -12    1    4    4    0    0 -0.20380170097E+01  0.13403107705E+02  0.22322633257E+03  0.22363763629E+03  0.00000000000E+00 0.  1.
</event>
<event>
12    1  0.8416569E-002  0.2048334E+03  0.7818608E-02  0.1145876E+00
         21   -1    0    0  501  502  0.00000000000E+00  0.00000000000E+00  0.44861662569E+03  0.44861662569E+03  0.00000000000E+00 0.  1.
         21   -1    0    0  502  503 -0.00000000000E+00 -0.00000000000E+00 -0.11948565484E+03  0.11948565484E+03  0.00000000000E+00 0. -1.
         -6    2    1    2    0  503 -0.10841027551E+03  0.44350127459E+01  0.29806208032E+03  0.36165965753E+03  0.17373614185E+03 0.  0.
        -24    2    3    3    0    0 -0.41831524181E+02  0.57758737305E+02  0.10190003429E+03  0.14770221308E+03  0.79664161406E+02 0.  0.
          6    2    1    2  501    0  0.10841027551E+03 -0.44350127459E+01  0.31068890529E+02  0.20644262300E+03  0.17286070537E+03 0.  0.
         24    2    5    5    0    0  0.11683263712E+03 -0.24975008607E+02  0.71513478270E+02  0.16006717387E+03  0.78953824635E+02 0.  0.
          5    1    5    5  501    0 -0.84223616106E+01  0.20539995861E+02 -0.40444587741E+02  0.46375449137E+02  0.47000000000E+01 0. -1.
        -13    1    6    6    0    0 -0.48922046603E+01 -0.31392769456E+01  0.28570179544E+02  0.29155512092E+02  0.00000000000E+00 0.  1.
         14    1    6    6    0    0  0.12172484178E+03 -0.21835731662E+02  0.42943298726E+02  0.13091166177E+03  0.00000000000E+00 0. -1.
         -5    1    3    3    0  503 -0.66578751325E+02 -0.53323724559E+02  0.19616204603E+03  0.21395744444E+03  0.47000000000E+01 0.  1.
         13    1    4    4    0    0  0.14343386114E+02  0.43541685466E+02  0.62983430137E+02  0.77900728946E+02  0.00000000000E+00 0. -1.
        -14    1    4    4    0    0 -0.56174910295E+02  0.14217051839E+02  0.38916604148E+02  0.69801484139E+02  0.00000000000E+00 0.  1.
</event>
<event>
12    1  0.8416569E-002  0.2308419E+03  0.7818608E-02  0.1126835E+00
         21   -1    0    0  503  502  0.00000000000E+00  0.00000000000E+00  0.19858493663E+04  0.19858493663E+04  0.00000000000E+00 0. -1.
         21   -1    0    0  501  503 -0.00000000000E+00 -0.00000000000E+00 -0.31618714172E+02  0.31618714172E+02  0.00000000000E+00 0.  1.
          6    2    1    2  501    0 -0.76053040351E+02 -0.13278522207E+03  0.57207845190E+03  0.61689684756E+03  0.17283513894E+03 0.  0.
         24    2    3    3    0    0 -0.72848918232E+02 -0.16609581947E+03  0.47878724945E+03  0.51767386256E+03  0.76512819895E+02 0.  0.
         -6    2    1    2    0  502  0.76053040351E+02  0.13278522207E+03  0.13821522002E+04  0.14005712329E+04  0.16685051308E+03 0.  0.
        -24    2    5    5    0    0  0.67702547610E+02  0.19362456043E+02  0.50358585001E+03  0.51466188296E+03  0.79495948271E+02 0.  0.
          5    1    3    3  501    0 -0.32041221199E+01  0.33310597400E+02  0.93291202450E+02  0.99222985000E+02  0.47000000000E+01 0. -1.
        -11    1    4    4    0    0 -0.41626124754E+02 -0.27832902872E+02  0.79312239854E+02  0.93796781048E+02  0.00000000000E+00 0.  1.
         12    1    4    4    0    0 -0.31222793477E+02 -0.13826291660E+03  0.39947500959E+03  0.42387708151E+03  0.00000000000E+00 0. -1.
         -5    1    5    5    0  502  0.83504927417E+01  0.11342276603E+03  0.87856635023E+03  0.88590934995E+03  0.47000000000E+01 0.  1.
         13    1    6    6    0    0  0.25224079373E+02  0.10421645097E+02  0.41614334777E+03  0.41703734936E+03  0.00000000000E+00 0. -1.
        -14    1    6    6    0    0  0.42478468237E+02  0.89408109457E+01  0.87442502236E+02  0.97624533604E+02  0.00000000000E+00 0.  1.
</event>
<event>
12    1  0.8416569E-002  0.1839495E+03  0.7818608E-02  0.1164040E+00
         21   -1    0    0  503  502  0.00000000000E+00  0.00000000000E+00  0.17342277414E+03  0.17342277414E+03  0.00000000000E+00 0. -1.
         21   -1    0    0  501  503 -0.00000000000E+00 -0.00000000000E+00 -0.19849942972E+03  0.19849942972E+03  0.00000000000E+00 0. -1.
          6    2    1    2  501    0  0.97407407559E+01 -0.67377799876E+02 -0.36913911067E+02  0.18759221161E+03  0.17086120414E+03 0.  0.
         24    2    3    3    0    0  0.30647183996E+02 -0.89628365614E+02  0.17105674940E+02  0.12536382004E+03  0.80318051833E+02 0.  0.
         -6    2    1    2    0  502 -0.97407407559E+01  0.67377799876E+02  0.11837255496E+02  0.18432999225E+03  0.17088819585E+03 0.  0.
        -24    2    5    5    0    0  0.33653114923E+02  0.30768199910E+01  0.48757870385E+02  0.98290091460E+02  0.78368445113E+02 0.  0.
          5    1    3    3  501    0 -0.20906443240E+02  0.22250565738E+02 -0.54019586007E+02  0.62228391567E+02  0.47000000000E+01 0. -1.
        -11    1    4    4    0    0 -0.22573622210E+02 -0.52432421790E+02  0.19679373818E+02  0.60382158195E+02  0.00000000000E+00 0.  1.
         12    1    4    4    0    0  0.53220806206E+02 -0.37195943825E+02 -0.25736988774E+01  0.64981661845E+02  0.00000000000E+00 0. -1.
         -5    1    5    5    0  502 -0.43393855679E+02  0.64300979885E+02 -0.36920614889E+02  0.86039900794E+02  0.47000000000E+01 0.  1.
         11    1    6    6    0    0 -0.16091222395E+01  0.28404118568E+02  0.46876181498E+02  0.54833927616E+02  0.00000000000E+00 0. -1.
        -12    1    6    6    0    0  0.35262237162E+02 -0.25327298577E+02  0.18816888870E+01  0.43456163843E+02  0.00000000000E+00 0.  1.
</event>
<event>
12    1  0.8416569E-002  0.2146240E+03  0.7818608E-02  0.1138078E+00
         21   -1    0    0  503  502  0.00000000000E+00  0.00000000000E+00  0.33540906459E+03  0.33540906459E+03  0.00000000000E+00 0. -1.
         21   -1    0    0  501  503 -0.00000000000E+00 -0.00000000000E+00 -0.14125283012E+03  0.14125283012E+03  0.00000000000E+00 0. -1.
          6    2    1    2  501    0  0.31672100831E+01  0.12685266705E+03  0.13863471992E+03  0.25497270944E+03  0.17230747702E+03 0.  0.
         24    2    3    3    0    0  0.34942303780E+02  0.14891155027E+03  0.12839945834E+03  0.21468497572E+03  0.78788346237E+02 0.  0.
         -6    2    1    2    0  502 -0.31672100831E+01 -0.12685266705E+03  0.55521514539E+02  0.22168918527E+03  0.17309484664E+03 0.  0.
        -24    2    5    5    0    0  0.35259744556E+01  0.23697346978E+01 -0.37839302226E+01  0.79272705849E+02  0.79068297226E+02 0.  0.
          5    1    3    3  501    0 -0.31775093697E+02 -0.22058883224E+02  0.10235261585E+02  0.40287733719E+02  0.47000000000E+01 0. -1.
        -11    1    4    4    0    0 -0.12714287573E+02 -0.28048651697E+01  0.10355133281E+02  0.16635779584E+02  0.00000000000E+00 0.  1.
         12    1    4    4    0    0  0.47656591353E+02  0.15171641544E+03  0.11804432506E+03  0.19804919614E+03  0.00000000000E+00 0. -1.
         -5    1    5    5    0  502 -0.66931845387E+01 -0.12922240174E+03  0.59305444761E+02  0.14241647942E+03  0.47000000000E+01 0.  1.
         13    1    6    6    0    0  0.32775015851E+01 -0.31906914965E+02  0.19774027123E+02  0.37680305039E+02  0.00000000000E+00 0. -1.
        -14    1    6    6    0    0  0.24847287048E+00  0.34276649662E+02 -0.23557957345E+02  0.41592400810E+02  0.00000000000E+00 0.  1.
</event>
<event>
12    1  0.8416569E-002  0.2372939E+03  0.7818608E-02  0.1121639E+00
         21   -1    0    0  503  502  0.00000000000E+00  0.00000000000E+00  0.17589702070E+03  0.17589702070E+03  0.00000000000E+00 0. -1.
         21   -1    0    0  501  503 -0.00000000000E+00 -0.00000000000E+00 -0.66917863015E+03  0.66917863015E+03  0.00000000000E+00 0. -1.
          6    2    1    2  501    0  0.12093085140E+03 -0.10957437056E+03 -0.55196338341E+03  0.60080941873E+03  0.17227178384E+03 0.  0.
         24    2    3    3    0    0  0.51222717076E+02 -0.54906408924E+02 -0.13156336339E+03  0.17115132577E+03  0.79657876189E+02 0.  0.
         -6    2    1    2    0  502 -0.12093085140E+03  0.10957437056E+03  0.58681773956E+02  0.24426623212E+03  0.17202217315E+03 0.  0.
        -24    2    5    5    0    0 -0.55493295401E+02 -0.12033861595E+02  0.13844637766E+02  0.98997189837E+02  0.79902753028E+02 0.  0.
          5    1    3    3  501    0  0.69708134323E+02 -0.54667961639E+02 -0.42040002002E+03  0.42965809297E+03  0.47000000000E+01 0. -1.
        -11    1    4    4    0    0 -0.18154068439E+02 -0.22236755163E+01 -0.79885344196E+01  0.19958246813E+02  0.00000000000E+00 0.  1.
         12    1    4    4    0    0  0.69376785515E+02 -0.52682733408E+02 -0.12357482897E+03  0.15119307895E+03  0.00000000000E+00 0. -1.
         -5    1    5    5    0  502 -0.65437555998E+02  0.12160823216E+03  0.44837136190E+02  0.14526904228E+03  0.47000000000E+01 0.  1.
         11    1    6    6    0    0 -0.31435630485E+02  0.24372256110E+02  0.32669160871E+02  0.51473097866E+02  0.00000000000E+00 0. -1.
        -12    1    6    6    0    0 -0.24057664916E+02 -0.36406117705E+02 -0.18824523105E+02  0.47524091971E+02  0.00000000000E+00 0.  1.
</event>
<event>
12    1  0.8416569E-002  0.1807365E+03  0.7818608E-02  0.1168082E+00
         21   -1    0    0  501  502  0.00000000000E+00  0.00000000000E+00  0.59342454343E+03  0.59342454343E+03  0.00000000000E+00 0.  1.
         21   -1    0    0  502  503 -0.00000000000E+00 -0.00000000000E+00 -0.53818055474E+02  0.53818055474E+02  0.00000000000E+00 0.  1.
         -6    2    1    2    0  503 -0.15535395675E+02 -0.38928198017E+02  0.27517309062E+03  0.32922014499E+03  0.17580933122E+03 0.  0.
        -24    2    3    3    0    0 -0.11219128080E+01 -0.36675046708E+02  0.46160957687E+02  0.99695697033E+02  0.80387065209E+02 0.  0.
          6    2    1    2  501    0  0.15535395675E+02  0.38928198017E+02  0.26443339733E+03  0.31802245391E+03  0.17162897904E+03 0.  0.
         24    2    5    5    0    0  0.47697930376E+02  0.60118768804E+02  0.25508063790E+03  0.27810963595E+03  0.79934215777E+02 0.  0.
          5    1    5    5  501    0 -0.32162534701E+02 -0.21190570787E+02  0.93527594316E+01  0.39912817962E+02  0.47000000000E+01 0. -1.
        -11    1    6    6    0    0  0.27449354392E+02  0.52911411328E+02  0.70674686868E+02  0.92455372311E+02  0.00000000000E+00 0.  1.
         12    1    6    6    0    0  0.20248575984E+02  0.72073574758E+01  0.18440595103E+03  0.18565426364E+03  0.00000000000E+00 0. -1.
         -5    1    3    3    0  503 -0.14413482867E+02 -0.22531513094E+01  0.22901213293E+03  0.22952444796E+03  0.47000000000E+01 0.  1.
         13    1    4    4    0    0 -0.32393424248E+02 -0.11430754276E+02  0.48506476532E+02  0.59437987377E+02  0.00000000000E+00 0. -1.
        -14    1    4    4    0    0  0.31271511440E+02 -0.25244292431E+02 -0.23455188453E+01  0.40257709656E+02  0.00000000000E+00 0.  1.
</event>
<event>
12    1  0.8416569E-002  0.1852037E+03  0.7818608E-02  0.1162946E+00
         21   -1    0    0  503  502  0.00000000000E+00  0.00000000000E+00  0.72450407035E+02  0.72450407035E+02  0.00000000000E+00 0. -1.
         21   -1    0    0  501  503 -0.00000000000E+00 -0.00000000000E+00 -0.47364864129E+03  0.47364864129E+03  0.00000000000E+00 0. -1.
          6    2    1    2  501    0  0.26578468634E+02 -0.61991553940E+02 -0.21428959591E+03  0.28323215082E+03  0.17248493437E+03 0.  0.
         24    2    3    3    0    0 -0.28620069251E+02 -0.88598699137E+02 -0.13097816326E+03  0.17970580841E+03  0.80436686125E+02 0.  0.
         -6    2    1    2    0  502 -0.26578468634E+02  0.61991553940E+02 -0.18690863834E+03  0.26286689751E+03  0.17208950858E+03 0.  0.
        -24    2    5    5    0    0 -0.30867794561E+02  0.10315057375E+03 -0.10097642208E+03  0.16737397096E+03  0.78898331632E+02 0.  0.
          5    1    3    3  501    0  0.55198537885E+02  0.26607145196E+02 -0.83311432658E+02  0.10352634240E+03  0.47000000000E+01 0. -1.
        -11    1    4    4    0    0 -0.68136389349E+01  0.15270663238E+02 -0.21351356830E+02  0.27120089781E+02  0.00000000000E+00 0.  1.
         12    1    4    4    0    0 -0.21806430316E+02 -0.10386936237E+03 -0.10962680643E+03  0.15258571863E+03  0.00000000000E+00 0. -1.
         -5    1    5    5    0  502  0.42893259269E+01 -0.41159019807E+02 -0.85932216268E+02  0.95492926550E+02  0.47000000000E+01 0.  1.
         11    1    6    6    0    0  0.14596984347E+02  0.25614518436E+02 -0.63463987911E+02  0.69977519735E+02  0.00000000000E+00 0. -1.
        -12    1    6    6    0    0 -0.45464778908E+02  0.77536055310E+02 -0.37512434166E+02  0.97396451225E+02  0.00000000000E+00 0.  1.
</event>
<event>
12    1  0.8416569E-002  0.1969978E+03  0.7818608E-02  0.1152354E+00
         21   -1    0    0  503  502  0.00000000000E+00  0.00000000000E+00  0.94061614959E+02  0.94061614959E+02  0.00000000000E+00 0. -1.
         21   -1    0    0  501  503 -0.00000000000E+00 -0.00000000000E+00 -0.57379674747E+03  0.57379674747E+03  0.00000000000E+00 0.  1.
          6    2    1    2  501    0  0.74542419548E+02  0.60417270770E+02 -0.62448191602E+02  0.20640788649E+03  0.17174871194E+03 0.  0.
         24    2    3    3    0    0 -0.10675263277E+02 -0.11684383920E+02 -0.11683607374E+02  0.83689366755E+02  0.81344436521E+02 0.  0.
         -6    2    1    2    0  502 -0.74542419548E+02 -0.60417270770E+02 -0.41728694091E+03  0.46145047594E+03  0.17205037567E+03 0.  0.
        -24    2    5    5    0    0 -0.45241297622E+02 -0.54093169634E+02 -0.41782985941E+03  0.43110356898E+03  0.79345130679E+02 0.  0.
          5    1    3    3  501    0  0.85217682825E+02  0.72101654691E+02 -0.50764584228E+02  0.12271851974E+03  0.47000000000E+01 0.  1.
        -13    1    4    4    0    0  0.19526714879E+01 -0.10171148330E+02 -0.45968877705E+02  0.47121151320E+02  0.00000000000E+00 0.  1.
         14    1    4    4    0    0 -0.12627934765E+02 -0.15132355905E+01  0.34285270331E+02  0.36568215435E+02  0.00000000000E+00 0. -1.
         -5    1    5    5    0  502 -0.29301121926E+02 -0.63241011366E+01  0.54291849699E+00  0.30346906956E+02  0.47000000000E+01 0.  1.
         13    1    6    6    0    0 -0.48973284040E+02 -0.50272167669E+02 -0.17977680880E+03  0.19299060695E+03  0.00000000000E+00 0. -1.
        -14    1    6    6    0    0  0.37319864186E+01 -0.38210019650E+01 -0.23805305061E+03  0.23811296202E+03  0.00000000000E+00 0.  1.
</event>
<event>
12    1  0.8416569E-002  0.1959520E+03  0.7818608E-02  0.1153403E+00
         21   -1    0    0  503  502  0.00000000000E+00  0.00000000000E+00  0.26983282222E+03  0.26983282222E+03  0.00000000000E+00 0.  1.
         21   -1    0    0  501  503 -0.00000000000E+00 -0.00000000000E+00 -0.25015838192E+03  0.25015838192E+03  0.00000000000E+00 0.  1.
          6    2    1    2  501    0  0.84002792705E+02 -0.38928182579E+02 -0.16140484815E+03  0.25386751985E+03  0.17270008699E+03 0.  0.
         24    2    3    3    0    0  0.65163284627E+02 -0.84038903375E+02 -0.72331713123E+02  0.15215214452E+03  0.81299492096E+02 0.  0.
         -6    2    1    2    0  502 -0.84002792705E+02  0.38928182579E+02  0.18107928845E+03  0.26612368428E+03  0.17163983818E+03 0.  0.
        -24    2    5    5    0    0 -0.42766789079E+02  0.90483396385E+02  0.12430317010E+03  0.17892296364E+03  0.80906770747E+02 0.  0.
          5    1    3    3  501    0  0.18839508077E+02  0.45110720796E+02 -0.89073135022E+02  0.10171537533E+03  0.47000000000E+01 0. -1.
        -11    1    4    4    0    0  0.38547402727E+02 -0.94732760230E+02 -0.68775211169E+02  0.12324864214E+03  0.00000000000E+00 0.  1.
         12    1    4    4    0    0  0.26615881900E+02  0.10693856855E+02 -0.35565019540E+01  0.28903502381E+02  0.00000000000E+00 0. -1.
         -5    1    5    5    0  502 -0.41236003626E+02 -0.51555213806E+02  0.56776118349E+02  0.87200720641E+02  0.47000000000E+01 0.  1.
         13    1    6    6    0    0  0.49846914607E+01 -0.10768095347E+02  0.30994951416E+02  0.33188643233E+02  0.00000000000E+00 0. -1.
        -14    1    6    6    0    0 -0.47751480540E+02  0.10125149173E+03  0.93308218682E+02  0.14573432041E+03  0.00000000000E+00 0.  1.
</event>
<event>
12    1  0.8416569E-002  0.2349206E+03  0.7818608E-02  0.1123882E+00
         21   -1    0    0  501  502  0.00000000000E+00  0.00000000000E+00  0.10166052917E+03  0.10166052917E+03  0.00000000000E+00 0. -1.
         21   -1    0    0  502  503 -0.00000000000E+00 -0.00000000000E+00 -0.17568511651E+04  0.17568511651E+04  0.00000000000E+00 0.  1.
         -6    2    1    2    0  503 -0.11097977173E+02  0.15433401926E+03 -0.16048934349E+04  0.16219958762E+04  0.17676405306E+03 0.  0.
        -24    2    3    3    0    0 -0.61686389719E+02  0.65216757248E+02 -0.11141967670E+04  0.11206911946E+04  0.80348503730E+02 0.  0.
          6    2    1    2  501    0  0.11097977173E+02 -0.15433401926E+03 -0.50297201044E+02  0.23651581808E+03  0.17166178716E+03 0.  0.
         24    2    5    5    0    0  0.66400770796E+02 -0.65979984219E+02 -0.51212801473E+02  0.13217137494E+03  0.78000645116E+02 0.  0.
          5    1    5    5  501    0 -0.55302793624E+02 -0.88354035038E+02  0.91560042876E+00  0.10434444314E+03  0.47000000000E+01 0. -1.
        -13    1    6    6    0    0  0.57639527485E+02 -0.36983991123E+01 -0.33756090158E+02  0.66898930540E+02  0.00000000000E+00 0.  1.
         14    1    6    6    0    0  0.87612433112E+01 -0.62281585106E+02 -0.17456711315E+02  0.65272444398E+02  0.00000000000E+00 0. -1.
         -5    1    3    3    0  503  0.50588412546E+02  0.89117262008E+02 -0.49069666789E+03  0.50130468155E+03  0.47000000000E+01 0.  1.
         13    1    4    4    0    0 -0.18494615131E+02  0.41663552780E+02 -0.19820543888E+03  0.20337969029E+03  0.00000000000E+00 0. -1.
        -14    1    4    4    0    0 -0.43191774588E+02  0.23553204468E+02 -0.91599132812E+03  0.91731150436E+03  0.00000000000E+00 0.  1.
</event>
<event>
12    1  0.8416569E-002  0.1831379E+03  0.7818608E-02  0.1164988E+00
         21   -1    0    0  501  502  0.00000000000E+00  0.00000000000E+00  0.13839195421E+03  0.13839195421E+03  0.00000000000E+00 0.  1.
         21   -1    0    0  502  503 -0.00000000000E+00 -0.00000000000E+00 -0.24393898679E+03  0.24393898679E+03  0.00000000000E+00 0.  1.
         -6    2    1    2    0  503 -0.48974814619E+02 -0.38707478268E+02 -0.72525848331E+02  0.19623985545E+03  0.17132799202E+03 0.  0.
        -24    2    3    3    0    0 -0.47768061272E+01 -0.84821636798E+02 -0.30374157236E+02  0.11956629655E+03  0.78460065619E+02 0.  0.
          6    2    1    2  501    0  0.48974814619E+02  0.38707478268E+02 -0.33021184253E+02  0.18609108555E+03  0.17217053224E+03 0.  0.
         24    2    5    5    0    0  0.39918376087E+02  0.22259437415E+02 -0.88230157552E+02  0.12758742875E+03  0.80031443635E+02 0.  0.
          5    1    5    5  501    0  0.90564385323E+01  0.16448040852E+02  0.55208973298E+02  0.58503656804E+02  0.47000000000E+01 0. -1.
        -13    1    6    6    0    0  0.82250035702E+01  0.96193783112E+01  0.14554222514E+02  0.19287522283E+02  0.00000000000E+00 0.  1.
         14    1    6    6    0    0  0.31693372516E+02  0.12640059104E+02 -0.10278438007E+03  0.10829990647E+03  0.00000000000E+00 0. -1.
         -5    1    3    3    0  503 -0.44198008492E+02  0.46114158530E+02 -0.42151691095E+02  0.76673558896E+02  0.47000000000E+01 0.  1.
         13    1    4    4    0    0  0.32835413142E+02 -0.30934366103E+02  0.42063789412E+01  0.45307758565E+02  0.00000000000E+00 0. -1.
        -14    1    4    4    0    0 -0.37612219269E+02 -0.53887270695E+02 -0.34580536177E+02  0.74258537984E+02  0.00000000000E+00 0.  1.
</event>
<event>
12    1  0.8416569E-002  0.2677162E+03  0.7818608E-02  0.1103015E+00
         21   -1    0    0  503  502  0.00000000000E+00  0.00000000000E+00  0.43583136465E+03  0.43583136465E+03  0.00000000000E+00 0.  1.
         21   -1    0    0  501  503 -0.00000000000E+00 -0.00000000000E+00 -0.27591976188E+03  0.27591976188E+03  0.00000000000E+00 0. -1.
          6    2    1    2  501    0  0.11707967961E+03 -0.16853611176E+03 -0.14828916963E+03  0.30351140288E+03  0.16738405392E+03 0.  0.
         24    2    3    3    0    0  0.39036354988E+02 -0.13241366307E+02 -0.38346777650E+02  0.97801320393E+02  0.79971570711E+02 0.  0.
         -6    2    1    2    0  502 -0.11707967961E+03  0.16853611176E+03  0.30820077239E+03  0.40823972364E+03  0.17192987963E+03 0.  0.
        -24    2    5    5    0    0 -0.37479271284E+02  0.16596162546E+03  0.20809346056E+03  0.28023028310E+03  0.79234880817E+02 0.  0.
          5    1    3    3  501    0  0.78043324625E+02 -0.15529474545E+03 -0.10994239198E+03  0.20571008249E+03  0.47000000000E+01 0. -1.
        -13    1    4    4    0    0  0.48142181981E+02 -0.12815806034E+02 -0.57806741026E+02  0.76312082124E+02  0.00000000000E+00 0.  1.
         14    1    4    4    0    0 -0.91058269925E+01 -0.42556027288E+00  0.19459963376E+02  0.21489238268E+02  0.00000000000E+00 0. -1.
         -5    1    5    5    0  502 -0.79600408330E+02  0.25744863054E+01  0.10010731183E+03  0.12800944055E+03  0.47000000000E+01 0.  1.
         11    1    6    6    0    0 -0.38848228837E+02  0.16986571495E+03  0.17528014346E+03  0.24715718620E+03  0.00000000000E+00 0. -1.
        -12    1    6    6    0    0  0.13689575529E+01 -0.39040894900E+01  0.32813317102E+02  0.33073096903E+02  0.00000000000E+00 0.  1.
</event>
<event>
12    1  0.8416569E-002  0.2003864E+03  0.7818608E-02  0.1149427E+00
         21   -1    0    0  503  502  0.00000000000E+00  0.00000000000E+00  0.30081455570E+02  0.30081455570E+02  0.00000000000E+00 0.  1.
         21   -1    0    0  501  503 -0.00000000000E+00 -0.00000000000E+00 -0.16084074432E+04  0.16084074432E+04  0.00000000000E+00 0.  1.
          6    2    1    2  501    0  0.88784195728E+02  0.50619477533E+02 -0.45093990752E+03  0.49343253343E+03  0.17229016205E+03 0.  0.
         24    2    3    3    0    0  0.18843587913E+02  0.15995108127E+02 -0.37519273222E+03  0.38457363327E+03  0.80724028695E+02 0.  0.
         -6    2    1    2    0  502 -0.88784195728E+02 -0.50619477533E+02 -0.11273860801E+04  0.11450563653E+04  0.17236513932E+03 0.  0.
        -24    2    5    5    0    0 -0.27336698543E+02  0.20188859046E+02 -0.78831890933E+03  0.79323503037E+03  0.81364768018E+02 0.  0.
          5    1    3    3  501    0  0.69940607815E+02  0.34624369406E+02 -0.75747175299E+02  0.10885890016E+03  0.47000000000E+01 0. -1.
        -11    1    4    4    0    0 -0.55936043908E-01 -0.29521263349E+02 -0.21365849047E+03  0.21568833689E+03  0.00000000000E+00 0.  1.
         12    1    4    4    0    0  0.18899523957E+02  0.45516371476E+02 -0.16153424175E+03  0.16888529638E+03  0.00000000000E+00 0. -1.
         -5    1    5    5    0  502 -0.61447497186E+02 -0.70808336579E+02 -0.33906717079E+03  0.35182133498E+03  0.47000000000E+01 0.  1.
         11    1    6    6    0    0 -0.31357044544E+01 -0.28492274404E+02 -0.41371152435E+03  0.41470334906E+03  0.00000000000E+00 0. -1.
        -12    1    6    6    0    0 -0.24200994088E+02  0.48681133450E+02 -0.37460738498E+03  0.37853168131E+03  0.00000000000E+00 0.  1.
</event>
<event>
12    1  0.8416569E-002  0.2708700E+03  0.7818608E-02  0.1102296E+00
         21   -1    0    0  501  502  0.00000000000E+00  0.00000000000E+00  0.10274206842E+04  0.10274206842E+04  0.00000000000E+00 0.  1.
         21   -1    0    0  502  503 -0.00000000000E+00 -0.00000000000E+00 -0.91995031111E+02  0.91995031111E+02  0.00000000000E+00 0. -1.
         -6    2    1    2    0  503  0.68385894362E+02  0.18296687819E+03  0.19291665053E+03  0.33254680469E+03  0.18766202118E+03 0.  0.
        -24    2    3    3    0    0  0.87622933143E+02  0.20709623269E+03  0.16076329690E+03  0.28773366421E+03  0.79869868416E+02 0.  0.
          6    2    1    2  501    0 -0.68385894362E+02 -0.18296687819E+03  0.74250900257E+03  0.78686891063E+03  0.17230657144E+03 0.  0.
         24    2    5    5    0    0 -0.80816626930E+02 -0.46627525904E+02  0.35092968986E+03  0.37202027530E+03  0.80882536121E+02 0.  0.
          5    1    5    5  501    0  0.12430732568E+02 -0.13633935229E+03  0.39157931270E+03  0.41484863532E+03  0.47000000000E+01 0. -1.
        -13    1    6    6    0    0 -0.54258000619E+02 -0.33982560029E+01  0.27745266701E+03  0.28272859991E+03  0.00000000000E+00 0.  1.
         14    1    6    6    0    0 -0.26558626311E+02 -0.43229269901E+02  0.73477022856E+02  0.89291675398E+02  0.00000000000E+00 0. -1.
         -5    1    3    3    0  503 -0.19237038781E+02 -0.24129354506E+02  0.32153353626E+02  0.44813140476E+02  0.47000000000E+01 0.  1.
         13    1    4    4    0    0  0.23557375381E+02  0.10851428363E+03  0.11951263650E+03  0.16313666041E+03  0.00000000000E+00 0. -1.
        -14    1    4    4    0    0  0.64065557762E+02  0.98581949061E+02  0.41250660402E+02  0.12459700380E+03  0.00000000000E+00 0.  1.
</event>
<event>
12    1  0.8416569E-002  0.2250975E+03  0.7818608E-02  0.1130210E+00
         21   -1    0    0  503  502  0.00000000000E+00  0.00000000000E+00  0.28662284037E+03  0.28662284037E+03  0.00000000000E+00 0.  1.
         21   -1    0    0  501  503 -0.00000000000E+00 -0.00000000000E+00 -0.23297829092E+03  0.23297829092E+03  0.00000000000E+00 0.  1.
          6    2    1    2  501    0 -0.11985113899E+03  0.84158818621E+02 -0.10114313047E+03  0.24641969186E+03  0.17042807699E+03 0.  0.
         24    2    3    3    0    0 -0.10198133238E+03  0.11164112215E+03 -0.38833039768E+02  0.17585593063E+03  0.80952894015E+02 0.  0.
         -6    2    1    2    0  502  0.11985113899E+03 -0.84158818621E+02  0.15478767992E+03  0.27318143943E+03  0.17094405729E+03 0.  0.
        -24    2    5    5    0    0  0.70094167642E+02 -0.25484108788E+02  0.87766416531E+01  0.10807604561E+03  0.77722390967E+02 0.  0.
          5    1    3    3  501    0 -0.17869806611E+02 -0.27482303533E+02 -0.62310090699E+02  0.70563761229E+02  0.47000000000E+01 0. -1.
        -13    1    4    4    0    0 -0.10729969341E+03  0.87911610835E+02 -0.52073883986E+02  0.14816667952E+03  0.00000000000E+00 0.  1.
         14    1    4    4    0    0  0.53183610293E+01  0.23729511319E+02  0.13240844218E+02  0.27689251111E+02  0.00000000000E+00 0. -1.
         -5    1    5    5    0  502  0.49756971352E+02 -0.58674709833E+02  0.14601103827E+03  0.16510539382E+03  0.47000000000E+01 0.  1.
         13    1    6    6    0    0  0.20607060145E+02  0.27871297383E+02  0.65137250773E+01  0.35268807181E+02  0.00000000000E+00 0. -1.
        -14    1    6    6    0    0  0.49487107497E+02 -0.53355406170E+02  0.22629165759E+01  0.72807238428E+02  0.00000000000E+00 0.  1.
</event>
<event>
12    1  0.8416569E-002  0.2024883E+03  0.7818608E-02  0.1151256E+00
         21   -1    0    0  503  502  0.00000000000E+00  0.00000000000E+00  0.39750720084E+03  0.39750720084E+03  0.00000000000E+00 0. -1.
         21   -1    0    0  501  503 -0.00000000000E+00 -0.00000000000E+00 -0.11790129247E+03  0.11790129247E+03  0.00000000000E+00 0. -1.
          6    2    1    2  501    0 -0.29544361886E+02  0.65023344352E+02  0.21210619134E+02  0.18712561836E+03  0.17165430974E+03 0.  0.
         24    2    3    3    0    0 -0.78458524854E+02  0.37396439775E+02  0.45256563954E+02  0.12583827335E+03  0.78948594853E+02 0.  0.
         -6    2    1    2    0  502  0.29544361886E+02 -0.65023344352E+02  0.25839528924E+03  0.32828287495E+03  0.18947457840E+03 0.  0.
        -24    2    5    5    0    0  0.43234937834E+02 -0.77310876699E+02  0.27625014549E+03  0.30221946741E+03  0.84712644236E+02 0.  0.
          5    1    3    3  501    0  0.48914162968E+02  0.27626904577E+02 -0.24045944820E+02  0.61287345004E+02  0.47000000000E+01 0. -1.
        -11    1    4    4    0    0 -0.15510248878E+02  0.29946920249E+02  0.52120639741E+02  0.62080165429E+02  0.00000000000E+00 0.  1.
         12    1    4    4    0    0 -0.62948275977E+02  0.74495195261E+01 -0.68640757871E+01  0.63758107924E+02  0.00000000000E+00 0. -1.
         -5    1    5    5    0  502 -0.13690575947E+02  0.12287532346E+02 -0.17854856254E+02  0.26063407543E+02  0.47000000000E+01 0.  1.
         13    1    6    6    0    0  0.68662535538E+02 -0.48309542263E+02  0.18559059874E+03  0.20369640645E+03  0.00000000000E+00 0. -1.
        -14    1    6    6    0    0 -0.25427597705E+02 -0.29001334436E+02  0.90659546747E+02  0.98523060958E+02  0.00000000000E+00 0.  1.
</event>
<event>
12    1  0.8416569E-002  0.2000389E+03  0.7818608E-02  0.1151224E+00
         21   -1    0    0  501  502  0.00000000000E+00  0.00000000000E+00  0.19462105624E+03  0.19462105624E+03  0.00000000000E+00 0. -1.
         21   -1    0    0  502  503 -0.00000000000E+00 -0.00000000000E+00 -0.19963182820E+03  0.19963182820E+03  0.00000000000E+00 0. -1.
         -6    2    1    2    0  503  0.48278549208E+02  0.60462251795E+02 -0.17839176299E+02  0.19380307163E+03  0.17679053186E+03 0.  0.
        -24    2    3    3    0    0  0.36149798328E+02  0.88132006801E+02  0.43065915201E+02  0.12565439511E+03  0.69715818990E+02 0.  0.
          6    2    1    2  501    0 -0.48278549208E+02 -0.60462251795E+02  0.12828404343E+02  0.20044981280E+03  0.18446966496E+03 0.  0.
         24    2    5    5    0    0 -0.93835780105E+02 -0.61204144101E+02  0.44161021851E+02  0.14495355517E+03  0.80686036109E+02 0.  0.
          5    1    5    5  501    0  0.45557230897E+02  0.74189230678E+00 -0.31332617509E+02  0.55496257632E+02  0.47000000000E+01 0. -1.
        -13    1    6    6    0    0 -0.55676766016E+02  0.54579703445E+01 -0.80328835661E+00  0.55949414531E+02  0.00000000000E+00 0.  1.
         14    1    6    6    0    0 -0.38159014090E+02 -0.66662114446E+02  0.44964310208E+02  0.89004140641E+02  0.00000000000E+00 0. -1.
         -5    1    3    3    0  503  0.12128750880E+02 -0.27669755007E+02 -0.60905091501E+02  0.68148676515E+02  0.47000000000E+01 0.  1.
         13    1    4    4    0    0 -0.15147187108E+02  0.36296958514E+02  0.34331429925E+02  0.52206834374E+02  0.00000000000E+00 0. -1.
        -14    1    4    4    0    0  0.51296985435E+02  0.51835048287E+02  0.87344852764E+01  0.73447560741E+02  0.00000000000E+00 0.  1.
</event>
<event>
12    1  0.8416569E-002  0.1823592E+03  0.7818608E-02  0.1165874E+00
         21   -1    0    0  503  502  0.00000000000E+00  0.00000000000E+00  0.24915670167E+03  0.24915670167E+03  0.00000000000E+00 0.  1.
         21   -1    0    0  501  503 -0.00000000000E+00 -0.00000000000E+00 -0.13314909178E+03  0.13314909178E+03  0.00000000000E+00 0.  1.
          6    2    1    2  501    0 -0.40092560715E+02 -0.37422197868E+02  0.72120324419E+02  0.19610253339E+03  0.17391672746E+03 0.  0.
         24    2    3    3    0    0 -0.49967110214E+02 -0.15459671129E+02  0.11275082420E+03  0.14863900190E+03  0.81517427545E+02 0.  0.
         -6    2    1    2    0  502  0.40092560715E+02  0.37422197868E+02  0.43887285471E+02  0.18620326006E+03  0.17244629864E+03 0.  0.
        -24    2    5    5    0    0  0.70197506686E+02  0.70963678328E+02  0.52276308253E+02  0.14011850785E+03  0.83287755705E+02 0.  0.
          5    1    3    3  501    0  0.98745494985E+01 -0.21962526740E+02 -0.40630499785E+02  0.47463531488E+02  0.47000000000E+01 0. -1.
        -11    1    4    4    0    0 -0.40789834969E+01  0.27629276801E+02  0.13283107923E+02  0.30926622820E+02  0.00000000000E+00 0.  1.
         12    1    4    4    0    0 -0.45888126717E+02 -0.43088947930E+02  0.99467716281E+02  0.11771237908E+03  0.00000000000E+00 0. -1.
         -5    1    5    5    0  502 -0.30104945970E+02 -0.33541480460E+02 -0.83890227821E+01  0.46084752213E+02  0.47000000000E+01 0.  1.
         13    1    6    6    0    0 -0.38141661882E+01 -0.63275425347E-01 -0.16291746740E+02  0.16732390126E+02  0.00000000000E+00 0. -1.
        -14    1    6    6    0    0  0.74011672874E+02  0.71026953753E+02  0.68568054993E+02  0.12338611772E+03  0.00000000000E+00 0.  1.
</event>
<event>
12    1  0.8416569E-002  0.1786953E+03  0.7818608E-02  0.1169298E+00
         21   -1    0    0  503  502  0.00000000000E+00  0.00000000000E+00  0.41321593760E+03  0.41321593760E+03  0.00000000000E+00 0. -1.
         21   -1    0    0  501  503 -0.00000000000E+00 -0.00000000000E+00 -0.16686470685E+03  0.16686470685E+03  0.00000000000E+00 0. -1.
          6    2    1    2  501    0  0.26381302839E+02  0.36228084461E+02 -0.89965082119E+02  0.19923859005E+03  0.17202863866E+03 0.  0.
         24    2    3    3    0    0  0.84202480879E+01 -0.40081772909E+02 -0.14698842910E+02  0.90459499299E+02  0.79305837952E+02 0.  0.
         -6    2    1    2    0  502 -0.26381302839E+02 -0.36228084461E+02  0.33631631287E+03  0.38084205440E+03  0.17298427921E+03 0.  0.
        -24    2    5    5    0    0  0.27357154431E+01 -0.78129070631E+02  0.29211893831E+03  0.31317380990E+03  0.81441545112E+02 0.  0.
          5    1    3    3  501    0  0.17961054751E+02  0.76309857369E+02 -0.75266239209E+02  0.10877909075E+03  0.47000000000E+01 0. -1.
        -13    1    4    4    0    0 -0.13540880443E+02 -0.91449193942E+01  0.28570477991E+02  0.32912872961E+02  0.00000000000E+00 0.  1.
         14    1    4    4    0    0  0.21961128530E+02 -0.30936853514E+02 -0.43269320901E+02  0.57546626339E+02  0.00000000000E+00 0. -1.
         -5    1    5    5    0  502 -0.29117018282E+02  0.41900986170E+02  0.44197374559E+02  0.67668244499E+02  0.47000000000E+01 0.  1.
         13    1    6    6    0    0  0.20361613999E+02 -0.15598551420E+02  0.19276693396E+03  0.19446593779E+03  0.00000000000E+00 0. -1.
        -14    1    6    6    0    0 -0.17625898556E+02 -0.62530519211E+02  0.99352004348E+02  0.11870787211E+03  0.00000000000E+00 0.  1.
</event>
<event>
12    1  0.8416569E-002  0.1981268E+03  0.7818608E-02  0.1151472E+00
         21   -1    0    0  503  502  0.00000000000E+00  0.00000000000E+00  0.18553216093E+03  0.18553216093E+03  0.00000000000E+00 0.  1.
         21   -1    0    0  501  503 -0.00000000000E+00 -0.00000000000E+00 -0.25648853431E+03  0.25648853431E+03  0.00000000000E+00 0.  1.
          6    2    1    2  501    0 -0.76167133623E+02 -0.59064130160E+02 -0.12864019229E+03  0.23566746157E+03  0.17233934448E+03 0.  0.
         24    2    3    3    0    0 -0.34015654258E+02 -0.10423086550E+03 -0.85320018893E+02  0.16006647866E+03  0.79502414485E+02 0.  0.
         -6    2    1    2    0  502  0.76167133623E+02  0.59064130160E+02  0.57683818915E+02  0.20635323367E+03  0.17310179192E+03 0.  0.
        -24    2    5    5    0    0  0.10806578581E+03  0.85337402604E+02  0.53322566598E+02  0.16453315024E+03  0.72575306214E+02 0.  0.
          5    1    3    3  501    0 -0.42151479364E+02  0.45166735340E+02 -0.43320173400E+02  0.75600982912E+02  0.47000000000E+01 0. -1.
        -13    1    4    4    0    0 -0.18362554102E+02  0.27624693701E+01  0.49386560863E+01  0.19214706714E+02  0.00000000000E+00 0.  1.
         14    1    4    4    0    0 -0.15653100157E+02 -0.10699333487E+03 -0.90258674979E+02  0.14085177194E+03  0.00000000000E+00 0. -1.
         -5    1    5    5    0  502 -0.31898652190E+02 -0.26273272445E+02  0.43612523169E+01  0.41820083432E+02  0.47000000000E+01 0.  1.
         13    1    6    6    0    0  0.25447094507E+02  0.10737917574E+02 -0.17407759346E+02  0.32647933750E+02  0.00000000000E+00 0. -1.
        -14    1    6    6    0    0  0.82618691305E+02  0.74599485030E+02  0.70730325944E+02  0.13188521649E+03  0.00000000000E+00 0.  1.
</event>
<event>
12    1  0.8416569E-002  0.1743821E+03  0.7818608E-02  0.1173390E+00
         21   -1    0    0  503  502  0.00000000000E+00  0.00000000000E+00  0.60985180593E+03  0.60985180593E+03  0.00000000000E+00 0.  1.
         21   -1    0    0  501  503 -0.00000000000E+00 -0.00000000000E+00 -0.12969070910E+03  0.12969070910E+03  0.00000000000E+00 0.  1.
          6    2    1    2  501    0 -0.25363946445E+02  0.22670822693E+02 -0.50061031199E+02  0.18142553987E+03  0.17103164529E+03 0.  0.
         24    2    3    3    0    0  0.38445967508E+02  0.33601138332E+02 -0.64546638234E+02  0.11491915123E+03  0.80206071444E+02 0.  0.
         -6    2    1    2    0  502  0.25363946445E+02 -0.22670822693E+02  0.53022212803E+03  0.55811697516E+03  0.17088521565E+03 0.  0.
        -24    2    5    5    0    0  0.73428486084E+02 -0.18957983530E+02  0.44538555231E+03  0.46042705897E+03  0.88733526452E+02 0.  0.
          5    1    3    3  501    0 -0.63809913953E+02 -0.10930315639E+02  0.14485607034E+02  0.66506388639E+02  0.47000000000E+01 0. -1.
        -13    1    4    4    0    0  0.40317442729E+02  0.49122186009E+02 -0.18344665185E+02  0.66143874148E+02  0.00000000000E+00 0.  1.
         14    1    4    4    0    0 -0.18714752206E+01 -0.15521047677E+02 -0.46201973048E+02  0.48775277078E+02  0.00000000000E+00 0. -1.
         -5    1    5    5    0  502 -0.48064539638E+02 -0.37128391627E+01  0.84836575718E+02  0.97689916188E+02  0.47000000000E+01 0.  1.
         11    1    6    6    0    0  0.14714089563E+02 -0.46414312020E+02  0.13960942782E+03  0.14785663708E+03  0.00000000000E+00 0. -1.
        -12    1    6    6    0    0  0.58714396521E+02  0.27456328490E+02  0.30577612449E+03  0.31257042189E+03  0.00000000000E+00 0.  1.
</event>
<event>
12    1  0.8416569E-002  0.2506411E+03  0.7818608E-02  0.1112925E+00
         21   -1    0    0  501  502  0.00000000000E+00  0.00000000000E+00  0.62069609505E+02  0.62069609505E+02  0.00000000000E+00 0.  1.
         21   -1    0    0  502  503 -0.00000000000E+00 -0.00000000000E+00 -0.11115911793E+04  0.11115911793E+04  0.00000000000E+00 0. -1.
         -6    2    1    2    0  503  0.94189922639E+02 -0.15643299320E+03 -0.70101959648E+03  0.74447932112E+03  0.17169147340E+03 0.  0.
        -24    2    3    3    0    0  0.12000965550E+01 -0.12134972258E+03 -0.33122112837E+03  0.36152901018E+03  0.79174452454E+02 0.  0.
          6    2    1    2  501    0 -0.94189922639E+02  0.15643299320E+03 -0.34850197334E+03  0.42918146771E+03  0.17146452670E+03 0.  0.
         24    2    5    5    0    0 -0.77906226867E+02  0.74741428780E+02 -0.11020968913E+03  0.17670577945E+03  0.86157388272E+02 0.  0.
          5    1    5    5  501    0 -0.16283695771E+02  0.81691564420E+02 -0.23829228421E+03  0.25247568825E+03  0.47000000000E+01 0. -1.
        -13    1    6    6    0    0 -0.51926186524E+02  0.83877585354E+00 -0.16338848976E+02  0.54442541984E+02  0.00000000000E+00 0.  1.
         14    1    6    6    0    0 -0.25980040344E+02  0.73902652926E+02 -0.93870840151E+02  0.12226323747E+03  0.00000000000E+00 0. -1.
         -5    1    3    3    0  503  0.92989826084E+02 -0.35083270620E+02 -0.36979846810E+03  0.38295031094E+03  0.47000000000E+01 0.  1.
         11    1    4    4    0    0  0.23435193653E+01 -0.65150130289E+02 -0.27270122089E+03  0.28038542657E+03  0.00000000000E+00 0. -1.
        -12    1    4    4    0    0 -0.11434228103E+01 -0.56199592291E+02 -0.58519907486E+02  0.81143583613E+02  0.00000000000E+00 0.  1.
</event>
<event>
12    1  0.8416569E-002  0.2021480E+03  0.7818608E-02  0.1148349E+00
         21   -1    0    0  503  502  0.00000000000E+00  0.00000000000E+00  0.21223330370E+03  0.21223330370E+03  0.00000000000E+00 0.  1.
         21   -1    0    0  501  503 -0.00000000000E+00 -0.00000000000E+00 -0.19248125123E+03  0.19248125123E+03  0.00000000000E+00 0.  1.
          6    2    1    2  501    0  0.65578845655E+01  0.10486609270E+03  0.29501924491E+02  0.20428940455E+03  0.17269595830E+03 0.  0.
         24    2    3    3    0    0 -0.56357472509E+02  0.39159582031E+02  0.39219044150E+02  0.11268045239E+03  0.80306371817E+02 0.  0.
         -6    2    1    2    0  502 -0.65578845655E+01 -0.10486609270E+03 -0.97498720240E+01  0.20042515039E+03  0.17039741094E+03 0.  0.
        -24    2    5    5    0    0 -0.90400752775E+01 -0.49073659712E+02 -0.68693418823E+02  0.11909011145E+03  0.83508812808E+02 0.  0.
          5    1    3    3  501    0  0.62915357075E+02  0.65706510673E+02 -0.97171196592E+01  0.91608952156E+02  0.47000000000E+01 0. -1.
        -13    1    4    4    0    0 -0.54942295605E+01  0.52672285621E+02  0.21392680056E+02  0.57115698288E+02  0.00000000000E+00 0.  1.
         14    1    4    4    0    0 -0.50863242949E+02 -0.13512703590E+02  0.17826364094E+02  0.55564754102E+02  0.00000000000E+00 0. -1.
         -5    1    5    5    0  502  0.24821907120E+01 -0.55792432992E+02  0.58943546799E+02  0.81335038938E+02  0.47000000000E+01 0.  1.
         11    1    6    6    0    0  0.79911871373E+01  0.84218840438E+01  0.13206759839E+02  0.17584246022E+02  0.00000000000E+00 0. -1.
        -12    1    6    6    0    0 -0.17031262415E+02 -0.57495543756E+02 -0.81900178661E+02  0.10150586543E+03  0.00000000000E+00 0.  1.
</event>
<event>
12    1  0.8416569E-002  0.2373184E+03  0.7818608E-02  0.1121848E+00
         21   -1    0    0  503  502  0.00000000000E+00  0.00000000000E+00  0.32629869675E+03  0.32629869675E+03  0.00000000000E+00 0. -1.
         21   -1    0    0  501  503 -0.00000000000E+00 -0.00000000000E+00 -0.18402787746E+03  0.18402787746E+03  0.00000000000E+00 0.  1.
          6    2    1    2  501    0 -0.27638614643E+02  0.16000998081E+03  0.13747774063E+03  0.27295981854E+03  0.17099662684E+03 0.  0.
         24    2    3    3    0    0 -0.33309087817E+00  0.73091055491E+02  0.14528300028E+03  0.18139834583E+03  0.80347970455E+02 0.  0.
         -6    2    1    2    0  502  0.27638614643E+02 -0.16000998081E+03  0.47930786641E+01  0.23736675567E+03  0.17306910792E+03 0.  0.
        -24    2    5    5    0    0  0.47163954191E+02 -0.86937890436E+02  0.63446165982E+02  0.14153855560E+03  0.78899375008E+02 0.  0.
          5    1    3    3  501    0 -0.27305523765E+02  0.86918925319E+02 -0.78052596572E+01  0.91561472711E+02  0.47000000000E+01 0. -1.
        -13    1    4    4    0    0  0.17385439130E+02  0.13703524889E+02 -0.13789707018E+01  0.22179757625E+02  0.00000000000E+00 0.  1.
         14    1    4    4    0    0 -0.17718530008E+02  0.59387530602E+02  0.14666197099E+03  0.15921858820E+03  0.00000000000E+00 0. -1.
         -5    1    5    5    0  502 -0.19525339547E+02 -0.73072090374E+02 -0.58653087318E+02  0.95828200067E+02  0.47000000000E+01 0.  1.
         11    1    6    6    0    0 -0.18292823274E+02 -0.28157148268E+02  0.36348415165E+02  0.49483933422E+02  0.00000000000E+00 0. -1.
        -12    1    6    6    0    0  0.65456777465E+02 -0.58780742167E+02  0.27097750817E+02  0.92054622183E+02  0.00000000000E+00 0.  1.
</event>
<event>
12    1  0.8416569E-002  0.2044444E+03  0.7818608E-02  0.1146502E+00
         21   -1    0    0  503  502  0.00000000000E+00  0.00000000000E+00  0.16447444560E+03  0.16447444560E+03  0.00000000000E+00 0.  1.
         21   -1    0    0  501  503 -0.00000000000E+00 -0.00000000000E+00 -0.31921601266E+03  0.31921601266E+03  0.00000000000E+00 0.  1.
          6    2    1    2  501    0  0.66333339981E+02 -0.82833347636E+02 -0.18919997312E+03  0.27855727697E+03  0.17474567592E+03 0.  0.
         24    2    3    3    0    0  0.47185664402E+02 -0.81842145650E+02 -0.21279288760E+03  0.24779477424E+03  0.84834034428E+02 0.  0.
         -6    2    1    2    0  502 -0.66333339981E+02  0.82833347636E+02  0.34458406056E+02  0.20513318129E+03  0.17213589063E+03 0.  0.
        -24    2    5    5    0    0 -0.49338028520E+02 -0.20412118766E+02  0.17774685357E+02  0.99072333277E+02  0.81538286287E+02 0.  0.
          5    1    3    3  501    0  0.19147675579E+02 -0.99120198527E+00  0.23592914472E+02  0.30762502739E+02  0.47000000000E+01 0. -1.
        -11    1    4    4    0    0  0.66778337377E+02 -0.34381584851E+02 -0.11527773816E+03  0.13758777793E+03  0.00000000000E+00 0.  1.
         12    1    4    4    0    0 -0.19592672975E+02 -0.47460560799E+02 -0.97515149437E+02  0.11020699631E+03  0.00000000000E+00 0. -1.
         -5    1    5    5    0  502 -0.16995311462E+02  0.10324546640E+03  0.16683720699E+02  0.10606084801E+03  0.47000000000E+01 0.  1.
         11    1    6    6    0    0 -0.13299232692E+02 -0.29223760949E+02 -0.26269498273E+02  0.41484748206E+02  0.00000000000E+00 0. -1.
        -12    1    6    6    0    0 -0.36038795827E+02  0.88116421837E+01  0.44044183630E+02  0.57587585070E+02  0.00000000000E+00 0.  1.
</event>
<event>
12    1  0.8416569E-002  0.2618849E+03  0.7818608E-02  0.1106370E+00
         21   -1    0    0  503  502  0.00000000000E+00  0.00000000000E+00  0.15658087393E+03  0.15658087393E+03  0.00000000000E+00 0.  1.
         21   -1    0    0  501  503 -0.00000000000E+00 -0.00000000000E+00 -0.46673559122E+03  0.46673559122E+03  0.00000000000E+00 0. -1.
          6    2    1    2  501    0  0.19401046760E+03  0.57925933760E+01 -0.23689001612E+03  0.35137638391E+03  0.17226394793E+03 0.  0.
         24    2    3    3    0    0  0.25933594788E+02  0.33962996939E+02 -0.89733657404E+02  0.12616428228E+03  0.77712678195E+02 0.  0.
         -6    2    1    2    0  502 -0.19401046760E+03 -0.57925933760E+01 -0.73264701166E+02  0.27194008124E+03  0.17581261523E+03 0.  0.
        -24    2    5    5    0    0 -0.12823974753E+03 -0.69477984978E+02 -0.69842145683E+02  0.18020447960E+03  0.79517959682E+02 0.  0.
          5    1    3    3  501    0  0.16807687281E+03 -0.28170403563E+02 -0.14715635872E+03  0.22521210163E+03  0.47000000000E+01 0. -1.
        -13    1    4    4    0    0 -0.15578128635E+02 -0.16137649715E+02 -0.14546730584E+02  0.26734045724E+02  0.00000000000E+00 0.  1.
         14    1    4    4    0    0  0.41511723423E+02  0.50100646654E+02 -0.75186926820E+02  0.99430236555E+02  0.00000000000E+00 0. -1.
         -5    1    5    5    0  502 -0.65770720066E+02  0.63685391602E+02 -0.34225554825E+01  0.91735601637E+02  0.47000000000E+01 0.  1.
         13    1    6    6    0    0 -0.61659946097E+02 -0.24197907221E+02 -0.74330301812E+02  0.99561445520E+02  0.00000000000E+00 0. -1.
        -14    1    6    6    0    0 -0.66579801436E+02 -0.45280077758E+02  0.44881561286E+01  0.80643034085E+02  0.00000000000E+00 0.  1.
</event>
<event>
12    1  0.8416569E-002  0.1850984E+03  0.7818608E-02  0.1163337E+00
         21   -1    0    0  503  502  0.00000000000E+00  0.00000000000E+00  0.18755775208E+03  0.18755775208E+03  0.00000000000E+00 0. -1.
         21   -1    0    0  501  503 -0.00000000000E+00 -0.00000000000E+00 -0.18177397836E+03  0.18177397836E+03  0.00000000000E+00 0. -1.
          6    2    1    2  501    0  0.66359337475E+02  0.25593566728E+01 -0.85100200304E+01  0.18529396505E+03  0.17277534855E+03 0.  0.
         24    2    3    3    0    0  0.83155382080E+02 -0.19783053788E+01 -0.60828732802E+02  0.12995830568E+03  0.79185195715E+02 0.  0.
         -6    2    1    2    0  502 -0.66359337475E+02 -0.25593566728E+01  0.14293793748E+02  0.18403776539E+03  0.17104231808E+03 0.  0.
        -24    2    5    5    0    0 -0.22500227896E+02  0.27026433222E+02 -0.49958337587E+02  0.10067490293E+03  0.80018199414E+02 0.  0.
          5    1    3    3  501    0 -0.16796044606E+02  0.45376620516E+01  0.52318712772E+02  0.55335659365E+02  0.47000000000E+01 0. -1.
        -11    1    4    4    0    0  0.11995390598E+02  0.15036171414E+02 -0.52990926168E+02  0.56373877838E+02  0.00000000000E+00 0.  1.
         12    1    4    4    0    0  0.71159991483E+02 -0.17014476793E+02 -0.78378066346E+01  0.73584427845E+02  0.00000000000E+00 0. -1.
         -5    1    5    5    0  502 -0.43859109578E+02 -0.29585789895E+02  0.64252131335E+02  0.83362862462E+02  0.47000000000E+01 0.  1.
         13    1    6    6    0    0 -0.51167954995E+02  0.10264625770E+02 -0.40753017274E+02  0.66214277746E+02  0.00000000000E+00 0. -1.
        -14    1    6    6    0    0  0.28667727098E+02  0.16761807452E+02 -0.92053203131E+01  0.34460625184E+02  0.00000000000E+00 0.  1.
</event>
<event>
12    1  0.8416569E-002  0.2447070E+03  0.7818608E-02  0.1116754E+00
         21   -1    0    0  503  502  0.00000000000E+00  0.00000000000E+00  0.27858453087E+02  0.27858453087E+02  0.00000000000E+00 0. -1.
         21   -1    0    0  501  503 -0.00000000000E+00 -0.00000000000E+00 -0.26959003764E+04  0.26959003764E+04  0.00000000000E+00 0.  1.
          6    2    1    2  501    0  0.16105289872E+03  0.64908966824E+02 -0.19496597118E+04  0.19649566220E+04  0.17242483656E+03 0.  0.
         24    2    3    3    0    0  0.80637890216E+02 -0.13149265499E+01 -0.14414971307E+04  0.14462047772E+04  0.84202620822E+02 0.  0.
         -6    2    1    2    0  502 -0.16105289872E+03 -0.64908966824E+02 -0.71838221149E+03  0.75880220749E+03  0.17192026683E+03 0.  0.
        -24    2    5    5    0    0 -0.11939922011E+03 -0.87240100941E+01 -0.28688946178E+03  0.32165250618E+03  0.82598361582E+02 0.  0.
          5    1    3    3  501    0  0.80415008502E+02  0.66223893374E+02 -0.50816258109E+03  0.51875184478E+03  0.47000000000E+01 0. -1.
        -11    1    4    4    0    0  0.11027811134E+02  0.31807446211E+02 -0.25602291439E+03  0.25822675877E+03  0.00000000000E+00 0.  1.
         12    1    4    4    0    0  0.69610079082E+02 -0.33122372761E+02 -0.11854742164E+04  0.11879780185E+04  0.00000000000E+00 0. -1.
         -5    1    5    5    0  502 -0.41653678612E+02 -0.56184956730E+02 -0.43149274971E+03  0.43714970131E+03  0.47000000000E+01 0.  1.
         11    1    6    6    0    0 -0.50925509666E+02  0.74264465900E+00 -0.21870792475E+03  0.22455982589E+03  0.00000000000E+00 0. -1.
        -12    1    6    6    0    0 -0.68473710439E+02 -0.94666547531E+01 -0.68181537033E+02  0.97092680289E+02  0.00000000000E+00 0.  1.
</event>
<event>
12    1  0.8416569E-002  0.1855640E+03  0.7818608E-02  0.1163069E+00
         21   -1    0    0  503  502  0.00000000000E+00  0.00000000000E+00  0.78908808590E+03  0.78908808590E+03  0.00000000000E+00 0.  1.
         21   -1    0    0  501  503 -0.00000000000E+00 -0.00000000000E+00 -0.11299965035E+03  0.11299965035E+03  0.00000000000E+00 0.  1.
          6    2    1    2  501    0 -0.59199703428E+02  0.27005823335E+02 -0.17532402783E+02  0.18407391352E+03  0.17129477841E+03 0.  0.
         24    2    3    3    0    0  0.20355591012E+02  0.35997217951E+02 -0.42983290143E+02  0.99932795641E+02  0.80180113666E+02 0.  0.
         -6    2    1    2    0  502  0.59199703428E+02 -0.27005823335E+02  0.69362083833E+03  0.71801382273E+03  0.17378165290E+03 0.  0.
        -24    2    5    5    0    0  0.73790292158E+01 -0.19905779867E+02  0.15199085106E+03  0.17384388053E+03  0.81668756845E+02 0.  0.
          5    1    3    3  501    0 -0.79555294440E+02 -0.89913946160E+01  0.25450887360E+02  0.84141117880E+02  0.47000000000E+01 0. -1.
        -11    1    4    4    0    0 -0.11065806097E+02  0.47357921825E+02 -0.45270102471E+02  0.66442508998E+02  0.00000000000E+00 0.  1.
         12    1    4    4    0    0  0.31421397109E+02 -0.11360703874E+02  0.22868123280E+01  0.33490286643E+02  0.00000000000E+00 0. -1.
         -5    1    5    5    0  502  0.51820674212E+02 -0.71000434676E+01  0.54162998727E+03  0.54416994221E+03  0.47000000000E+01 0.  1.
         13    1    6    6    0    0  0.42232616800E+02 -0.33550266218E+01  0.10378117152E+03  0.11209541332E+03  0.00000000000E+00 0. -1.
        -14    1    6    6    0    0 -0.34853587584E+02 -0.16550753246E+02  0.48209679545E+02  0.61748467206E+02  0.00000000000E+00 0.  1.
</event>
<event>
12    1  0.8416569E-002  0.3197033E+03  0.7818608E-02  0.1075794E+00
         21   -1    0    0  501  502  0.00000000000E+00  0.00000000000E+00  0.24746982353E+03  0.24746982353E+03  0.00000000000E+00 0. -1.
         21   -1    0    0  502  503 -0.00000000000E+00 -0.00000000000E+00 -0.41809504519E+03  0.41809504519E+03  0.00000000000E+00 0. -1.
         -6    2    1    2    0  503 -0.19731857197E+03  0.18295467109E+03 -0.12229425304E+03  0.34222903465E+03  0.17250448490E+03 0.  0.
        -24    2    3    3    0    0 -0.14171511176E+03  0.17832220813E+03 -0.14474836290E+03  0.28190091890E+03  0.81449718855E+02 0.  0.
          6    2    1    2  501    0  0.19731857197E+03 -0.18295467109E+03 -0.48330968612E+02  0.32333583407E+03  0.17263588430E+03 0.  0.
         24    2    5    5    0    0  0.80697261613E+02 -0.14444313241E+03  0.18840669382E+02  0.18327232136E+03  0.76536961157E+02 0.  0.
          5    1    5    5  501    0  0.11662131036E+03 -0.38511538685E+02 -0.67171637994E+02  0.14006351271E+03  0.47000000000E+01 0. -1.
        -11    1    6    6    0    0  0.54031158033E+01 -0.30096983828E+02 -0.25018742353E+02  0.39508980812E+02  0.00000000000E+00 0.  1.
         12    1    6    6    0    0  0.75294145810E+02 -0.11434614858E+03  0.43859411735E+02  0.14376334055E+03  0.00000000000E+00 0. -1.
         -5    1    3    3    0  503 -0.55603460208E+02  0.46324629605E+01  0.22454109856E+02  0.60328115747E+02  0.47000000000E+01 0.  1.
         13    1    4    4    0    0 -0.59363076078E+02  0.48073917782E+02 -0.90739075301E+02  0.11861136606E+03  0.00000000000E+00 0. -1.
        -14    1    4    4    0    0 -0.82352035687E+02  0.13024829035E+03 -0.54009287595E+02  0.16328955284E+03  0.00000000000E+00 0.  1.
</event>
<event>
12    1  0.8416569E-002  0.2051634E+03  0.7818608E-02  0.1146306E+00
         21   -1    0    0  501  502  0.00000000000E+00  0.00000000000E+00  0.26777853295E+03  0.26777853295E+03  0.00000000000E+00 0. -1.
         21   -1    0    0  502  503 -0.00000000000E+00 -0.00000000000E+00 -0.17024823001E+03  0.17024823001E+03  0.00000000000E+00 0. -1.
         -6    2    1    2    0  503 -0.10427641687E+03 -0.30250748858E+01 -0.18355693125E+02  0.20598288163E+03  0.17666152344E+03 0.  0.
        -24    2    3    3    0    0 -0.65269600801E+02 -0.32496590631E+02 -0.71151035080E+02  0.13387504522E+03  0.86855677699E+02 0.  0.
          6    2    1    2  501    0  0.10427641687E+03  0.30250748858E+01  0.11588599607E+03  0.23204388132E+03  0.17184899355E+03 0.  0.
         24    2    5    5    0    0  0.55161881916E+02  0.50063773929E+02  0.34739656639E+02  0.12606418915E+03  0.95583060033E+02 0.  0.
          5    1    5    5  501    0  0.49114534951E+02 -0.47038699043E+02  0.81146339430E+02  0.10597969218E+03  0.47000000000E+01 0. -1.
        -13    1    6    6    0    0 -0.22300634922E+02  0.25146839349E+02  0.29168046173E+02  0.44502323138E+02  0.00000000000E+00 0.  1.
         14    1    6    6    0    0  0.77462516838E+02  0.24916934580E+02  0.55716104661E+01  0.81561866009E+02  0.00000000000E+00 0. -1.
         -5    1    3    3    0  503 -0.39006816066E+02  0.29471515745E+02  0.52795341955E+02  0.72107836412E+02  0.47000000000E+01 0.  1.
         11    1    4    4    0    0 -0.69910466839E+02  0.64964299689E+01 -0.61737255784E+02  0.93494201573E+02  0.00000000000E+00 0. -1.
        -12    1    4    4    0    0  0.46408660383E+01 -0.38993020600E+02 -0.94137792960E+01  0.40380843648E+02  0.00000000000E+00 0.  1.
</event>
<event>
12    1  0.8416569E-002  0.2786946E+03  0.7818608E-02  0.1096643E+00
         21   -1    0    0  501  502  0.00000000000E+00  0.00000000000E+00  0.81604376019E+03  0.81604376019E+03  0.00000000000E+00 0. -1.
         21   -1    0    0  502  503 -0.00000000000E+00 -0.00000000000E+00 -0.11690569180E+03  0.11690569180E+03  0.00000000000E+00 0. -1.
         -6    2    1    2    0  503  0.53867150878E+02 -0.20969044770E+03  0.14663604270E+03  0.31491712064E+03  0.17549618245E+03 0.  0.
        -24    2    3    3    0    0  0.97831421368E+02 -0.11232173562E+03  0.10892854492E+03  0.20152634253E+03  0.80995552572E+02 0.  0.
          6    2    1    2  501    0 -0.53867150878E+02  0.20969044770E+03  0.55250202570E+03  0.61803233135E+03  0.17272440591E+03 0.  0.
         24    2    5    5    0    0  0.30161489592E+02  0.70892921546E+02  0.26315527204E+03  0.28626554649E+03  0.82229825035E+02 0.  0.
          5    1    5    5  501    0 -0.84028640470E+02  0.13879752615E+03  0.28934675365E+03  0.33176678486E+03  0.47000000000E+01 0. -1.
        -13    1    6    6    0    0 -0.24257370346E+02  0.12303454663E+02  0.11208097312E+03  0.11533403465E+03  0.00000000000E+00 0.  1.
         14    1    6    6    0    0  0.54418859937E+02  0.58589466883E+02  0.15107429892E+03  0.17093151184E+03  0.00000000000E+00 0. -1.
         -5    1    3    3    0  503 -0.43964270490E+02 -0.97368712073E+02  0.37707497781E+02  0.11339077811E+03  0.47000000000E+01 0.  1.
         11    1    4    4    0    0 -0.12358685292E+02 -0.28126173880E+02  0.23129951050E+02  0.38455342865E+02  0.00000000000E+00 0. -1.
        -12    1    4    4    0    0  0.11019010666E+03 -0.84195561744E+02  0.85798593867E+02  0.16307099967E+03  0.00000000000E+00 0.  1.
</event>
<event>
12    1  0.8416569E-002  0.2199794E+03  0.7818608E-02  0.1133989E+00
         21   -1    0    0  501  502  0.00000000000E+00  0.00000000000E+00  0.86665201581E+03  0.86665201581E+03  0.00000000000E+00 0. -1.
         21   -1    0    0  502  503 -0.00000000000E+00 -0.00000000000E+00 -0.10359473360E+03  0.10359473360E+03  0.00000000000E+00 0.  1.
         -6    2    1    2    0  503 -0.11903833431E+03 -0.68225666938E+02  0.51490607408E+02  0.22545277706E+03  0.17132660439E+03 0.  0.
        -24    2    3    3    0    0 -0.12140357295E+03 -0.57639307087E+02 -0.14881774015E+02  0.15803580305E+03  0.81809110748E+02 0.  0.
          6    2    1    2  501    0  0.11903833431E+03  0.68225666938E+02  0.71156667481E+03  0.74479397234E+03  0.17194784639E+03 0.  0.
         24    2    5    5    0    0  0.86328704938E+02 -0.27602919787E+02  0.33928232116E+03  0.35895622424E+03  0.74313598995E+02 0.  0.
          5    1    5    5  501    0  0.32709629370E+02  0.95828586725E+02  0.37228435365E+03  0.38583774810E+03  0.47000000000E+01 0. -1.
        -13    1    6    6    0    0  0.38257990488E+01  0.18089537574E+02  0.26854660876E+02  0.32604308285E+02  0.00000000000E+00 0.  1.
         14    1    6    6    0    0  0.82502905889E+02 -0.45692457362E+02  0.31242766028E+03  0.32635191596E+03  0.00000000000E+00 0. -1.
         -5    1    3    3    0  503  0.23652386466E+01 -0.10586359851E+02  0.66372381423E+02  0.67416974009E+02  0.47000000000E+01 0.  1.
         13    1    4    4    0    0 -0.67484770349E+02 -0.13897557531E+02 -0.45063595483E+02  0.82328998368E+02  0.00000000000E+00 0. -1.
        -14    1    4    4    0    0 -0.53918802606E+02 -0.43741749556E+02  0.30181821468E+02  0.75706804686E+02  0.00000000000E+00 0.  1.
</event>
<event>
12    1  0.8416569E-002  0.2584749E+03  0.7818608E-02  0.1108168E+00
         21   -1    0    0  501  502  0.00000000000E+00  0.00000000000E+00  0.28897637086E+04  0.28897637086E+04  0.00000000000E+00 0. -1.
         21   -1    0    0  502  503 -0.00000000000E+00 -0.00000000000E+00 -0.43939829989E+02  0.43939829989E+02  0.00000000000E+00 0.  1.
         -6    2    1    2    0  503 -0.12816369996E+03  0.14472522419E+03  0.41069122992E+03  0.48489152670E+03  0.17053205511E+03 0.  0.
        -24    2    3    3    0    0 -0.57647121477E+02  0.54763964389E+01  0.11394530500E+03  0.14956622519E+03  0.77674588208E+02 0.  0.
          6    2    1    2  501    0  0.12816369996E+03 -0.14472522419E+03  0.24351326487E+04  0.24488120119E+04  0.17157484779E+03 0.  0.
         24    2    5    5    0    0  0.16065370750E+03 -0.13030844356E+03  0.20189507641E+04  0.20310885445E+04  0.79803405590E+02 0.  0.
          5    1    5    5  501    0 -0.32490007542E+02 -0.14416780630E+02  0.41618188456E+03  0.41772346736E+03  0.47000000000E+01 0. -1.
        -13    1    6    6    0    0 -0.41574682078E+01 -0.26346446028E+02  0.27127665811E+03  0.27258474828E+03  0.00000000000E+00 0.  1.
         14    1    6    6    0    0  0.16481117570E+03 -0.10396199753E+03  0.17476741060E+04  0.17585037962E+04  0.00000000000E+00 0. -1.
         -5    1    3    3    0  503 -0.70516578478E+02  0.13924882775E+03  0.29674592492E+03  0.33532530151E+03  0.47000000000E+01 0.  1.
         13    1    4    4    0    0 -0.27736714284E+02 -0.25112567874E+02  0.96253871914E+02  0.10327039383E+03  0.00000000000E+00 0. -1.
        -14    1    4    4    0    0 -0.29910407193E+02  0.30588964313E+02  0.17691433088E+02  0.46295831356E+02  0.00000000000E+00 0.  1.
</event>
<event>
12    1  0.8416569E-002  0.2368015E+03  0.7818608E-02  0.1121981E+00
         21   -1    0    0  503  502  0.00000000000E+00  0.00000000000E+00  0.34492594966E+03  0.34492594966E+03  0.00000000000E+00 0.  1.
         21   -1    0    0  501  503 -0.00000000000E+00 -0.00000000000E+00 -0.16347775760E+03  0.16347775760E+03  0.00000000000E+00 0. -1.
          6    2    1    2  501    0 -0.25701537274E+02  0.16059689058E+03  0.11119279327E+03  0.26140013332E+03  0.17179715405E+03 0.  0.
         24    2    3    3    0    0 -0.65470949067E+02  0.57872382707E+02  0.93866110985E+02  0.14979263110E+03  0.77403667147E+02 0.  0.
         -6    2    1    2    0  502  0.25701537274E+02 -0.16059689058E+03  0.70255398786E+02  0.24700357394E+03  0.17211337600E+03 0.  0.
        -24    2    5    5    0    0  0.82609863102E+02 -0.97532972293E+02  0.33569269902E+02  0.15435597607E+03  0.79760900831E+02 0.  0.
          5    1    3    3  501    0  0.39769411793E+02  0.10272450788E+03  0.17326682288E+02  0.11160750222E+03  0.47000000000E+01 0. -1.
        -11    1    4    4    0    0 -0.19641645035E+02  0.59270395735E+02  0.25437141082E+02  0.67422712617E+02  0.00000000000E+00 0.  1.
         12    1    4    4    0    0 -0.45829304032E+02 -0.13980130279E+01  0.68428969904E+02  0.82369918481E+02  0.00000000000E+00 0. -1.
         -5    1    5    5    0  502 -0.56908325828E+02 -0.63063918291E+02  0.36686128884E+02  0.92647597871E+02  0.47000000000E+01 0.  1.
         13    1    6    6    0    0  0.52962074993E+02 -0.47816811036E+02  0.57579512092E+02  0.91688761678E+02  0.00000000000E+00 0. -1.
        -14    1    6    6    0    0  0.29647788109E+02 -0.49716161257E+02 -0.24010242190E+02  0.62667214394E+02  0.00000000000E+00 0.  1.
</event>
<event>
12    1  0.8416569E-002  0.1834109E+03  0.7818608E-02  0.1164615E+00
         21   -1    0    0  501  502  0.00000000000E+00  0.00000000000E+00  0.65841028000E+02  0.65841028000E+02  0.00000000000E+00 0. -1.
         21   -1    0    0  502  503 -0.00000000000E+00 -0.00000000000E+00 -0.54987509324E+03  0.54987509324E+03  0.00000000000E+00 0. -1.
         -6    2    1    2    0  503 -0.55591250465E+00  0.64069804362E+02 -0.32504682202E+03  0.37322245567E+03  0.17185550920E+03 0.  0.
        -24    2    3    3    0    0  0.34191597376E+02  0.97626408736E+02 -0.20635208123E+03  0.24498842496E+03  0.82086332141E+02 0.  0.
          6    2    1    2  501    0  0.55591250465E+00 -0.64069804362E+02 -0.15898724322E+03  0.24249366557E+03  0.17152546594E+03 0.  0.
         24    2    5    5    0    0 -0.72552237591E+01  0.30643674953E+02 -0.92850189699E+02  0.12661503569E+03  0.80115769045E+02 0.  0.
          5    1    5    5  501    0  0.78111362638E+01 -0.94713479315E+02 -0.66137053518E+02  0.11587862987E+03  0.47000000000E+01 0. -1.
        -13    1    6    6    0    0  0.29597385136E+02  0.32518815884E+02 -0.71626307183E+02  0.84046454262E+02  0.00000000000E+00 0.  1.
         14    1    6    6    0    0 -0.36852608895E+02 -0.18751409312E+01 -0.21223882516E+02  0.42568581429E+02  0.00000000000E+00 0. -1.
         -5    1    3    3    0  503 -0.34747509881E+02 -0.33556604374E+02 -0.11869474079E+03  0.12823403071E+03  0.47000000000E+01 0.  1.
         13    1    4    4    0    0  0.60271497957E+02  0.74206642947E+02 -0.13416044734E+03  0.16473707826E+03  0.00000000000E+00 0. -1.
        -14    1    4    4    0    0 -0.26079900581E+02  0.23419765789E+02 -0.72191633888E+02  0.80251346701E+02  0.00000000000E+00 0.  1.
</event>
<event>
12    1  0.8416569E-002  0.2135959E+03  0.7818608E-02  0.1138777E+00
         21   -1    0    0  501  502  0.00000000000E+00  0.00000000000E+00  0.96059162668E+02  0.96059162668E+02  0.00000000000E+00 0. -1.
         21   -1    0    0  502  503 -0.00000000000E+00 -0.00000000000E+00 -0.47532373310E+03  0.47532373310E+03  0.00000000000E+00 0.  1.
         -6    2    1    2    0  503 -0.19007473249E+02  0.12502454444E+03 -0.17868094275E+03  0.27836922381E+03  0.17195966012E+03 0.  0.
        -24    2    3    3    0    0 -0.36886483496E+02  0.82721697737E+02 -0.31735051817E+02  0.12434203559E+03  0.79059068803E+02 0.  0.
          6    2    1    2  501    0  0.19007473249E+02 -0.12502454444E+03 -0.20058362768E+03  0.29301367196E+03  0.17213599133E+03 0.  0.
         24    2    5    5    0    0 -0.40992849672E+02 -0.78333015823E+02 -0.17510200298E+03  0.21269218796E+03  0.82223964137E+02 0.  0.
          5    1    5    5  501    0  0.60000322920E+02 -0.46691528619E+02 -0.25481624700E+02  0.80321484004E+02  0.47000000000E+01 0. -1.
        -11    1    6    6    0    0 -0.29495523566E+02 -0.92400055464E+02 -0.11787655100E+03  0.15265201419E+03  0.00000000000E+00 0.  1.
         12    1    6    6    0    0 -0.11497326106E+02  0.14067039640E+02 -0.57225451984E+02  0.60040173772E+02  0.00000000000E+00 0. -1.
         -5    1    3    3    0  503  0.17879010248E+02  0.42302846705E+02 -0.14694589094E+03  0.15402718822E+03  0.47000000000E+01 0.  1.
         11    1    4    4    0    0 -0.13527167688E+02  0.77706786746E+02  0.66218643421E+01  0.79152877771E+02  0.00000000000E+00 0. -1.
        -12    1    4    4    0    0 -0.23359315809E+02  0.50149109907E+01 -0.38356916159E+02  0.45189157821E+02  0.00000000000E+00 0.  1.
</event>
<event>
12    1  0.8416569E-002  0.1755212E+03  0.7818608E-02  0.1173198E+00
         21   -1    0    0  501  502  0.00000000000E+00  0.00000000000E+00  0.12243320115E+04  0.12243320115E+04  0.00000000000E+00 0.  1.
         21   -1    0    0  502  503 -0.00000000000E+00 -0.00000000000E+00 -0.51237915861E+02  0.51237915861E+02  0.00000000000E+00 0.  1.
         -6    2    1    2    0  503  0.26267978118E+01  0.19296416396E+02  0.12991975515E+03  0.21837312382E+03  0.17443745778E+03 0.  0.
        -24    2    3    3    0    0 -0.14177332037E+02 -0.48600270020E+02  0.11438786263E+03  0.14657013996E+03  0.76388741446E+02 0.  0.
          6    2    1    2  501    0 -0.26267978118E+01 -0.19296416396E+02  0.10431743405E+04  0.10571968036E+04  0.17050843091E+03 0.  0.
         24    2    5    5    0    0 -0.87460754219E+00 -0.58409345904E+02  0.96378418131E+03  0.96855269037E+03  0.76170527491E+02 0.  0.
          5    1    5    5  501    0 -0.17521902696E+01  0.39112929507E+02  0.79390159199E+02  0.88644113189E+02  0.47000000000E+01 0. -1.
        -11    1    6    6    0    0 -0.90006578327E+01 -0.74654222604E+02  0.66973879388E+03  0.67394682047E+03  0.00000000000E+00 0.  1.
         12    1    6    6    0    0  0.81260502905E+01  0.16244876701E+02  0.29404538743E+03  0.29460586990E+03  0.00000000000E+00 0. -1.
         -5    1    3    3    0  503  0.16804129849E+02  0.67896686416E+02  0.15531892519E+02  0.71802983862E+02  0.47000000000E+01 0.  1.
         11    1    4    4    0    0  0.94876557002E+01 -0.14664283134E+02  0.10185410788E+03  0.10334077657E+03  0.00000000000E+00 0. -1.
        -12    1    4    4    0    0 -0.23664987737E+02 -0.33935986886E+02  0.12533754753E+02  0.43229363386E+02  0.00000000000E+00 0.  1.
</event>
<event>
12    1  0.8416569E-002  0.1786963E+03  0.7818608E-02  0.1171820E+00
         21   -1    0    0  503  502  0.00000000000E+00  0.00000000000E+00  0.36320905466E+03  0.36320905466E+03  0.00000000000E+00 0. -1.
         21   -1    0    0  501  503 -0.00000000000E+00 -0.00000000000E+00 -0.85181306856E+02  0.85181306856E+02  0.00000000000E+00 0.  1.
          6    2    1    2  501    0 -0.22903130059E+02  0.41832805665E+02  0.10458051017E+03  0.20704941431E+03  0.17221451699E+03 0.  0.
         24    2    3    3    0    0  0.30379418670E+00  0.91993945434E+02  0.55506616578E+02  0.13298836984E+03  0.78370554045E+02 0.  0.
         -6    2    1    2    0  502  0.22903130059E+02 -0.41832805665E+02  0.17344723763E+03  0.24134094720E+03  0.16089428690E+03 0.  0.
        -24    2    5    5    0    0  0.16888628517E+02 -0.80070823097E+02  0.77935148795E+02  0.13817617938E+03  0.79512304998E+02 0.  0.
          5    1    3    3  501    0 -0.23206924246E+02 -0.50161139769E+02  0.49073893594E+02  0.74061044473E+02  0.47000000000E+01 0. -1.
        -13    1    4    4    0    0 -0.20009052827E+02  0.45405868683E+02  0.64497349381E+02  0.81375445824E+02  0.00000000000E+00 0.  1.
         14    1    4    4    0    0  0.20312847014E+02  0.46588076751E+02 -0.89907328032E+01  0.51612924016E+02  0.00000000000E+00 0. -1.
         -5    1    5    5    0  502  0.60145015420E+01  0.38238017431E+02  0.95512088832E+02  0.10316476782E+03  0.47000000000E+01 0.  1.
         13    1    6    6    0    0  0.36412613063E+02 -0.35115200110E+02  0.73140987261E+02  0.88930083135E+02  0.00000000000E+00 0. -1.
        -14    1    6    6    0    0 -0.19523984546E+02 -0.44955622987E+02  0.47941615341E+01  0.49246096246E+02  0.00000000000E+00 0.  1.
</event>
<event>
12    1  0.8416569E-002  0.3316202E+03  0.7818608E-02  0.1071416E+00
         21   -1    0    0  503  502  0.00000000000E+00  0.00000000000E+00  0.83929273269E+03  0.83929273269E+03  0.00000000000E+00 0.  1.
         21   -1    0    0  501  503 -0.00000000000E+00 -0.00000000000E+00 -0.16559844805E+03  0.16559844805E+03  0.00000000000E+00 0. -1.
          6    2    1    2  501    0  0.20859557439E+03  0.17713490990E+03  0.92432670236E+02  0.33568493324E+03  0.17103124251E+03 0.  0.
         24    2    3    3    0    0  0.99987779458E+02  0.69480342257E+02  0.10876777458E+03  0.18182108209E+03  0.80021266577E+02 0.  0.
         -6    2    1    2    0  502 -0.20859557439E+03 -0.17713490990E+03  0.58126161441E+03  0.66920624750E+03  0.18730469121E+03 0.  0.
        -24    2    5    5    0    0 -0.20475414792E+03 -0.14100519805E+03  0.36060456575E+03  0.44552849769E+03  0.81567533071E+02 0.  0.
          5    1    3    3  501    0  0.10860779494E+03  0.10765456764E+03 -0.16335104346E+02  0.15386385114E+03  0.47000000000E+01 0. -1.
        -13    1    4    4    0    0 -0.12336483018E+02  0.18752450993E+02  0.16187458760E+02  0.27674483782E+02  0.00000000000E+00 0.  1.
         14    1    4    4    0    0  0.11232426248E+03  0.50727891264E+02  0.92580315823E+02  0.15414659831E+03  0.00000000000E+00 0. -1.
         -5    1    5    5    0  502 -0.38414264741E+01 -0.36129711849E+02  0.22065704866E+03  0.22367774981E+03  0.47000000000E+01 0.  1.
         13    1    6    6    0    0 -0.69949349432E+02 -0.10354978997E+02  0.13176418436E+03  0.14953908304E+03  0.00000000000E+00 0. -1.
        -14    1    6    6    0    0 -0.13480479849E+03 -0.13065021905E+03  0.22884038139E+03  0.29598941465E+03  0.00000000000E+00 0.  1.
</event>
<event>
12    1  0.8416569E-002  0.1845279E+03  0.7818608E-02  0.1163613E+00
         21   -1    0    0  501  502  0.00000000000E+00  0.00000000000E+00  0.11982012673E+02  0.11982012673E+02  0.00000000000E+00 0. -1.
         21   -1    0    0  502  503 -0.00000000000E+00 -0.00000000000E+00 -0.33698238731E+04  0.33698238731E+04  0.00000000000E+00 0. -1.
         -6    2    1    2    0  503 -0.60316776054E+02  0.28015393033E+02 -0.23552895830E+04  0.23625070489E+04  0.17212658273E+03 0.  0.
        -24    2    3    3    0    0 -0.60484902428E+02 -0.32062536838E+02 -0.92503388731E+03  0.93098239628E+03  0.79712607725E+02 0.  0.
          6    2    1    2  501    0  0.60316776054E+02 -0.28015393033E+02 -0.10025522775E+04  0.10192988369E+04  0.17156944427E+03 0.  0.
         24    2    5    5    0    0 -0.28918222175E+02 -0.15903039855E+02 -0.34375970445E+03  0.35436324737E+03  0.79456947046E+02 0.  0.
          5    1    5    5  501    0  0.89234998229E+02 -0.12112353178E+02 -0.65879257303E+03  0.66493558958E+03  0.47000000000E+01 0. -1.
        -11    1    6    6    0    0  0.33704771561E+01 -0.25367667917E+01 -0.29129450454E+03  0.29132504814E+03  0.00000000000E+00 0.  1.
         12    1    6    6    0    0 -0.32288699331E+02 -0.13366273063E+02 -0.52465199912E+02  0.63038199228E+02  0.00000000000E+00 0. -1.
         -5    1    3    3    0  503  0.16812637390E+00  0.60077929870E+02 -0.14302556957E+04  0.14315246526E+04  0.47000000000E+01 0.  1.
         13    1    4    4    0    0  0.19741155945E+01  0.10441469333E+01 -0.50762204795E+03  0.50762696042E+03  0.00000000000E+00 0. -1.
        -14    1    4    4    0    0 -0.62459018023E+02 -0.33106683771E+02 -0.41741183936E+03  0.42335543587E+03  0.00000000000E+00 0.  1.
</event>
<event>
12    1  0.8416569E-002  0.2390996E+03  0.7818608E-02  0.1120575E+00
         21   -1    0    0  503  502  0.00000000000E+00  0.00000000000E+00  0.85332714824E+02  0.85332714824E+02  0.00000000000E+00 0. -1.
         21   -1    0    0  501  503 -0.00000000000E+00 -0.00000000000E+00 -0.67044415604E+03  0.67044415604E+03  0.00000000000E+00 0. -1.
          6    2    1    2  501    0  0.15001914356E+03  0.68926033514E+02 -0.32053254829E+03  0.39988714048E+03  0.17295105977E+03 0.  0.
         24    2    3    3    0    0  0.11015057110E+03  0.29592661823E+02 -0.31384462291E+03  0.34328823991E+03  0.79620941882E+02 0.  0.
         -6    2    1    2    0  502 -0.15001914356E+03 -0.68926033514E+02 -0.26457889293E+03  0.35588973038E+03  0.17146127283E+03 0.  0.
        -24    2    5    5    0    0 -0.10937254200E+03  0.13338505952E+02 -0.10646020238E+03  0.17301487981E+03  0.80374780010E+02 0.  0.
          5    1    3    3  501    0  0.39868572465E+02  0.39333371692E+02 -0.66879253779E+01  0.56598900563E+02  0.47000000000E+01 0. -1.
        -13    1    4    4    0    0 -0.86983118217E+01  0.16900002162E+02 -0.33288810194E+02  0.38332956913E+02  0.00000000000E+00 0.  1.
         14    1    4    4    0    0  0.11884888292E+03  0.12692659661E+02 -0.28055581272E+03  0.30495528300E+03  0.00000000000E+00 0. -1.
         -5    1    5    5    0  502 -0.40646601566E+02 -0.82264539467E+02 -0.15811869054E+03  0.18287485057E+03  0.47000000000E+01 0.  1.
         13    1    6    6    0    0 -0.80536524559E+02  0.15063994839E+02 -0.11650511531E+03  0.14243067655E+03  0.00000000000E+00 0. -1.
        -14    1    6    6    0    0 -0.28836017437E+02 -0.17254888867E+01  0.10044912929E+02  0.30584203264E+02  0.00000000000E+00 0.  1.
</event>
<event>
12    1  0.8416569E-002  0.1786121E+03  0.7818608E-02  0.1171026E+00
         21   -1    0    0  503  502  0.00000000000E+00  0.00000000000E+00  0.25014242664E+03  0.25014242664E+03  0.00000000000E+00 0.  1.
         21   -1    0    0  501  503 -0.00000000000E+00 -0.00000000000E+00 -0.12951661953E+03  0.12951661953E+03  0.00000000000E+00 0.  1.
          6    2    1    2  501    0  0.16626996823E+02 -0.13812937922E+01  0.14127149179E+02  0.17170653796E+03  0.17030911261E+03 0.  0.
         24    2    3    3    0    0  0.29455542539E+02 -0.63720107698E+02  0.10902121462E+01  0.10657013469E+03  0.80175581901E+02 0.  0.
         -6    2    1    2    0  502 -0.16626996823E+02  0.13812937922E+01  0.10649865793E+03  0.20795250821E+03  0.17783114613E+03 0.  0.
        -24    2    5    5    0    0 -0.29853640843E+02 -0.15273090318E+02 -0.10621708445E+02  0.88824078177E+02  0.81562178823E+02 0.  0.
          5    1    3    3  501    0 -0.12828545716E+02  0.62338813905E+02  0.13036937033E+02  0.65136403274E+02  0.47000000000E+01 0. -1.
        -11    1    4    4    0    0  0.25173308128E+02  0.13944709752E+02 -0.12428308053E+00  0.28777870291E+02  0.00000000000E+00 0.  1.
         12    1    4    4    0    0  0.42822344110E+01 -0.77664817450E+02  0.12144952268E+01  0.77792264395E+02  0.00000000000E+00 0. -1.
         -5    1    5    5    0  502  0.13226644020E+02  0.16654384110E+02  0.11712036637E+03  0.11912843003E+03  0.47000000000E+01 0.  1.
         13    1    6    6    0    0  0.11994776387E+02 -0.15381646070E+02  0.26485715780E+02  0.32893203504E+02  0.00000000000E+00 0. -1.
        -14    1    6    6    0    0 -0.41848417230E+02  0.10855575171E+00 -0.37107424225E+02  0.55930874673E+02  0.00000000000E+00 0.  1.
</event>
<event>
12    1  0.8416569E-002  0.1942431E+03  0.7818608E-02  0.1154938E+00
         21   -1    0    0  503  502  0.00000000000E+00  0.00000000000E+00  0.12626997935E+03  0.12626997935E+03  0.00000000000E+00 0. -1.
         21   -1    0    0  501  503 -0.00000000000E+00 -0.00000000000E+00 -0.37768263650E+03  0.37768263650E+03  0.00000000000E+00 0. -1.
          6    2    1    2  501    0  0.49081976042E+02  0.78063205880E+02 -0.24182904684E+03  0.30947323314E+03  0.16967465824E+03 0.  0.
         24    2    3    3    0    0  0.35662159473E+01  0.37386131660E+02 -0.23154672837E+03  0.24739163476E+03  0.78602116974E+02 0.  0.
         -6    2    1    2    0  502 -0.49081976042E+02 -0.78063205880E+02 -0.95836103108E+01  0.19447938272E+03  0.17096046394E+03 0.  0.
        -24    2    5    5    0    0  0.18203916321E+02 -0.47294989900E+02  0.45076060292E+02  0.10237159794E+03  0.76680468278E+02 0.  0.
          5    1    3    3  501    0  0.45515760094E+02  0.40677074220E+02 -0.10282318469E+02  0.62081598378E+02  0.47000000000E+01 0. -1.
        -13    1    4    4    0    0 -0.16210250686E+02 -0.20311517922E+01 -0.57357621564E+01  0.17314640407E+02  0.00000000000E+00 0.  1.
         14    1    4    4    0    0  0.19776466634E+02  0.39417283452E+02 -0.22581096621E+03  0.23007699435E+03  0.00000000000E+00 0. -1.
         -5    1    5    5    0  502 -0.67285892362E+02 -0.30768215980E+02 -0.54659670602E+02  0.92107784774E+02  0.47000000000E+01 0.  1.
         11    1    6    6    0    0 -0.44160526006E-01 -0.53810365511E+02  0.55106650462E+00  0.53813205265E+02  0.00000000000E+00 0. -1.
        -12    1    6    6    0    0  0.18248076847E+02  0.65153756108E+01  0.44524993787E+02  0.48558392680E+02  0.00000000000E+00 0.  1.
</event>
<event>
12    1  0.8416569E-002  0.2300612E+03  0.7818608E-02  0.1126803E+00
         21   -1    0    0  503  502  0.00000000000E+00  0.00000000000E+00  0.13428481252E+04  0.13428481252E+04  0.00000000000E+00 0.  1.
         21   -1    0    0  501  503 -0.00000000000E+00 -0.00000000000E+00 -0.40377888455E+02  0.40377888455E+02  0.00000000000E+00 0.  1.
          6    2    1    2  501    0 -0.11728495938E+03  0.95707930707E+02  0.53226629445E+03  0.57939626948E+03  0.17168826161E+03 0.  0.
         24    2    3    3    0    0 -0.94644740240E+02  0.13128057002E+03  0.47412269909E+03  0.50741877388E+03  0.80555964246E+02 0.  0.
         -6    2    1    2    0  502  0.11728495938E+03 -0.95707930707E+02  0.77020394229E+03  0.80382974417E+03  0.17324080122E+03 0.  0.
        -24    2    5    5    0    0 -0.71928717102E+01 -0.58570393973E+02  0.35360204353E+03  0.36742035024E+03  0.80505155905E+02 0.  0.
          5    1    3    3  501    0 -0.22640219140E+02 -0.35572639313E+02  0.58143595369E+02  0.71977495600E+02  0.47000000000E+01 0. -1.
        -11    1    4    4    0    0 -0.15145465906E+02  0.68563479767E+02  0.11929859609E+03  0.13842864921E+03  0.00000000000E+00 0.  1.
         12    1    4    4    0    0 -0.79499274333E+02  0.62717090252E+02  0.35482410300E+03  0.36899012466E+03  0.00000000000E+00 0. -1.
         -5    1    5    5    0  502  0.12447783109E+03 -0.37137536734E+02  0.41660189875E+03  0.43640939393E+03  0.47000000000E+01 0.  1.
         11    1    6    6    0    0 -0.30030427219E+02 -0.43981107952E+02  0.10892304609E+03  0.12124518294E+03  0.00000000000E+00 0. -1.
        -12    1    6    6    0    0  0.22837555509E+02 -0.14589286021E+02  0.24467899744E+03  0.24617516730E+03  0.00000000000E+00 0.  1.
</event>
<event>
12    1  0.8416569E-002  0.2616001E+03  0.7818608E-02  0.1106489E+00
         21   -1    0    0  503  502  0.00000000000E+00  0.00000000000E+00  0.36696498008E+03  0.36696498008E+03  0.00000000000E+00 0.  1.
         21   -1    0    0  501  503 -0.00000000000E+00 -0.00000000000E+00 -0.33695159849E+03  0.33695159849E+03  0.00000000000E+00 0.  1.
          6    2    1    2  501    0  0.67294776302E+02  0.18149598597E+03 -0.22133948424E+03  0.34113171140E+03  0.17294593780E+03 0.  0.
         24    2    3    3    0    0  0.11030695120E+03  0.10629871056E+03 -0.14209162220E+03  0.22362855802E+03  0.79703597854E+02 0.  0.
         -6    2    1    2    0  502 -0.67294776302E+02 -0.18149598597E+03  0.25135286583E+03  0.36278486718E+03  0.17596936339E+03 0.  0.
        -24    2    5    5    0    0 -0.26558024187E+02 -0.17168906697E+03  0.12274526347E+03  0.22744210225E+03  0.80504942749E+02 0.  0.
          5    1    3    3  501    0 -0.43012174897E+02  0.75197275411E+02 -0.79247862034E+02  0.11750315339E+03  0.47000000000E+01 0. -1.
        -11    1    4    4    0    0  0.86863987772E+02  0.52432399180E+02 -0.12778124394E+03  0.16316419693E+03  0.00000000000E+00 0.  1.
         12    1    4    4    0    0  0.23442963427E+02  0.53866311379E+02 -0.14310378258E+02  0.60464361088E+02  0.00000000000E+00 0. -1.
         -5    1    5    5    0  502 -0.40736752115E+02 -0.98069190008E+01  0.12860760236E+03  0.13534276492E+03  0.47000000000E+01 0.  1.
         13    1    6    6    0    0 -0.41171609305E+01 -0.16596730063E+02 -0.11901509868E+02  0.20833828262E+02  0.00000000000E+00 0. -1.
        -14    1    6    6    0    0 -0.22440863257E+02 -0.15509233691E+03  0.13464677334E+03  0.20660827399E+03  0.00000000000E+00 0.  1.
</event>
<event>
12    1  0.8416569E-002  0.2559695E+03  0.7818608E-02  0.1109733E+00
         21   -1    0    0  503  502  0.00000000000E+00  0.00000000000E+00  0.67227587503E+03  0.67227587503E+03  0.00000000000E+00 0. -1.
         21   -1    0    0  501  503 -0.00000000000E+00 -0.00000000000E+00 -0.98319340196E+02  0.98319340196E+02  0.00000000000E+00 0. -1.
          6    2    1    2  501    0 -0.17862513221E+03 -0.63366789427E+02  0.24468847603E+03  0.35410853171E+03  0.17204102438E+03 0.  0.
         24    2    3    3    0    0 -0.93789728147E+02 -0.10386118915E+03  0.17171139674E+03  0.23500947086E+03  0.78491960788E+02 0.  0.
         -6    2    1    2    0  502  0.17862513221E+03  0.63366789427E+02  0.32926805880E+03  0.41648668351E+03  0.17064997842E+03 0.  0.
        -24    2    5    5    0    0  0.15906863395E+03  0.76443467984E+02  0.33907770740E+03  0.39056805408E+03  0.80145362347E+02 0.  0.
          5    1    3    3  501    0 -0.84835404067E+02  0.40494399727E+02  0.72977079296E+02  0.11909906085E+03  0.47000000000E+01 0. -1.
        -11    1    4    4    0    0 -0.78663730768E+02 -0.10762904495E+03  0.11456704539E+03  0.17577713658E+03  0.00000000000E+00 0.  1.
         12    1    4    4    0    0 -0.15125997379E+02  0.37678557929E+01  0.57144351348E+02  0.59232334286E+02  0.00000000000E+00 0. -1.
         -5    1    5    5    0  502  0.19556498259E+02 -0.13076678557E+02 -0.98096485959E+01  0.25918629435E+02  0.47000000000E+01 0.  1.
         11    1    6    6    0    0  0.10979925679E+03  0.10002392170E+02  0.17533575809E+03  0.20711965794E+03  0.00000000000E+00 0. -1.
        -12    1    6    6    0    0  0.49269377165E+02  0.66441075815E+02  0.16374194931E+03  0.18344839614E+03  0.00000000000E+00 0.  1.
</event>
<event>
12    1  0.8416569E-002  0.3175620E+03  0.7818608E-02  0.1076807E+00
         21   -1    0    0  503  502  0.00000000000E+00  0.00000000000E+00  0.43246963311E+03  0.43246963311E+03  0.00000000000E+00 0.  1.
         21   -1    0    0  501  503 -0.00000000000E+00 -0.00000000000E+00 -0.47023840546E+03  0.47023840546E+03  0.00000000000E+00 0.  1.
          6    2    1    2  501    0 -0.19288991945E+02  0.26592503821E+03 -0.33947246362E+03  0.46467752009E+03  0.17203329026E+03 0.  0.
         24    2    3    3    0    0  0.51856297407E+02  0.19316461048E+03 -0.23634857123E+03  0.31972111553E+03  0.79745233523E+02 0.  0.
         -6    2    1    2    0  502  0.19288991945E+02 -0.26592503821E+03  0.30170369127E+03  0.43803051848E+03  0.17250341051E+03 0.  0.
        -24    2    5    5    0    0 -0.49168018720E+02 -0.20691213121E+03  0.19973781526E+03  0.30169264637E+03  0.76766750106E+02 0.  0.
          5    1    3    3  501    0 -0.71145289352E+02  0.72760427731E+02 -0.10312389239E+03  0.14495640456E+03  0.47000000000E+01 0. -1.
        -13    1    4    4    0    0  0.69055959871E+02  0.14582675586E+03 -0.20301173175E+03  0.25932206143E+03  0.00000000000E+00 0.  1.
         14    1    4    4    0    0 -0.17199662463E+02  0.47337854625E+02 -0.33336839481E+02  0.60399054098E+02  0.00000000000E+00 0. -1.
         -5    1    5    5    0  502  0.68457010665E+02 -0.59012907003E+02  0.10196587601E+03  0.13633787211E+03  0.47000000000E+01 0.  1.
         11    1    6    6    0    0 -0.44302770929E+02 -0.44492333442E+02  0.67539262569E+02  0.92216350153E+02  0.00000000000E+00 0. -1.
        -12    1    6    6    0    0 -0.48652477908E+01 -0.16241979777E+03  0.13219855269E+03  0.20947629622E+03  0.00000000000E+00 0.  1.
</event>
<event>
12    1  0.8416569E-002  0.1915337E+03  0.7818608E-02  0.1160522E+00
         21   -1    0    0  503  502  0.00000000000E+00  0.00000000000E+00  0.18462828666E+03  0.18462828666E+03  0.00000000000E+00 0.  1.
         21   -1    0    0  501  503 -0.00000000000E+00 -0.00000000000E+00 -0.32853743533E+03  0.32853743533E+03  0.00000000000E+00 0.  1.
          6    2    1    2  501    0 -0.77742286805E+02 -0.95080877405E+01 -0.24063870417E+03  0.29859224344E+03  0.15848051934E+03 0.  0.
         24    2    3    3    0    0 -0.74150979259E+02 -0.24109256931E+01 -0.73872620430E+02  0.13157043683E+03  0.79683345248E+02 0.  0.
         -6    2    1    2    0  502  0.77742286805E+02  0.95080877405E+01  0.96729555498E+02  0.21457347856E+03  0.17478816866E+03 0.  0.
        -24    2    5    5    0    0  0.54215232716E+02 -0.26634369082E+01 -0.17662163698E+02  0.97060825167E+02  0.78501378338E+02 0.  0.
          5    1    3    3  501    0 -0.35913075456E+01 -0.70971620474E+01 -0.16676608374E+03  0.16702180661E+03  0.47000000000E+01 0. -1.
        -11    1    4    4    0    0 -0.72610577403E+02  0.28427277763E+02 -0.51755802291E+02  0.93589898721E+02  0.00000000000E+00 0.  1.
         12    1    4    4    0    0 -0.15404018561E+01 -0.30838203456E+02 -0.22116818139E+02  0.37980538107E+02  0.00000000000E+00 0. -1.
         -5    1    5    5    0  502  0.23527054088E+02  0.12171524649E+02  0.11439171920E+03  0.11751265339E+03  0.47000000000E+01 0.  1.
         13    1    6    6    0    0 -0.17059981468E+02 -0.11958102526E+02 -0.13976926959E+02  0.25087719524E+02  0.00000000000E+00 0. -1.
        -14    1    6    6    0    0  0.71275214184E+02  0.92946656180E+01 -0.36852367390E+01  0.71973105642E+02  0.00000000000E+00 0.  1.
</event>
<event>
12    1  0.8416569E-002  0.2096075E+03  0.7818608E-02  0.1142146E+00
         21   -1    0    0  501  502  0.00000000000E+00  0.00000000000E+00  0.10928588998E+04  0.10928588998E+04  0.00000000000E+00 0.  1.
         21   -1    0    0  502  503 -0.00000000000E+00 -0.00000000000E+00 -0.42100949364E+02  0.42100949364E+02  0.00000000000E+00 0.  1.
         -6    2    1    2    0  503 -0.10267212266E+03 -0.56247466903E+02  0.39532106261E+03  0.44682263325E+03  0.17223931238E+03 0.  0.
        -24    2    3    3    0    0 -0.62411177101E+02 -0.10145568716E+03  0.23699188730E+03  0.27724980325E+03  0.80708656751E+02 0.  0.
          6    2    1    2  501    0  0.10267212266E+03  0.56247466903E+02  0.65543688780E+03  0.68813721590E+03  0.17386768448E+03 0.  0.
         24    2    5    5    0    0  0.80011752560E+02  0.58309122371E+02  0.65246732054E+03  0.66471391284E+03  0.79555937877E+02 0.  0.
          5    1    5    5  501    0  0.22660370101E+02 -0.20616554687E+01  0.29695672620E+01  0.23423303057E+02  0.47000000000E+01 0. -1.
        -13    1    6    6    0    0  0.69184652403E+02  0.38341168212E+02  0.26429367689E+03  0.27587625659E+03  0.00000000000E+00 0.  1.
         14    1    6    6    0    0  0.10827100157E+02  0.19967954160E+02  0.38817364365E+03  0.38883765624E+03  0.00000000000E+00 0. -1.
         -5    1    3    3    0  503 -0.40260945560E+02  0.45208220256E+02  0.15832917531E+03  0.16957282999E+03  0.47000000000E+01 0.  1.
         13    1    4    4    0    0 -0.25975966245E+02 -0.38993578869E+02  0.17759277803E+03  0.18366939001E+03  0.00000000000E+00 0. -1.
        -14    1    4    4    0    0 -0.36435210856E+02 -0.62462108289E+02  0.59399109265E+02  0.93580413247E+02  0.00000000000E+00 0.  1.
</event>
<event>
12    1  0.8416569E-002  0.2300220E+03  0.7818608E-02  0.1126738E+00
         21   -1    0    0  503  502  0.00000000000E+00  0.00000000000E+00  0.75179693753E+03  0.75179693753E+03  0.00000000000E+00 0.  1.
         21   -1    0    0  501  503 -0.00000000000E+00 -0.00000000000E+00 -0.21840295289E+03  0.21840295289E+03  0.00000000000E+00 0.  1.
          6    2    1    2  501    0 -0.99434020397E+02 -0.11450774330E+03 -0.13281326957E+03  0.26561153372E+03  0.17294789558E+03 0.  0.
         24    2    3    3    0    0 -0.63276241032E+02 -0.83552579215E+02 -0.16602228158E+03  0.20738322728E+03  0.66779404041E+02 0.  0.
         -6    2    1    2    0  502  0.99434020397E+02  0.11450774330E+03  0.66620725421E+03  0.70458835670E+03  0.17208573198E+03 0.  0.
        -24    2    5    5    0    0  0.89816926185E+02  0.38276437261E+02  0.55631048695E+03  0.57041276289E+03  0.79732028034E+02 0.  0.
          5    1    3    3  501    0 -0.36157779365E+02 -0.30955164088E+02  0.33209012014E+02  0.58228306443E+02  0.47000000000E+01 0. -1.
        -13    1    4    4    0    0 -0.39539024525E+02 -0.90638746271E+02 -0.12399625039E+03  0.15859945428E+03  0.00000000000E+00 0.  1.
         14    1    4    4    0    0 -0.23737216507E+02  0.70861670563E+01 -0.42026031188E+02  0.48783773003E+02  0.00000000000E+00 0. -1.
         -5    1    5    5    0  502  0.96170942122E+01  0.76231306041E+02  0.10989676725E+03  0.13417559381E+03  0.47000000000E+01 0.  1.
         11    1    6    6    0    0  0.58626359482E+02 -0.18219567884E+02  0.25844832605E+03  0.26563986884E+03  0.00000000000E+00 0. -1.
        -12    1    6    6    0    0  0.31190566703E+02  0.56496005145E+02  0.29786216091E+03  0.30477289405E+03  0.00000000000E+00 0.  1.
</event>
<event>
12    1  0.8416569E-002  0.1850005E+03  0.7818608E-02  0.1163248E+00
         21   -1    0    0  501  502  0.00000000000E+00  0.00000000000E+00  0.54612297721E+03  0.54612297721E+03  0.00000000000E+00 0.  1.
         21   -1    0    0  502  503 -0.00000000000E+00 -0.00000000000E+00 -0.76987141376E+02  0.76987141376E+02  0.00000000000E+00 0.  1.
         -6    2    1    2    0  503 -0.64946493051E+02 -0.16525043486E+02  0.98434481537E+02  0.20880990315E+03  0.17152581286E+03 0.  0.
        -24    2    3    3    0    0 -0.46077985331E+02  0.87952322465E+01  0.13387238620E+03  0.16111218797E+03  0.76385760979E+02 0.  0.
          6    2    1    2  501    0  0.64946493051E+02  0.16525043486E+02  0.37070135429E+03  0.41430021543E+03  0.17243564135E+03 0.  0.
         24    2    5    5    0    0  0.91845154163E+02 -0.18128478492E+02  0.17575687783E+03  0.21442564612E+03  0.79521717362E+02 0.  0.
          5    1    5    5  501    0 -0.26898661112E+02  0.34653521978E+02  0.19494447646E+03  0.19987456931E+03  0.47000000000E+01 0. -1.
        -13    1    6    6    0    0  0.31609912185E+02  0.16448297066E+02  0.13813700584E+02  0.38217160394E+02  0.00000000000E+00 0.  1.
         14    1    6    6    0    0  0.60235241978E+02 -0.34576775558E+02  0.16194317725E+03  0.17620848573E+03  0.00000000000E+00 0. -1.
         -5    1    3    3    0  503 -0.18868507721E+02 -0.25320275733E+02 -0.35437904668E+02  0.47697715187E+02  0.47000000000E+01 0.  1.
         11    1    4    4    0    0  0.15218442139E+02  0.18806809746E+02  0.59413440643E+02  0.64150245541E+02  0.00000000000E+00 0. -1.
        -12    1    4    4    0    0 -0.61296427469E+02 -0.10011577499E+02  0.74458945562E+02  0.96961942425E+02  0.00000000000E+00 0.  1.
</event>
<event>
12    1  0.8416569E-002  0.1762936E+03  0.7818608E-02  0.1171970E+00
         21   -1    0    0  503  502  0.00000000000E+00  0.00000000000E+00  0.10839902313E+03  0.10839902313E+03  0.00000000000E+00 0.  1.
         21   -1    0    0  501  503 -0.00000000000E+00 -0.00000000000E+00 -0.28657624472E+03  0.28657624472E+03  0.00000000000E+00 0.  1.
          6    2    1    2  501    0  0.64899704672E+01  0.38540269184E+02 -0.10975443549E+03  0.20586919845E+03  0.16973101866E+03 0.  0.
         24    2    3    3    0    0  0.50256920671E+02 -0.24742350468E+01 -0.18445609373E+02  0.96520548647E+02  0.80275126232E+02 0.  0.
         -6    2    1    2    0  502 -0.64899704672E+01 -0.38540269184E+02 -0.68422786091E+02  0.18910606940E+03  0.17190682290E+03 0.  0.
        -24    2    5    5    0    0  0.20520373688E+02 -0.48543596643E+02  0.24629198151E+02  0.91584856202E+02  0.70736284696E+02 0.  0.
          5    1    3    3  501    0 -0.43766950204E+02  0.41014504231E+02 -0.91308826118E+02  0.10934864981E+03  0.47000000000E+01 0. -1.
        -13    1    4    4    0    0  0.36339577284E+02  0.22302649181E+02  0.21298872670E+02  0.47661462574E+02  0.00000000000E+00 0.  1.
         14    1    4    4    0    0  0.13917343387E+02 -0.24776884228E+02 -0.39744482043E+02  0.48859086073E+02  0.00000000000E+00 0. -1.
         -5    1    5    5    0  502 -0.27010344155E+02  0.10003327458E+02 -0.93051984243E+02  0.97521213195E+02  0.47000000000E+01 0.  1.
         11    1    6    6    0    0 -0.22026050676E+02 -0.35667575400E+02  0.21265157546E+02  0.47005635500E+02  0.00000000000E+00 0. -1.
        -12    1    6    6    0    0  0.42546424364E+02 -0.12876021243E+02  0.33640406048E+01  0.44579220702E+02  0.00000000000E+00 0.  1.
</event>
<event>
12    1  0.8416569E-002  0.1767823E+03  0.7818608E-02  0.1171064E+00
         21   -1    0    0  501  502  0.00000000000E+00  0.00000000000E+00  0.24046597727E+03  0.24046597727E+03  0.00000000000E+00 0.  1.
         21   -1    0    0  502  503 -0.00000000000E+00 -0.00000000000E+00 -0.16292314517E+03  0.16292314517E+03  0.00000000000E+00 0.  1.
         -6    2    1    2    0  503 -0.38085252260E+02 -0.10497483451E+02 -0.52432220687E+02  0.18396831071E+03  0.17185609673E+03 0.  0.
        -24    2    3    3    0    0 -0.37911515148E+02 -0.26644754343E+02  0.32566442414E+02  0.97321745457E+02  0.79143686119E+02 0.  0.
          6    2    1    2  501    0  0.38085252260E+02  0.10497483451E+02  0.12997505278E+03  0.21942081172E+03  0.17231162083E+03 0.  0.
         24    2    5    5    0    0 -0.22330112138E+02  0.54852348715E+02  0.79815566702E+02  0.12911336811E+03  0.82415551139E+02 0.  0.
          5    1    5    5  501    0  0.60415364398E+02 -0.44354865263E+02  0.50159486081E+02  0.90307443612E+02  0.47000000000E+01 0. -1.
        -13    1    6    6    0    0  0.15775677748E+02  0.53100075277E+02  0.21479854569E+02  0.59412744046E+02  0.00000000000E+00 0.  1.
         14    1    6    6    0    0 -0.38105789886E+02  0.17522734384E+01  0.58335712134E+02  0.69700624066E+02  0.00000000000E+00 0. -1.
         -5    1    3    3    0  503 -0.17373711212E+00  0.16147270892E+02 -0.84998663101E+02  0.86646565256E+02  0.47000000000E+01 0.  1.
         11    1    4    4    0    0 -0.61467349386E+02 -0.28887407219E+02  0.26414192802E+02  0.72872676071E+02  0.00000000000E+00 0. -1.
        -12    1    4    4    0    0  0.23555834238E+02  0.22426528755E+01  0.61522496111E+01  0.24449069386E+02  0.00000000000E+00 0.  1.
</event>
<event>
12    1  0.8416569E-002  0.1734029E+03  0.7818608E-02  0.1174626E+00
         21   -1    0    0  503  502  0.00000000000E+00  0.00000000000E+00  0.49974513750E+02  0.49974513750E+02  0.00000000000E+00 0. -1.
         21   -1    0    0  501  503 -0.00000000000E+00 -0.00000000000E+00 -0.18215922625E+04  0.18215922625E+04  0.00000000000E+00 0. -1.
          6    2    1    2  501    0  0.31874654638E+01 -0.11445115770E+02 -0.16518761909E+04  0.16608380179E+04  0.17189188811E+03 0.  0.
         24    2    3    3    0    0  0.41716632926E+02 -0.55615854188E+02 -0.79432619290E+03  0.80127438450E+03  0.79076784410E+02 0.  0.
         -6    2    1    2    0  502 -0.31874654638E+01  0.11445115770E+02 -0.11974155787E+03  0.21072875832E+03  0.17299542853E+03 0.  0.
        -24    2    5    5    0    0  0.28546126773E+02 -0.55712943637E+02 -0.72249791823E+02  0.12244068630E+03  0.76504090084E+02 0.  0.
          5    1    3    3  501    0 -0.38529167463E+02  0.44170738418E+02 -0.85754999799E+03  0.85956363344E+03  0.47000000000E+01 0. -1.
        -11    1    4    4    0    0  0.63785757995E+02 -0.28007652455E+02 -0.49846858825E+03  0.50331300897E+03  0.00000000000E+00 0.  1.
         12    1    4    4    0    0 -0.22069125069E+02 -0.27608201733E+02 -0.29585760465E+03  0.29796137553E+03  0.00000000000E+00 0. -1.
         -5    1    5    5    0  502 -0.31733592237E+02  0.67158059407E+02 -0.47491766049E+02  0.88288072026E+02  0.47000000000E+01 0.  1.
         11    1    6    6    0    0 -0.65889863350E+01  0.42218565820E+01  0.11321678228E+02  0.13762965226E+02  0.00000000000E+00 0. -1.
        -12    1    6    6    0    0  0.35135113108E+02 -0.59934800219E+02 -0.83571470051E+02  0.10867772107E+03  0.00000000000E+00 0.  1.
</event>
<event>
12    1  0.8416569E-002  0.1934332E+03  0.7818608E-02  0.1157913E+00
         21   -1    0    0  503  502  0.00000000000E+00  0.00000000000E+00  0.83463958142E+03  0.83463958142E+03  0.00000000000E+00 0.  1.
         21   -1    0    0  501  503 -0.00000000000E+00 -0.00000000000E+00 -0.42886895855E+02  0.42886895855E+02  0.00000000000E+00 0.  1.
          6    2    1    2  501    0  0.14506192817E+02  0.58689923421E+02  0.35625518377E+03  0.40538151846E+03  0.18374298027E+03 0.  0.
         24    2    3    3    0    0  0.51081513451E+02  0.10426241156E+03  0.23961305334E+03  0.27483619167E+03  0.68121549010E+02 0.  0.
         -6    2    1    2    0  502 -0.14506192817E+02 -0.58689923421E+02  0.43549750179E+03  0.47214495882E+03  0.17206932129E+03 0.  0.
        -24    2    5    5    0    0 -0.27200560982E+02 -0.28520918850E+02  0.95878474486E+02  0.13091997508E+03  0.79962770557E+02 0.  0.
          5    1    3    3  501    0 -0.36575320634E+02 -0.45572488136E+02  0.11664213043E+03  0.13054532679E+03  0.47000000000E+01 0. -1.
        -11    1    4    4    0    0 -0.80350361987E+01  0.60442174177E+02  0.11238827756E+03  0.12786298588E+03  0.00000000000E+00 0.  1.
         12    1    4    4    0    0  0.59116549649E+02  0.43820237380E+02  0.12722477578E+03  0.14697320579E+03  0.00000000000E+00 0. -1.
         -5    1    5    5    0  502  0.12694368165E+02 -0.30169004570E+02  0.33961902730E+03  0.34122498374E+03  0.47000000000E+01 0.  1.
         13    1    6    6    0    0 -0.41606936028E+02  0.14277127971E+02  0.47741979050E+02  0.64917409624E+02  0.00000000000E+00 0. -1.
        -14    1    6    6    0    0  0.14406375046E+02 -0.42798046822E+02  0.48136495437E+02  0.66002565455E+02  0.00000000000E+00 0.  1.
</event>
<event>
12    1  0.8416569E-002  0.1736994E+03  0.7818608E-02  0.1174753E+00
         21   -1    0    0  503  502  0.00000000000E+00  0.00000000000E+00  0.31346965013E+02  0.31346965013E+02  0.00000000000E+00 0. -1.
         21   -1    0    0  501  503 -0.00000000000E+00 -0.00000000000E+00 -0.14307366231E+04  0.14307366231E+04  0.00000000000E+00 0. -1.
          6    2    1    2  501    0 -0.13833915711E+01 -0.18969866660E+01 -0.11284047463E+04  0.11416955582E+04  0.17368351604E+03 0.  0.
         24    2    3    3    0    0 -0.28055982028E+02  0.14142605887E+02 -0.10829390214E+04  0.10863971156E+04  0.80713178944E+02 0.  0.
         -6    2    1    2    0  502  0.13833915711E+01  0.18969866660E+01 -0.27098491180E+03  0.32038802995E+03  0.17090978610E+03 0.  0.
        -24    2    5    5    0    0 -0.57771955319E+02 -0.72299216871E+01 -0.95702380069E+02  0.13510794076E+03  0.75533697888E+02 0.  0.
          5    1    3    3  501    0  0.26672590457E+02 -0.16039592553E+02 -0.45465724866E+02  0.55298442551E+02  0.47000000000E+01 0. -1.
        -11    1    4    4    0    0 -0.39226013524E+02  0.30417786322E+02 -0.38598921394E+03  0.38916782387E+03  0.00000000000E+00 0.  1.
         12    1    4    4    0    0  0.11170031495E+02 -0.16275180436E+02 -0.69694980748E+03  0.69722929173E+03  0.00000000000E+00 0. -1.
         -5    1    5    5    0  502  0.59155346890E+02  0.91269083531E+01 -0.17528253173E+03  0.18528008919E+03  0.47000000000E+01 0.  1.
         13    1    6    6    0    0 -0.47874534423E+02 -0.21345829871E+02 -0.17856225963E+02  0.55375629159E+02  0.00000000000E+00 0. -1.
        -14    1    6    6    0    0 -0.98974208962E+01  0.14115908184E+02 -0.77846154106E+02  0.79732311602E+02  0.00000000000E+00 0.  1.
</event>
<event>
12    1  0.8416569E-002  0.2289747E+03  0.7818608E-02  0.1127482E+00
         21   -1    0    0  501  502  0.00000000000E+00  0.00000000000E+00  0.52403306634E+03  0.52403306634E+03  0.00000000000E+00 0. -1.
         21   -1    0    0  502  503 -0.00000000000E+00 -0.00000000000E+00 -0.11180238929E+03  0.11180238929E+03  0.00000000000E+00 0.  1.
         -6    2    1    2    0  503 -0.33457356571E+02 -0.14778056386E+03  0.31019738281E+03  0.38515594652E+03  0.17077528239E+03 0.  0.
        -24    2    3    3    0    0  0.13287256090E+02 -0.15888387285E+03  0.22642351454E+03  0.28846833983E+03  0.80782045774E+02 0.  0.
          6    2    1    2  501    0  0.33457356571E+02  0.14778056386E+03  0.10203329423E+03  0.25067950911E+03  0.17167100336E+03 0.  0.
         24    2    5    5    0    0  0.84124607096E+01  0.15039855704E+03  0.28488166906E+02  0.17280090839E+03  0.79737587320E+02 0.  0.
          5    1    5    5  501    0  0.25044895862E+02 -0.26179931838E+01  0.73545127323E+02  0.77878600719E+02  0.47000000000E+01 0. -1.
        -11    1    6    6    0    0  0.22205766718E+02  0.13153106914E+03 -0.31943925477E+01  0.13343059008E+03  0.00000000000E+00 0.  1.
         12    1    6    6    0    0 -0.13793306009E+02  0.18867487898E+02  0.31682559454E+02  0.39370318309E+02  0.00000000000E+00 0. -1.
         -5    1    3    3    0  503 -0.46744612661E+02  0.11103308989E+02  0.83773868268E+02  0.96687606693E+02  0.47000000000E+01 0.  1.
         11    1    4    4    0    0 -0.17621828396E+02 -0.14281297713E+03  0.18283260953E+03  0.23266679690E+03  0.00000000000E+00 0. -1.
        -12    1    4    4    0    0  0.30909084486E+02 -0.16070895713E+02  0.43590905019E+02  0.55801542928E+02  0.00000000000E+00 0.  1.
</event>
<event>
12    1  0.8416569E-002  0.3707308E+03  0.7818608E-02  0.1054717E+00
         21   -1    0    0  501  502  0.00000000000E+00  0.00000000000E+00  0.67833848676E+03  0.67833848676E+03  0.00000000000E+00 0.  1.
         21   -1    0    0  502  503 -0.00000000000E+00 -0.00000000000E+00 -0.21508121699E+03  0.21508121699E+03  0.00000000000E+00 0. -1.
         -6    2    1    2    0  503  0.20428122589E+03  0.25173797721E+03  0.11595220484E+03  0.38542152820E+03  0.17321088930E+03 0.  0.
        -24    2    3    3    0    0  0.80728104414E+02  0.17409947171E+03  0.11650945618E+03  0.23942319981E+03  0.83194725422E+02 0.  0.
          6    2    1    2  501    0 -0.20428122589E+03 -0.25173797721E+03  0.34730506494E+03  0.50799817555E+03  0.17982911280E+03 0.  0.
         24    2    5    5    0    0 -0.94670129706E+02 -0.77279930825E+02  0.22518324969E+03  0.26844436090E+03  0.80126511158E+02 0.  0.
          5    1    5    5  501    0 -0.10961109619E+03 -0.17445804638E+03  0.12212181525E+03  0.23955381465E+03  0.47000000000E+01 0. -1.
        -11    1    6    6    0    0 -0.97313941997E+02 -0.86625156650E+02  0.22333450068E+03  0.25855796307E+03  0.00000000000E+00 0.  1.
         12    1    6    6    0    0  0.26438122909E+01  0.93452258247E+01  0.18487490080E+01  0.98863978293E+01  0.00000000000E+00 0. -1.
         -5    1    3    3    0  503  0.12355312148E+03  0.77638505500E+02 -0.55725134134E+00  0.14599832839E+03  0.47000000000E+01 0.  1.
         13    1    4    4    0    0  0.11138400460E+02  0.91584058309E+02  0.19505869800E+02  0.94298370387E+02  0.00000000000E+00 0. -1.
        -14    1    4    4    0    0  0.69589703954E+02  0.82515413398E+02  0.97003586383E+02  0.14512482943E+03  0.00000000000E+00 0.  1.
</event>
<event>
12    1  0.8416569E-002  0.1878663E+03  0.7818608E-02  0.1160488E+00
         21   -1    0    0  501  502  0.00000000000E+00  0.00000000000E+00  0.65238578046E+02  0.65238578046E+02  0.00000000000E+00 0.  1.
         21   -1    0    0  502  503 -0.00000000000E+00 -0.00000000000E+00 -0.69312880429E+03  0.69312880429E+03  0.00000000000E+00 0.  1.
         -6    2    1    2    0  503 -0.44799624801E+02 -0.60859572161E+02 -0.49198470188E+03  0.52649660164E+03  0.17157747739E+03 0.  0.
        -24    2    3    3    0    0 -0.26886807196E+02 -0.10175832122E+03 -0.42831938095E+03  0.44859320121E+03  0.81857875232E+02 0.  0.
          6    2    1    2  501    0  0.44799624801E+02  0.60859572161E+02 -0.13590552437E+03  0.23187078071E+03  0.17199666707E+03 0.  0.
         24    2    5    5    0    0  0.17978476361E+02  0.87814514399E+02 -0.32513537299E+02  0.12160775016E+03  0.75476487993E+02 0.  0.
          5    1    5    5  501    0  0.26821148440E+02 -0.26954942238E+02 -0.10339198707E+03  0.11026303055E+03  0.47000000000E+01 0. -1.
        -13    1    6    6    0    0  0.14682371785E+02  0.40627514151E+02  0.22783730208E+02  0.48839178018E+02  0.00000000000E+00 0.  1.
         14    1    6    6    0    0  0.32961045763E+01  0.47187000247E+02 -0.55297267507E+02  0.72768572141E+02  0.00000000000E+00 0. -1.
         -5    1    3    3    0  503 -0.17912817605E+02  0.40898749056E+02 -0.63665320928E+02  0.77903400424E+02  0.47000000000E+01 0.  1.
         13    1    4    4    0    0  0.19883600413E+02 -0.74806539927E+02 -0.21359375288E+03  0.22718641520E+03  0.00000000000E+00 0. -1.
        -14    1    4    4    0    0 -0.46770407609E+02 -0.26951781290E+02 -0.21472562807E+03  0.22140678601E+03  0.00000000000E+00 0.  1.
</event>
<event>
12    1  0.8416569E-002  0.2674659E+03  0.7818608E-02  0.1102807E+00
         21   -1    0    0  501  502  0.00000000000E+00  0.00000000000E+00  0.29489610402E+03  0.29489610402E+03  0.00000000000E+00 0.  1.
         21   -1    0    0  502  503 -0.00000000000E+00 -0.00000000000E+00 -0.35157693578E+03  0.35157693578E+03  0.00000000000E+00 0.  1.
         -6    2    1    2    0  503 -0.20431501223E+03  0.66219569982E+01 -0.20867866215E+03  0.33924152239E+03  0.17248058423E+03 0.  0.
        -24    2    3    3    0    0 -0.16786667823E+03  0.22571444165E+02 -0.22804450545E+03  0.29474440924E+03  0.78621107583E+02 0.  0.
          6    2    1    2  501    0  0.20431501223E+03 -0.66219569982E+01  0.15199783040E+03  0.30723151741E+03  0.17175386548E+03 0.  0.
         24    2    5    5    0    0  0.11730111600E+03 -0.66446400799E+02  0.62291406168E+02  0.16859633154E+03  0.79811200546E+02 0.  0.
          5    1    5    5  501    0  0.87013896233E+02  0.59824443801E+02  0.89706424228E+02  0.13863518587E+03  0.47000000000E+01 0. -1.
        -11    1    6    6    0    0  0.65159802546E+02 -0.26170995648E+02  0.73627298252E+02  0.10174330410E+03  0.00000000000E+00 0.  1.
         12    1    6    6    0    0  0.52141313455E+02 -0.40275405151E+02 -0.11335892084E+02  0.66853027443E+02  0.00000000000E+00 0. -1.
         -5    1    3    3    0  503 -0.36448334000E+02 -0.15949487167E+02  0.19365843296E+02  0.44497113152E+02  0.47000000000E+01 0.  1.
         11    1    4    4    0    0 -0.78864378698E+01  0.25480458684E+02 -0.35142967377E+02  0.44118905620E+02  0.00000000000E+00 0. -1.
        -12    1    4    4    0    0 -0.15998024036E+03 -0.29090145189E+01 -0.19290153807E+03  0.25062550362E+03  0.00000000000E+00 0.  1.
</event>
<event>
12    1  0.8416569E-002  0.2013451E+03  0.7818608E-02  0.1148723E+00
         21   -1    0    0  501  502  0.00000000000E+00  0.00000000000E+00  0.26574691385E+03  0.26574691385E+03  0.00000000000E+00 0. -1.
         21   -1    0    0  502  503 -0.00000000000E+00 -0.00000000000E+00 -0.20707368870E+03  0.20707368870E+03  0.00000000000E+00 0.  1.
         -6    2    1    2    0  503 -0.39883458454E+02 -0.96542433860E+02 -0.92402220029E+02  0.22153561408E+03  0.17212996906E+03 0.  0.
        -24    2    3    3    0    0  0.44876016550E+01  0.14054367165E+02 -0.24157340378E+02  0.84131476698E+02  0.79226665159E+02 0.  0.
          6    2    1    2  501    0  0.39883458454E+02  0.96542433860E+02  0.15107544517E+03  0.25128498847E+03  0.17149117616E+03 0.  0.
         24    2    5    5    0    0  0.38855127039E+02  0.63575300841E+01  0.13107466460E+03  0.15878366113E+03  0.80508038467E+02 0.  0.
          5    1    5    5  501    0  0.10283314143E+01  0.90184903776E+02  0.20000780576E+02  0.92501327333E+02  0.47000000000E+01 0. -1.
        -13    1    6    6    0    0  0.47550085388E+02 -0.19591878777E+02  0.44572710306E+02  0.68055703937E+02  0.00000000000E+00 0.  1.
         14    1    6    6    0    0 -0.86949583481E+01  0.25949408861E+02  0.86501954292E+02  0.90727957197E+02  0.00000000000E+00 0. -1.
         -5    1    3    3    0  503 -0.44371060109E+02 -0.11059680103E+03 -0.68244879651E+02  0.13740413739E+03  0.47000000000E+01 0.  1.
         11    1    4    4    0    0  0.25640940821E+02  0.34254449002E+02 -0.32482242168E+02  0.53720770460E+02  0.00000000000E+00 0. -1.
        -12    1    4    4    0    0 -0.21153339166E+02 -0.20200081837E+02  0.83249017898E+01  0.30410706238E+02  0.00000000000E+00 0.  1.
</event>
<event>
12    1  0.8416569E-002  0.2710833E+03  0.7818608E-02  0.1100755E+00
         21   -1    0    0  501  502  0.00000000000E+00  0.00000000000E+00  0.22833306658E+03  0.22833306658E+03  0.00000000000E+00 0.  1.
         21   -1    0    0  502  503 -0.00000000000E+00 -0.00000000000E+00 -0.63292870347E+03  0.63292870347E+03  0.00000000000E+00 0. -1.
         -6    2    1    2    0  503  0.17119268920E+03  0.11953640231E+03 -0.50470738686E+03  0.57290110954E+03  0.17288795980E+03 0.  0.
        -24    2    3    3    0    0  0.21566410762E+02  0.19581273816E+02 -0.22143063048E+03  0.23727205594E+03  0.80112221657E+02 0.  0.
          6    2    1    2  501    0 -0.17119268920E+03 -0.11953640231E+03  0.10011174996E+03  0.28836066052E+03  0.17185348335E+03 0.  0.
         24    2    5    5    0    0 -0.13487044931E+03 -0.34601596728E+02  0.11119645976E+03  0.19520387278E+03  0.79703141047E+02 0.  0.
          5    1    5    5  501    0 -0.36322239887E+02 -0.84934805579E+02 -0.11084709797E+02  0.93156787731E+02  0.47000000000E+01 0. -1.
        -13    1    6    6    0    0 -0.11182146288E+03 -0.27998034728E+02  0.43196962157E+02  0.12310120653E+03  0.00000000000E+00 0.  1.
         14    1    6    6    0    0 -0.23048986431E+02 -0.66035620002E+01  0.67999497604E+02  0.72102666254E+02  0.00000000000E+00 0. -1.
         -5    1    3    3    0  503  0.14962627844E+03  0.99955128492E+02 -0.28327675638E+03  0.33562905359E+03  0.47000000000E+01 0.  1.
         11    1    4    4    0    0  0.50005362465E+02  0.25191072539E+02 -0.13682131977E+03  0.14783504305E+03  0.00000000000E+00 0. -1.
        -12    1    4    4    0    0 -0.28438951703E+02 -0.56097987233E+01 -0.84609310713E+02  0.89437012892E+02  0.00000000000E+00 0.  1.
</event>
<event>
12    1  0.8416569E-002  0.2243270E+03  0.7818608E-02  0.1130786E+00
         21   -1    0    0  503  502  0.00000000000E+00  0.00000000000E+00  0.33167483324E+03  0.33167483324E+03  0.00000000000E+00 0.  1.
         21   -1    0    0  501  503 -0.00000000000E+00 -0.00000000000E+00 -0.16315542150E+03  0.16315542150E+03  0.00000000000E+00 0.  1.
          6    2    1    2  501    0  0.12350969221E+03 -0.82274417779E+02  0.17745640748E+02  0.22454276779E+03  0.16757333591E+03 0.  0.
         24    2    3    3    0    0  0.70182347232E+01 -0.66161024631E+02 -0.33089134711E+01  0.10497987488E+03  0.81137466211E+02 0.  0.
         -6    2    1    2    0  502 -0.12350969221E+03  0.82274417779E+02  0.15077377100E+03  0.27028748695E+03  0.16822268483E+03 0.  0.
        -24    2    5    5    0    0 -0.51299642986E+02  0.16233217679E+02  0.87349934710E+01  0.97739419327E+02  0.81126587828E+02 0.  0.
          5    1    3    3  501    0  0.11649145749E+03 -0.16113393148E+02  0.21054554219E+02  0.11956289291E+03  0.47000000000E+01 0. -1.
        -11    1    4    4    0    0  0.34362595172E+02 -0.57089402355E+01  0.12081791783E+02  0.36869359070E+02  0.00000000000E+00 0.  1.
         12    1    4    4    0    0 -0.27344360448E+02 -0.60452084395E+02 -0.15390705254E+02  0.68110515813E+02  0.00000000000E+00 0. -1.
         -5    1    5    5    0  502 -0.72210049227E+02  0.66041200100E+02  0.14203877752E+03  0.17254806762E+03  0.47000000000E+01 0.  1.
         11    1    6    6    0    0 -0.68356301610E+02  0.68679398801E+01  0.24247754883E+02  0.72854005963E+02  0.00000000000E+00 0. -1.
        -12    1    6    6    0    0  0.17056658623E+02  0.93652777989E+01 -0.15512761412E+02  0.24885413364E+02  0.00000000000E+00 0.  1.
</event>
<event>
12    1  0.8416569E-002  0.1714348E+03  0.7818608E-02  0.1176510E+00
         21   -1    0    0  501  502  0.00000000000E+00  0.00000000000E+00  0.67931247041E+02  0.67931247041E+02  0.00000000000E+00 0.  1.
         21   -1    0    0  502  503 -0.00000000000E+00 -0.00000000000E+00 -0.48522879111E+03  0.48522879111E+03  0.00000000000E+00 0.  1.
         -6    2    1    2    0  503 -0.10638067024E+01  0.56737690235E+01 -0.30064604349E+03  0.34580170189E+03  0.17075552764E+03 0.  0.
        -24    2    3    3    0    0  0.22086216800E+02 -0.40419765282E+02 -0.85545526814E+02  0.12455328998E+03  0.77935399468E+02 0.  0.
          6    2    1    2  501    0  0.10638067024E+01 -0.56737690235E+01 -0.11665150058E+03  0.20735833627E+03  0.17133763070E+03 0.  0.
         24    2    5    5    0    0  0.25075115516E+02  0.54164525774E+02 -0.39973776741E+02  0.10706512709E+03  0.79388168768E+02 0.  0.
          5    1    5    5  501    0 -0.24011308814E+02 -0.59838294797E+02 -0.76677723838E+02  0.10029320918E+03  0.47000000000E+01 0. -1.
        -13    1    6    6    0    0 -0.17317901610E+02  0.38964634291E+02  0.55851883300E+01  0.43004032024E+02  0.00000000000E+00 0.  1.
         14    1    6    6    0    0  0.42393017126E+02  0.15199891482E+02 -0.45558965071E+02  0.64061095062E+02  0.00000000000E+00 0. -1.
         -5    1    3    3    0  503 -0.23150023502E+02  0.46093534305E+02 -0.21510051668E+03  0.22124841190E+03  0.47000000000E+01 0.  1.
         11    1    4    4    0    0 -0.27749927117E+01  0.18074665120E+02 -0.38628173203E+00  0.18290525343E+02  0.00000000000E+00 0. -1.
        -12    1    4    4    0    0  0.24861209511E+02 -0.58494430402E+02 -0.85159245082E+02  0.10626276464E+03  0.00000000000E+00 0.  1.
</event>
<event>
12    1  0.8416569E-002  0.2121979E+03  0.7818608E-02  0.1140271E+00
         21   -1    0    0  501  502  0.00000000000E+00  0.00000000000E+00  0.34685968118E+04  0.34685968118E+04  0.00000000000E+00 0.  1.
         21   -1    0    0  502  503 -0.00000000000E+00 -0.00000000000E+00 -0.17979254749E+02  0.17979254749E+02  0.00000000000E+00 0.  1.
         -6    2    1    2    0  503  0.11890356272E+03 -0.35417976013E+02  0.78746910679E+03  0.81498709699E+03  0.16942220590E+03 0.  0.
        -24    2    3    3    0    0  0.12189638009E+03 -0.72124577844E+02  0.71798244080E+03  0.73620373374E+03  0.80227614126E+02 0.  0.
          6    2    1    2  501    0 -0.11890356272E+03  0.35417976013E+02  0.26631484502E+04  0.26715889695E+04  0.17214953940E+03 0.  0.
         24    2    5    5    0    0 -0.12426808397E+03  0.89979757640E+01  0.25761652055E+04  0.25804025156E+04  0.79539026154E+02 0.  0.
          5    1    5    5  501    0  0.53645212416E+01  0.26420000249E+02  0.86983244761E+02  0.91186453876E+02  0.47000000000E+01 0. -1.
        -11    1    6    6    0    0 -0.58514291538E+01 -0.10238095734E+02  0.84635777306E+03  0.84643991981E+03  0.00000000000E+00 0.  1.
         12    1    6    6    0    0 -0.11841665481E+03  0.19236071498E+02  0.17298074324E+04  0.17339625958E+04  0.00000000000E+00 0. -1.
         -5    1    3    3    0  503 -0.29928173667E+01  0.36706601832E+02  0.69486665998E+02  0.78783363253E+02  0.47000000000E+01 0.  1.
         13    1    4    4    0    0 -0.46840970912E+01 -0.68246805645E+01  0.16385567700E+03  0.16406462116E+03  0.00000000000E+00 0. -1.
        -14    1    4    4    0    0  0.12658047718E+03 -0.65299897280E+02  0.55412676380E+03  0.57213911258E+03  0.00000000000E+00 0.  1.
</event>
<event>
12    1  0.8416569E-002  0.1822644E+03  0.7818608E-02  0.1168172E+00
         21   -1    0    0  501  502  0.00000000000E+00  0.00000000000E+00  0.84187605931E+03  0.84187605931E+03  0.00000000000E+00 0. -1.
         21   -1    0    0  502  503 -0.00000000000E+00 -0.00000000000E+00 -0.37338414188E+02  0.37338414188E+02  0.00000000000E+00 0. -1.
         -6    2    1    2    0  503 -0.54265938988E+02 -0.27955899717E+02  0.41191080274E+03  0.44634482557E+03  0.16070740319E+03 0.  0.
        -24    2    3    3    0    0  0.27480147378E+02 -0.38478060430E+02  0.23688310426E+03  0.25282499781E+03  0.74640168808E+02 0.  0.
          6    2    1    2  501    0  0.54265938988E+02  0.27955899717E+02  0.39262684238E+03  0.43286964792E+03  0.17173808626E+03 0.  0.
         24    2    5    5    0    0  0.28309691512E+02 -0.43755329831E+02  0.28837914910E+03  0.30361834704E+03  0.79407805024E+02 0.  0.
          5    1    5    5  501    0  0.25956247477E+02  0.71711229548E+02  0.10424769328E+03  0.12925130088E+03  0.47000000000E+01 0. -1.
        -13    1    6    6    0    0 -0.13968759345E+02 -0.21274601469E+02  0.24148341802E+02  0.35083861205E+02  0.00000000000E+00 0.  1.
         14    1    6    6    0    0  0.42278450857E+02 -0.22480728362E+02  0.26423080730E+03  0.26853448583E+03  0.00000000000E+00 0. -1.
         -5    1    3    3    0  503 -0.81746086367E+02  0.10522160713E+02  0.17502769848E+03  0.19351982777E+03  0.47000000000E+01 0.  1.
         13    1    4    4    0    0 -0.64034309673E+01 -0.28807996824E+02  0.26981413893E+02  0.39986263952E+02  0.00000000000E+00 0. -1.
        -14    1    4    4    0    0  0.33883578346E+02 -0.96700636057E+01  0.20990169036E+03  0.21283873385E+03  0.00000000000E+00 0.  1.
</event>
<event>
12    1  0.8416569E-002  0.2076494E+03  0.7818608E-02  0.1143704E+00
         21   -1    0    0  501  502  0.00000000000E+00  0.00000000000E+00  0.41254144472E+03  0.41254144472E+03  0.00000000000E+00 0.  1.
         21   -1    0    0  502  503 -0.00000000000E+00 -0.00000000000E+00 -0.11666018340E+03  0.11666018340E+03  0.00000000000E+00 0.  1.
         -6    2    1    2    0  503 -0.48873711095E+02 -0.10428284951E+03  0.59889012710E+02  0.21486007567E+03  0.17121508677E+03 0.  0.
        -24    2    3    3    0    0 -0.33188833506E+02 -0.13642927705E+03  0.73043892794E+02  0.17646021814E+03  0.78027892474E+02 0.  0.
          6    2    1    2  501    0  0.48873711095E+02  0.10428284951E+03  0.23599224861E+03  0.31434155245E+03  0.17278517833E+03 0.  0.
         24    2    5    5    0    0  0.92313392969E+02  0.10729003059E+03  0.16163578551E+03  0.22804541867E+03  0.76456998604E+02 0.  0.
          5    1    5    5  501    0 -0.43439681874E+02 -0.30071810774E+01  0.74356463100E+02  0.86296133773E+02  0.47000000000E+01 0. -1.
        -11    1    6    6    0    0 -0.32439039377E+01  0.24194660156E+02  0.62894130800E+02  0.67465370242E+02  0.00000000000E+00 0.  1.
         12    1    6    6    0    0  0.95557296907E+02  0.83095370430E+02  0.98741654711E+02  0.16058004843E+03  0.00000000000E+00 0. -1.
         -5    1    3    3    0  503 -0.15684877589E+02  0.32146427542E+02 -0.13154880084E+02  0.38399857535E+02  0.47000000000E+01 0.  1.
         11    1    4    4    0    0 -0.58847351191E+02 -0.88927195071E+02  0.47639607604E+02  0.11679293205E+03  0.00000000000E+00 0. -1.
        -12    1    4    4    0    0  0.25658517685E+02 -0.47502081980E+02  0.25404285190E+02  0.59667286081E+02  0.00000000000E+00 0.  1.
</event>
<event>
12    1  0.8416569E-002  0.1892289E+03  0.7818608E-02  0.1160328E+00
         21   -1    0    0  503  502  0.00000000000E+00  0.00000000000E+00  0.36961012343E+03  0.36961012343E+03  0.00000000000E+00 0.  1.
         21   -1    0    0  501  503 -0.00000000000E+00 -0.00000000000E+00 -0.14251645635E+03  0.14251645635E+03  0.00000000000E+00 0. -1.
          6    2    1    2  501    0 -0.70294747625E+02  0.22584761560E+02 -0.36414430142E+02  0.18771312006E+03  0.16869730799E+03 0.  0.
         24    2    3    3    0    0 -0.65433464533E+02 -0.93174859244E+01 -0.81908911591E+02  0.13173791742E+03  0.79230393564E+02 0.  0.
         -6    2    1    2    0  502  0.70294747625E+02 -0.22584761560E+02  0.26350809722E+03  0.32441345971E+03  0.17423017117E+03 0.  0.
        -24    2    5    5    0    0  0.75657131467E+02 -0.76001220104E+02  0.18175752919E+03  0.22649860601E+03  0.82253462574E+02 0.  0.
          5    1    3    3  501    0 -0.48612830922E+01  0.31902247485E+02  0.45494481449E+02  0.55975202636E+02  0.47000000000E+01 0. -1.
        -13    1    4    4    0    0  0.58655163675E+01  0.22325050592E+02 -0.84275602800E+01  0.24573073444E+02  0.00000000000E+00 0.  1.
         14    1    4    4    0    0 -0.71298980900E+02 -0.31642536517E+02 -0.73481351311E+02  0.10716484398E+03  0.00000000000E+00 0. -1.
         -5    1    5    5    0  502 -0.53623838420E+01  0.53416458543E+02  0.81750568027E+02  0.97914853707E+02  0.47000000000E+01 0.  1.
         11    1    6    6    0    0  0.55340627330E+02  0.15106809407E+00  0.61705203490E+02  0.82886307631E+02  0.00000000000E+00 0. -1.
        -12    1    6    6    0    0  0.20316504137E+02 -0.76152288198E+02  0.12005232570E+03  0.14361229838E+03  0.00000000000E+00 0.  1.
</event>
<event>
12    1  0.8416569E-002  0.2144516E+03  0.7818608E-02  0.1139959E+00
         21   -1    0    0  501  502  0.00000000000E+00  0.00000000000E+00  0.12332589410E+03  0.12332589410E+03  0.00000000000E+00 0. -1.
         21   -1    0    0  502  503 -0.00000000000E+00 -0.00000000000E+00 -0.81705473293E+03  0.81705473293E+03  0.00000000000E+00 0.  1.
         -6    2    1    2    0  503 -0.11093725030E+03  0.60787281398E+02 -0.70321144497E+03  0.73518420384E+03  0.17316844442E+03 0.  0.
        -24    2    3    3    0    0 -0.93182785187E+02 -0.22122247625E+02 -0.49496575757E+03  0.51028963441E+03  0.78942919414E+02 0.  0.
          6    2    1    2  501    0  0.11093725030E+03 -0.60787281398E+02  0.94826061382E+01  0.20519642320E+03  0.16128696534E+03 0.  0.
         24    2    5    5    0    0  0.44732379369E+02 -0.92633185266E+02 -0.56139352971E+01  0.13004828888E+03  0.79367174532E+02 0.  0.
          5    1    5    5  501    0  0.66204870934E+02  0.31845903868E+02  0.15096541435E+02  0.75148134321E+02  0.47000000000E+01 0. -1.
        -13    1    6    6    0    0  0.51530141465E+02 -0.18161041144E+02 -0.80513269022E+01  0.55226830071E+02  0.00000000000E+00 0.  1.
         14    1    6    6    0    0 -0.67977620959E+01 -0.74472144122E+02  0.24373916052E+01  0.74821458804E+02  0.00000000000E+00 0. -1.
         -5    1    3    3    0  503 -0.17754465116E+02  0.82909529023E+02 -0.20824568740E+03  0.22489456942E+03  0.47000000000E+01 0.  1.
         13    1    4    4    0    0 -0.86929329400E+02 -0.44967209498E+02 -0.35104502138E+03  0.36443293660E+03  0.00000000000E+00 0. -1.
        -14    1    4    4    0    0 -0.62534557875E+01  0.22844961873E+02 -0.14392073619E+03  0.14585669781E+03  0.00000000000E+00 0.  1.
</event>
<event>
12    1  0.8416569E-002  0.2370744E+03  0.7818608E-02  0.1121866E+00
         21   -1    0    0  501  502  0.00000000000E+00  0.00000000000E+00  0.56355402131E+03  0.56355402131E+03  0.00000000000E+00 0.  1.
         21   -1    0    0  502  503 -0.00000000000E+00 -0.00000000000E+00 -0.13220359416E+03  0.13220359416E+03  0.00000000000E+00 0.  1.
         -6    2    1    2    0  503 -0.70580206383E+02 -0.14242237265E+03  0.42328787214E+02  0.24018972510E+03  0.17502479840E+03 0.  0.
        -24    2    3    3    0    0  0.17926528473E+02 -0.53473355601E+02 -0.22264570548E+02  0.98981504326E+02  0.78235969443E+02 0.  0.
          6    2    1    2  501    0  0.70580206383E+02  0.14242237265E+03  0.38902163993E+03  0.45556789037E+03  0.17589362875E+03 0.  0.
         24    2    5    5    0    0  0.11239860571E+03  0.73216211590E+02  0.24294636092E+03  0.28853990353E+03  0.78982792036E+02 0.  0.
          5    1    5    5  501    0 -0.41818399325E+02  0.69206161056E+02  0.14607527901E+03  0.16702798684E+03  0.47000000000E+01 0. -1.
        -11    1    6    6    0    0  0.61865327073E+02  0.89425986529E+01  0.16132523594E+03  0.17301190860E+03  0.00000000000E+00 0.  1.
         12    1    6    6    0    0  0.50533278635E+02  0.64273612937E+02  0.81621124976E+02  0.11552799493E+03  0.00000000000E+00 0. -1.
         -5    1    3    3    0  503 -0.88506734856E+02 -0.88949017045E+02  0.64593357761E+02  0.14120822078E+03  0.47000000000E+01 0.  1.
         11    1    4    4    0    0  0.44710476183E+02 -0.46731653980E+02 -0.19656061012E+01  0.64705005770E+02  0.00000000000E+00 0. -1.
        -12    1    4    4    0    0 -0.26783947711E+02 -0.67417016205E+01 -0.20298964447E+02  0.34276498557E+02  0.00000000000E+00 0.  1.
</event>
<event>
12    1  0.8416569E-002  0.2827988E+03  0.7818608E-02  0.1094205E+00
         21   -1    0    0  503  502  0.00000000000E+00  0.00000000000E+00  0.14272830825E+03  0.14272830825E+03  0.00000000000E+00 0.  1.
         21   -1    0    0  501  503 -0.00000000000E+00 -0.00000000000E+00 -0.67756484568E+03  0.67756484568E+03  0.00000000000E+00 0.  1.
          6    2    1    2  501    0  0.69814896709E+02 -0.21348152937E+03 -0.96338585150E+02  0.29851197611E+03  0.17140534913E+03 0.  0.
         24    2    3    3    0    0 -0.94817673611E+01 -0.13257863306E+03 -0.98955162083E+02  0.18510044214E+03  0.82480614216E+02 0.  0.
         -6    2    1    2    0  502 -0.69814896709E+02  0.21348152937E+03 -0.43849795227E+03  0.52178117782E+03  0.17183323368E+03 0.  0.
        -24    2    5    5    0    0 -0.10704930732E+03  0.12094325728E+03 -0.32350922592E+03  0.36948465677E+03  0.75985963545E+02 0.  0.
          5    1    3    3  501    0  0.79296664070E+02 -0.80902896301E+02  0.26165769333E+01  0.11341153397E+03  0.47000000000E+01 0. -1.
        -11    1    4    4    0    0 -0.30842708814E+02 -0.38622199015E+02 -0.67662440315E+02  0.83792319297E+02  0.00000000000E+00 0.  1.
         12    1    4    4    0    0  0.21360941453E+02 -0.93956434049E+02 -0.31292721768E+02  0.10130812285E+03  0.00000000000E+00 0. -1.
         -5    1    5    5    0  502  0.37234410614E+02  0.92538272088E+02 -0.11498872636E+03  0.15229652105E+03  0.47000000000E+01 0.  1.
         11    1    6    6    0    0 -0.11739729641E+03  0.11423709641E+03 -0.28137135686E+03  0.32557960603E+03  0.00000000000E+00 0. -1.
        -12    1    6    6    0    0  0.10347989090E+02  0.67061608642E+01 -0.42137869056E+02  0.43905050739E+02  0.00000000000E+00 0.  1.
</event>
<event>
12    1  0.8416569E-002  0.1999995E+03  0.7818608E-02  0.1150032E+00
         21   -1    0    0  503  502  0.00000000000E+00  0.00000000000E+00  0.10104830641E+03  0.10104830641E+03  0.00000000000E+00 0.  1.
         21   -1    0    0  501  503 -0.00000000000E+00 -0.00000000000E+00 -0.43207285767E+03  0.43207285767E+03  0.00000000000E+00 0.  1.
          6    2    1    2  501    0  0.98653907713E+02  0.13793600991E+02 -0.85998138473E+02  0.21770501997E+03  0.17342704220E+03 0.  0.
         24    2    3    3    0    0  0.49226478261E+02  0.65136883942E+02 -0.13649276111E+02  0.11604061434E+03  0.81320733072E+02 0.  0.
         -6    2    1    2    0  502 -0.98653907713E+02 -0.13793600991E+02 -0.24502641279E+03  0.31541614410E+03  0.17183289574E+03 0.  0.
        -24    2    5    5    0    0  0.14151339891E+02 -0.20286785260E+02 -0.12736727011E+03  0.15222009885E+03  0.79603535868E+02 0.  0.
          5    1    3    3  501    0  0.49427429452E+02 -0.51343282951E+02 -0.72348862362E+02  0.10166440563E+03  0.47000000000E+01 0. -1.
        -11    1    4    4    0    0  0.61035915039E+02  0.71490869188E+02 -0.26292992955E+02  0.97609675650E+02  0.00000000000E+00 0.  1.
         12    1    4    4    0    0 -0.11809436778E+02 -0.63539852460E+01  0.12643716845E+02  0.18430938695E+02  0.00000000000E+00 0. -1.
         -5    1    5    5    0  502 -0.11280524760E+03  0.64931842692E+01 -0.11765914269E+03  0.16319604525E+03  0.47000000000E+01 0.  1.
         11    1    6    6    0    0  0.18299797606E+02  0.24686806620E+02 -0.84645951019E+02  0.90051418853E+02  0.00000000000E+00 0. -1.
        -12    1    6    6    0    0 -0.41484577158E+01 -0.44973591880E+02 -0.42721319086E+02  0.62168679996E+02  0.00000000000E+00 0.  1.
</event>
<event>
12    1  0.8416569E-002  0.3036488E+03  0.7818608E-02  0.1083673E+00
         21   -1    0    0  501  502  0.00000000000E+00  0.00000000000E+00  0.20501339550E+03  0.20501339550E+03  0.00000000000E+00 0. -1.
         21   -1    0    0  502  503 -0.00000000000E+00 -0.00000000000E+00 -0.71247210146E+03  0.71247210146E+03  0.00000000000E+00 0. -1.
         -6    2    1    2    0  503 -0.23880884790E+03 -0.71209258150E+02 -0.53332304072E+03  0.61273714291E+03  0.17003798475E+03 0.  0.
        -24    2    3    3    0    0 -0.81097426297E+02  0.11294598656E+02 -0.13496501034E+03  0.17639898361E+03  0.78719037674E+02 0.  0.
          6    2    1    2  501    0  0.23880884790E+03  0.71209258150E+02  0.25864334765E+02  0.30474835405E+03  0.17349977291E+03 0.  0.
         24    2    5    5    0    0  0.95749720016E+02 -0.72358446025E+00 -0.41301544462E+02  0.13104287558E+03  0.79359216277E+02 0.  0.
          5    1    5    5  501    0  0.14305912788E+03  0.71932842610E+02  0.67165879227E+02  0.17370547846E+03  0.47000000000E+01 0. -1.
        -11    1    6    6    0    0  0.87484962751E+02  0.50385965557E+01 -0.62457629390E+02  0.10761023014E+03  0.00000000000E+00 0.  1.
         12    1    6    6    0    0  0.82647572652E+01 -0.57621810159E+01  0.21156084928E+02  0.23432645437E+02  0.00000000000E+00 0. -1.
         -5    1    3    3    0  503 -0.15771142160E+03 -0.82503856806E+02 -0.39835803038E+03  0.43633815930E+03  0.47000000000E+01 0.  1.
         11    1    4    4    0    0 -0.33128957490E+02 -0.31278355417E+02 -0.34261587329E+02  0.57006312880E+02  0.00000000000E+00 0. -1.
        -12    1    4    4    0    0 -0.47968468808E+02  0.42572954072E+02 -0.10070342301E+03  0.11939267073E+03  0.00000000000E+00 0.  1.
</event>
<event>
12    1  0.8416569E-002  0.1790982E+03  0.7818608E-02  0.1169231E+00
         21   -1    0    0  503  502  0.00000000000E+00  0.00000000000E+00  0.13156935345E+03  0.13156935345E+03  0.00000000000E+00 0. -1.
         21   -1    0    0  501  503 -0.00000000000E+00 -0.00000000000E+00 -0.83525456519E+03  0.83525456519E+03  0.00000000000E+00 0. -1.
          6    2    1    2  501    0 -0.42212458233E+02  0.32951650023E+02 -0.76032046729E+03  0.78112956097E+03  0.17090487167E+03 0.  0.
         24    2    3    3    0    0 -0.76291786858E+01  0.31945381494E+02 -0.18418694124E+03  0.20393899829E+03  0.81163870865E+02 0.  0.
         -6    2    1    2    0  502  0.42212458233E+02 -0.32951650023E+02  0.56635255560E+02  0.18569435767E+03  0.16854417649E+03 0.  0.
        -24    2    5    5    0    0  0.86226967898E+02 -0.26811634703E+02  0.65303089586E+02  0.14017295396E+03  0.85029464094E+02 0.  0.
          5    1    3    3  501    0 -0.34583279547E+02  0.10062685283E+01 -0.57613352606E+03  0.57719056268E+03  0.47000000000E+01 0. -1.
        -11    1    4    4    0    0  0.10485010154E+02 -0.23097494778E+02 -0.88597099397E+02  0.92156799665E+02  0.00000000000E+00 0.  1.
         12    1    4    4    0    0 -0.18114188840E+02  0.55042876273E+02 -0.95589841842E+02  0.11178219862E+03  0.00000000000E+00 0. -1.
         -5    1    5    5    0  502 -0.44014509665E+02 -0.61400153197E+01 -0.86678340257E+01  0.45521403712E+02  0.47000000000E+01 0.  1.
         13    1    6    6    0    0  0.75997884548E+02 -0.53274308593E+02  0.36460633879E+02  0.99715636862E+02  0.00000000000E+00 0. -1.
        -14    1    6    6    0    0  0.10229083350E+02  0.26462673890E+02  0.28842455707E+02  0.40457317098E+02  0.00000000000E+00 0.  1.
</event>
<event>
12    1  0.8416569E-002  0.2683800E+03  0.7818608E-02  0.1102401E+00
         21   -1    0    0  501  502  0.00000000000E+00  0.00000000000E+00  0.23922430867E+03  0.23922430867E+03  0.00000000000E+00 0. -1.
         21   -1    0    0  502  503 -0.00000000000E+00 -0.00000000000E+00 -0.39243260712E+03  0.39243260712E+03  0.00000000000E+00 0. -1.
         -6    2    1    2    0  503 -0.19652829199E+03  0.50594789459E+02 -0.23034706229E+03  0.35367723304E+03  0.17562634709E+03 0.  0.
        -24    2    3    3    0    0 -0.73777068198E+02  0.65015615854E+02 -0.17987263658E+03  0.22008988024E+03  0.80095592261E+02 0.  0.
          6    2    1    2  501    0  0.19652829199E+03 -0.50594789459E+02  0.77138763838E+02  0.27797968275E+03  0.17360620053E+03 0.  0.
         24    2    5    5    0    0  0.15104143002E+03  0.28751032981E+02  0.31706639510E+02  0.17574963789E+03  0.79009421910E+02 0.  0.
          5    1    5    5  501    0  0.45486861970E+02 -0.79345822440E+02  0.45432124327E+02  0.10223004486E+03  0.47000000000E+01 0. -1.
        -13    1    6    6    0    0  0.11614842990E+03  0.20639567654E+02 -0.12750851026E+02  0.11865510407E+03  0.00000000000E+00 0.  1.
         14    1    6    6    0    0  0.34893000120E+02  0.81114653275E+01  0.44457490537E+02  0.57094533818E+02  0.00000000000E+00 0. -1.
         -5    1    3    3    0  503 -0.12275122379E+03 -0.14420826395E+02 -0.50474425715E+02  0.13358735279E+03  0.47000000000E+01 0.  1.
         13    1    4    4    0    0 -0.62221933684E+02  0.48469151993E+02 -0.61516887310E+02  0.10002577243E+03  0.00000000000E+00 0. -1.
        -14    1    4    4    0    0 -0.11555134514E+02  0.16546463860E+02 -0.11835574927E+03  0.12006410781E+03  0.00000000000E+00 0.  1.
</event>
<event>
12    1  0.8416569E-002  0.2075323E+03  0.7818608E-02  0.1143719E+00
         21   -1    0    0  501  502  0.00000000000E+00  0.00000000000E+00  0.40596799343E+03  0.40596799343E+03  0.00000000000E+00 0.  1.
         21   -1    0    0  502  503 -0.00000000000E+00 -0.00000000000E+00 -0.17610945042E+03  0.17610945042E+03  0.00000000000E+00 0.  1.
         -6    2    1    2    0  503  0.11362656463E+03  0.23023759322E+02 -0.69040133551E+02  0.21871485151E+03  0.17212947611E+03 0.  0.
        -24    2    3    3    0    0  0.11344394797E+03  0.70886056002E+01 -0.10869313689E+03  0.17572167592E+03  0.78384512002E+02 0.  0.
          6    2    1    2  501    0 -0.11362656463E+03 -0.23023759322E+02  0.29889867656E+03  0.36336259234E+03  0.17102884253E+03 0.  0.
         24    2    5    5    0    0 -0.90264060972E+02 -0.78615667520E+02  0.23558577311E+03  0.27580186725E+03  0.78980944569E+02 0.  0.
          5    1    5    5  501    0 -0.23362503659E+02  0.55591908198E+02  0.63312903449E+02  0.87560725085E+02  0.47000000000E+01 0. -1.
        -13    1    6    6    0    0 -0.72528159860E+02 -0.32634580426E+02  0.19935531870E+03  0.21463432369E+03  0.00000000000E+00 0.  1.
         14    1    6    6    0    0 -0.17735901112E+02 -0.45981087094E+02  0.36230454411E+02  0.61167543562E+02  0.00000000000E+00 0. -1.
         -5    1    3    3    0  503  0.18261666465E+00  0.15935153722E+02  0.39653003340E+02  0.42993175585E+02  0.47000000000E+01 0.  1.
         11    1    4    4    0    0  0.13622204871E+02 -0.13759520792E+02  0.78231884328E+01  0.20882795676E+02  0.00000000000E+00 0. -1.
        -12    1    4    4    0    0  0.99821743095E+02  0.20848126392E+02 -0.11651632532E+03  0.15483888025E+03  0.00000000000E+00 0.  1.
</event>
<event>
12    1  0.8416569E-002  0.1842482E+03  0.7818608E-02  0.1163920E+00
         21   -1    0    0  501  502  0.00000000000E+00  0.00000000000E+00  0.35772685769E+03  0.35772685769E+03  0.00000000000E+00 0. -1.
         21   -1    0    0  502  503 -0.00000000000E+00 -0.00000000000E+00 -0.15538382217E+03  0.15538382217E+03  0.00000000000E+00 0.  1.
         -6    2    1    2    0  503  0.44839210378E+02  0.44903341084E+02 -0.59259733136E+02  0.19354356974E+03  0.17297552598E+03 0.  0.
        -24    2    3    3    0    0  0.30108240536E+02 -0.57924111405E+01 -0.96500750863E+02  0.12876668985E+03  0.79551287382E+02 0.  0.
          6    2    1    2  501    0 -0.44839210378E+02 -0.44903341084E+02  0.26160276866E+03  0.31956711012E+03  0.17222155635E+03 0.  0.
         24    2    5    5    0    0 -0.43194793758E+01 -0.10270560778E+02  0.36456933758E+02  0.88149705751E+02  0.79480313815E+02 0.  0.
          5    1    5    5  501    0 -0.40519731002E+02 -0.34632780306E+02  0.22514583490E+03  0.23141740437E+03  0.47000000000E+01 0. -1.
        -11    1    6    6    0    0 -0.27088360006E+02  0.24567240445E+02  0.71865229980E+01  0.37268950398E+02  0.00000000000E+00 0.  1.
         12    1    6    6    0    0  0.22768880630E+02 -0.34837801223E+02  0.29270410760E+02  0.50880755353E+02  0.00000000000E+00 0. -1.
         -5    1    3    3    0  503  0.14730969842E+02  0.50695752225E+02  0.37241017726E+02  0.64776879883E+02  0.47000000000E+01 0.  1.
         13    1    4    4    0    0  0.18186754104E+02  0.10732540496E+02  0.77866701404E+01  0.22507280649E+02  0.00000000000E+00 0. -1.
        -14    1    4    4    0    0  0.11921486432E+02 -0.16524951636E+02 -0.10428742100E+03  0.10625940921E+03  0.00000000000E+00 0.  1.
</event>
<event>
12    1  0.8416569E-002  0.1968338E+03  0.7818608E-02  0.1153338E+00
         21   -1    0    0  501  502  0.00000000000E+00  0.00000000000E+00  0.11948389146E+04  0.11948389146E+04  0.00000000000E+00 0. -1.
         21   -1    0    0  502  503 -0.00000000000E+00 -0.00000000000E+00 -0.54967818631E+02  0.54967818631E+02  0.00000000000E+00 0.  1.
         -6    2    1    2    0  503  0.96235804097E+02 -0.20720442156E+01  0.16031526778E+03  0.25067051958E+03  0.16694041136E+03 0.  0.
        -24    2    3    3    0    0  0.14018908172E+02 -0.41197492424E+02  0.12217503286E+03  0.15184144394E+03  0.78964056845E+02 0.  0.
          6    2    1    2  501    0 -0.96235804097E+02  0.20720442156E+01  0.97955582819E+03  0.99913621366E+03  0.17169137874E+03 0.  0.
         24    2    5    5    0    0  0.13192846790E+02  0.11004006565E+02  0.53387760357E+03  0.54010943939E+03  0.79986071045E+02 0.  0.
          5    1    5    5  501    0 -0.10942865089E+03 -0.89319623496E+01  0.44567822463E+03  0.45902677427E+03  0.47000000000E+01 0. -1.
        -11    1    6    6    0    0  0.42073208019E+00  0.40624987120E+01 -0.16351751959E+01  0.43993987305E+01  0.00000000000E+00 0.  1.
         12    1    6    6    0    0  0.12772114709E+02  0.69415078532E+01  0.53551277876E+03  0.53571004066E+03  0.00000000000E+00 0. -1.
         -5    1    3    3    0  503  0.82216895925E+02  0.39125448208E+02  0.38140234919E+02  0.98829075644E+02  0.47000000000E+01 0.  1.
         11    1    4    4    0    0 -0.17484107622E+01 -0.34349733053E+02  0.66333791651E+01  0.35028029065E+02  0.00000000000E+00 0. -1.
        -12    1    4    4    0    0  0.15767318934E+02 -0.68477593703E+01  0.11554165370E+03  0.11681341487E+03  0.00000000000E+00 0.  1.
</event>
<event>
12    1  0.8416569E-002  0.1996259E+03  0.7818608E-02  0.1152035E+00
         21   -1    0    0  501  502  0.00000000000E+00  0.00000000000E+00  0.23513831114E+03  0.23513831114E+03  0.00000000000E+00 0. -1.
         21   -1    0    0  502  503 -0.00000000000E+00 -0.00000000000E+00 -0.24580339889E+03  0.24580339889E+03  0.00000000000E+00 0. -1.
         -6    2    1    2    0  503  0.69293480663E+02  0.73847315700E+02 -0.14579196893E+03  0.23988202685E+03  0.16134768700E+03 0.  0.
        -24    2    3    3    0    0  0.86932808572E+02  0.12527144121E+02 -0.12613293105E+03  0.17295014280E+03  0.79296866606E+02 0.  0.
          6    2    1    2  501    0 -0.69293480663E+02 -0.73847315700E+02  0.13512688118E+03  0.24105968319E+03  0.17203338148E+03 0.  0.
         24    2    5    5    0    0 -0.99649550209E+02 -0.40748343086E+02  0.14191996573E+03  0.19539493810E+03  0.80295982703E+02 0.  0.
          5    1    5    5  501    0  0.30356069546E+02 -0.33098972614E+02 -0.67930845576E+01  0.45664745090E+02  0.47000000000E+01 0. -1.
        -11    1    6    6    0    0 -0.49074220917E+02 -0.28825921553E+02  0.15916314065E+02  0.59097732320E+02  0.00000000000E+00 0.  1.
         12    1    6    6    0    0 -0.50575329292E+02 -0.11922421533E+02  0.12600365167E+03  0.13629720577E+03  0.00000000000E+00 0. -1.
         -5    1    3    3    0  503 -0.17639327908E+02  0.61320171579E+02 -0.19659037881E+02  0.66931884046E+02  0.47000000000E+01 0.  1.
         13    1    4    4    0    0  0.31389467711E+02  0.41114907631E+02 -0.80108595880E+02  0.95357859910E+02  0.00000000000E+00 0. -1.
        -14    1    4    4    0    0  0.55543340861E+02 -0.28587763509E+02 -0.46024335170E+02  0.77592282891E+02  0.00000000000E+00 0.  1.
</event>
<event>
12    1  0.8416569E-002  0.2101089E+03  0.7818608E-02  0.1143423E+00
         21   -1    0    0  503  502  0.00000000000E+00  0.00000000000E+00  0.16913543847E+02  0.16913543847E+02  0.00000000000E+00 0.  1.
         21   -1    0    0  501  503 -0.00000000000E+00 -0.00000000000E+00 -0.29112662685E+04  0.29112662685E+04  0.00000000000E+00 0. -1.
          6    2    1    2  501    0 -0.10016654684E+03  0.62122561340E+02 -0.20312765658E+04  0.20421141539E+04  0.17393441592E+03 0.  0.
         24    2    3    3    0    0 -0.63547174402E+01  0.22954463925E+02 -0.43722590361E+03  0.44481818795E+03  0.78290738265E+02 0.  0.
         -6    2    1    2    0  502  0.10016654684E+03 -0.62122561340E+02 -0.86307615879E+03  0.88606565839E+03  0.16223238076E+03 0.  0.
        -24    2    5    5    0    0 -0.15726839297E+02 -0.51446396109E+02 -0.45785067228E+03  0.46443188084E+03  0.56353071636E+02 0.  0.
          5    1    3    3  501    0 -0.93811829403E+02  0.39168097415E+02 -0.15940506622E+04  0.15972959660E+04  0.47000000000E+01 0. -1.
        -13    1    4    4    0    0 -0.39583066663E+02  0.18826764288E+02 -0.17244272556E+03  0.17792627635E+03  0.00000000000E+00 0.  1.
         14    1    4    4    0    0  0.33228349223E+02  0.41276996365E+01 -0.26478317805E+03  0.26689191160E+03  0.00000000000E+00 0. -1.
         -5    1    5    5    0  502  0.11589338614E+03 -0.10676165231E+02 -0.40522548651E+03  0.42163377755E+03  0.47000000000E+01 0.  1.
         11    1    6    6    0    0 -0.17993632057E+02 -0.17473953559E+01 -0.43527527323E+02  0.47132470972E+02  0.00000000000E+00 0. -1.
        -12    1    6    6    0    0  0.22667927596E+01 -0.49699000753E+02 -0.41432314496E+03  0.41729940987E+03  0.00000000000E+00 0.  1.
</event>
<event>
12    1  0.8416569E-002  0.2011530E+03  0.7818608E-02  0.1149334E+00
         21   -1    0    0  501  502  0.00000000000E+00  0.00000000000E+00  0.18585593526E+03  0.18585593526E+03  0.00000000000E+00 0. -1.
         21   -1    0    0  502  503 -0.00000000000E+00 -0.00000000000E+00 -0.25139778994E+03  0.25139778994E+03  0.00000000000E+00 0.  1.
         -6    2    1    2    0  503  0.10037194691E+03 -0.25319471093E+02 -0.11597371053E+03  0.22987504253E+03  0.16934293696E+03 0.  0.
        -24    2    3    3    0    0 -0.11506136864E+02 -0.23350385634E+02 -0.31934335635E+02  0.89856152875E+02  0.79854209171E+02 0.  0.
          6    2    1    2  501    0 -0.10037194691E+03  0.25319471093E+02  0.50431855861E+02  0.20737868267E+03  0.17247301992E+03 0.  0.
         24    2    5    5    0    0 -0.45657793600E+01 -0.26899957012E+02 -0.54691116367E+01  0.84689243115E+02  0.79986890732E+02 0.  0.
          5    1    5    5  501    0 -0.95806167550E+02  0.52219428104E+02  0.55900967498E+02  0.12268943956E+03  0.47000000000E+01 0. -1.
        -13    1    6    6    0    0  0.83593655197E+01 -0.44148985870E+02  0.21789916005E+02  0.49938085513E+02  0.00000000000E+00 0.  1.
         14    1    6    6    0    0 -0.12925144880E+02  0.17249028858E+02 -0.27259027641E+02  0.34751157602E+02  0.00000000000E+00 0. -1.
         -5    1    3    3    0  503  0.11187808377E+03 -0.19690854586E+01 -0.84039374899E+02  0.14001888965E+03  0.47000000000E+01 0.  1.
         11    1    4    4    0    0  0.30923278806E+02  0.55920112666E+01 -0.48665050106E+01  0.31799412465E+02  0.00000000000E+00 0. -1.
        -12    1    4    4    0    0 -0.42429415669E+02 -0.28942396901E+02 -0.27067830624E+02  0.58056740410E+02  0.00000000000E+00 0.  1.
</event>
<event>
12    1  0.8416569E-002  0.2035215E+03  0.7818608E-02  0.1146917E+00
         21   -1    0    0  503  502  0.00000000000E+00  0.00000000000E+00  0.10048513126E+04  0.10048513126E+04  0.00000000000E+00 0.  1.
         21   -1    0    0  501  503 -0.00000000000E+00 -0.00000000000E+00 -0.10598122917E+03  0.10598122917E+03  0.00000000000E+00 0.  1.
          6    2    1    2  501    0 -0.57509708858E+02  0.90516148349E+02  0.15127646992E+02  0.20408298798E+03  0.17297537558E+03 0.  0.
         24    2    3    3    0    0 -0.16720970467E+02  0.76155188324E+02 -0.52438177910E+02  0.12372635138E+03  0.80493751062E+02 0.  0.
         -6    2    1    2    0  502  0.57509708858E+02 -0.90516148349E+02  0.88374243643E+03  0.90674955378E+03  0.17231807684E+03 0.  0.
        -24    2    5    5    0    0  0.76296996542E+02 -0.88528364464E+02  0.43157478307E+03  0.45416299829E+03  0.79678934721E+02 0.  0.
          5    1    3    3  501    0 -0.40788738391E+02  0.14360960025E+02  0.67565824902E+02  0.80356636609E+02  0.47000000000E+01 0. -1.
        -13    1    4    4    0    0  0.21854799580E+02  0.69573634945E+02 -0.33523544397E+02  0.80261765325E+02  0.00000000000E+00 0.  1.
         14    1    4    4    0    0 -0.38575770046E+02  0.65815533787E+01 -0.18914633513E+02  0.43464586050E+02  0.00000000000E+00 0. -1.
         -5    1    5    5    0  502 -0.18787287684E+02 -0.19877838854E+01  0.45216765336E+03  0.45258655549E+03  0.47000000000E+01 0.  1.
         11    1    6    6    0    0  0.23218955051E+02 -0.44510123228E+01  0.20682947352E+02  0.31412031063E+02  0.00000000000E+00 0. -1.
        -12    1    6    6    0    0  0.53078041491E+02 -0.84077352141E+02  0.41089183572E+03  0.42275096723E+03  0.00000000000E+00 0.  1.
</event>
<event>
12    1  0.8416569E-002  0.1877533E+03  0.7818608E-02  0.1160528E+00
         21   -1    0    0  503  502  0.00000000000E+00  0.00000000000E+00  0.80580025098E+02  0.80580025098E+02  0.00000000000E+00 0. -1.
         21   -1    0    0  501  503 -0.00000000000E+00 -0.00000000000E+00 -0.45270603131E+03  0.45270603131E+03  0.00000000000E+00 0. -1.
          6    2    1    2  501    0  0.39746340492E+02 -0.66967906946E+02 -0.13669675598E+03  0.23215778014E+03  0.17072422102E+03 0.  0.
         24    2    3    3    0    0  0.21161728720E+02  0.15883142261E+02 -0.11801947251E+03  0.14509105247E+03  0.80141903177E+02 0.  0.
         -6    2    1    2    0  502 -0.39746340492E+02  0.66967906946E+02 -0.23542925024E+03  0.30112827627E+03  0.17084154869E+03 0.  0.
        -24    2    5    5    0    0 -0.41573464909E+02  0.45282058663E+02 -0.25351933931E+03  0.27244107142E+03  0.78570122651E+02 0.  0.
          5    1    3    3  501    0  0.18584611772E+02 -0.82851049207E+02 -0.18677283470E+02  0.87066727671E+02  0.47000000000E+01 0. -1.
        -11    1    4    4    0    0 -0.54591856644E+01  0.33468796774E+02 -0.14704566440E+02  0.36961971536E+02  0.00000000000E+00 0.  1.
         12    1    4    4    0    0  0.26620914384E+02 -0.17585654513E+02 -0.10331490607E+03  0.10812908093E+03  0.00000000000E+00 0. -1.
         -5    1    5    5    0  502  0.18271244171E+01  0.21685848283E+02  0.18090089072E+02  0.28687204848E+02  0.47000000000E+01 0.  1.
         11    1    6    6    0    0 -0.43831305292E+02  0.31337790134E+01 -0.59991781659E+02  0.74364089191E+02  0.00000000000E+00 0. -1.
        -12    1    6    6    0    0  0.22578403830E+01  0.42148279649E+02 -0.19352755765E+03  0.19807698223E+03  0.00000000000E+00 0.  1.
</event>
<event>
12    1  0.8416569E-002  0.1979034E+03  0.7818608E-02  0.1151621E+00
         21   -1    0    0  503  502  0.00000000000E+00  0.00000000000E+00  0.13047561472E+04  0.13047561472E+04  0.00000000000E+00 0. -1.
         21   -1    0    0  501  503 -0.00000000000E+00 -0.00000000000E+00 -0.31479339187E+02  0.31479339187E+02  0.00000000000E+00 0.  1.
          6    2    1    2  501    0  0.92899831277E+02  0.22731606909E+02  0.48845909175E+03  0.52685015689E+03  0.17271855403E+03 0.  0.
         24    2    3    3    0    0  0.71568011156E+02  0.71527759801E+02  0.23373607111E+03  0.26657718801E+03  0.78693364334E+02 0.  0.
         -6    2    1    2    0  502 -0.92899831277E+02 -0.22731606909E+02  0.78481771626E+03  0.80938532948E+03  0.17325893693E+03 0.  0.
        -24    2    5    5    0    0 -0.95123438117E+02  0.27765503430E+02  0.36843239173E+03  0.38991693846E+03  0.80457441961E+02 0.  0.
          5    1    3    3  501    0  0.21331820121E+02 -0.48796152892E+02  0.25472302064E+03  0.26027296888E+03  0.47000000000E+01 0. -1.
        -13    1    4    4    0    0 -0.44818195126E+01  0.22045049829E+02  0.90224265209E+01  0.24237885808E+02  0.00000000000E+00 0.  1.
         14    1    4    4    0    0  0.76049830669E+02  0.49482709972E+02  0.22471364459E+03  0.24233930221E+03  0.00000000000E+00 0. -1.
         -5    1    5    5    0  502  0.22236068401E+01 -0.50497110339E+02  0.41638532453E+03  0.41946839102E+03  0.47000000000E+01 0.  1.
         13    1    6    6    0    0 -0.86965673921E+02  0.34507778918E+02  0.36757866112E+03  0.37929920559E+03  0.00000000000E+00 0. -1.
        -14    1    6    6    0    0 -0.81577641960E+01 -0.67422754880E+01  0.85373060195E+00  0.10617732874E+02  0.00000000000E+00 0.  1.
</event>
<event>
12    1  0.8416569E-002  0.2197928E+03  0.7818608E-02  0.1134250E+00
         21   -1    0    0  503  502  0.00000000000E+00  0.00000000000E+00  0.38647970611E+03  0.38647970611E+03  0.00000000000E+00 0. -1.
         21   -1    0    0  501  503 -0.00000000000E+00 -0.00000000000E+00 -0.16662570988E+03  0.16662570988E+03  0.00000000000E+00 0.  1.
          6    2    1    2  501    0 -0.13096158884E+03 -0.42831410663E+02 -0.29157855829E+02  0.22171841145E+03  0.17124078348E+03 0.  0.
         24    2    3    3    0    0 -0.14602715094E+03  0.59578560626E+01 -0.91947564798E+01  0.16669133589E+03  0.79636882500E+02 0.  0.
         -6    2    1    2    0  502  0.13096158884E+03  0.42831410663E+02  0.24901185206E+03  0.33138700454E+03  0.16977920019E+03 0.  0.
        -24    2    5    5    0    0  0.12889989599E+03  0.81112826656E+02  0.16372430091E+03  0.23776129348E+03  0.80810346717E+02 0.  0.
          5    1    3    3  501    0  0.15065562098E+02 -0.48789266726E+02 -0.19963099349E+02  0.55027075559E+02  0.47000000000E+01 0. -1.
        -13    1    4    4    0    0 -0.14616192536E+03 -0.98000479462E+01 -0.19617563713E+02  0.14779782871E+03  0.00000000000E+00 0.  1.
         14    1    4    4    0    0  0.13477442620E+00  0.15757904009E+02  0.10422807233E+02  0.18893507179E+02  0.00000000000E+00 0. -1.
         -5    1    5    5    0  502  0.20616928450E+01 -0.38281415993E+02  0.85287551157E+02  0.93625711053E+02  0.47000000000E+01 0.  1.
         13    1    6    6    0    0  0.48508623892E+02  0.77368882673E+02  0.96979392711E+02  0.13320673109E+03  0.00000000000E+00 0. -1.
        -14    1    6    6    0    0  0.80391272102E+02  0.37439439829E+01  0.66744908194E+02  0.10455456239E+03  0.00000000000E+00 0.  1.
</event>
<event>
12    1  0.8416569E-002  0.2391725E+03  0.7818608E-02  0.1120683E+00
         21   -1    0    0  503  502  0.00000000000E+00  0.00000000000E+00  0.53403561002E+03  0.53403561002E+03  0.00000000000E+00 0.  1.
         21   -1    0    0  501  503 -0.00000000000E+00 -0.00000000000E+00 -0.20762629598E+03  0.20762629598E+03  0.00000000000E+00 0. -1.
          6    2    1    2  501    0 -0.16824898721E+03  0.18683666110E+02 -0.95604244988E+02  0.25757258888E+03  0.16895758583E+03 0.  0.
         24    2    3    3    0    0 -0.12349486818E+03  0.51038473349E+01  0.49945327702E+01  0.14653409675E+03  0.78551030734E+02 0.  0.
         -6    2    1    2    0  502  0.16824898721E+03 -0.18683666110E+02  0.42201355903E+03  0.48408931712E+03  0.16610304592E+03 0.  0.
        -24    2    5    5    0    0  0.17263394257E+03 -0.53553018173E+02  0.38690224907E+03  0.43418948110E+03  0.78464968497E+02 0.  0.
          5    1    3    3  501    0 -0.44754119025E+02  0.13579818775E+02 -0.10059877776E+03  0.11103849213E+03  0.47000000000E+01 0. -1.
        -13    1    4    4    0    0 -0.11481906605E+03 -0.12585158776E+02 -0.17284855354E+02  0.11679285241E+03  0.00000000000E+00 0.  1.
         14    1    4    4    0    0 -0.86758021310E+01  0.17689006111E+02  0.22279388124E+02  0.29741244342E+02  0.00000000000E+00 0. -1.
         -5    1    5    5    0  502 -0.43849553679E+01  0.34869352063E+02  0.35111309960E+02  0.49899836011E+02  0.47000000000E+01 0.  1.
         11    1    6    6    0    0  0.24857172465E+02  0.18769258394E+02  0.44584078611E+02  0.54386617373E+02  0.00000000000E+00 0. -1.
        -12    1    6    6    0    0  0.14777677011E+03 -0.72322276567E+02  0.34231817046E+03  0.37980286373E+03  0.00000000000E+00 0.  1.
</event>
<event>
12    1  0.8416569E-002  0.2270288E+03  0.7818608E-02  0.1129647E+00
         21   -1    0    0  501  502  0.00000000000E+00  0.00000000000E+00  0.46322274728E+03  0.46322274728E+03  0.00000000000E+00 0.  1.
         21   -1    0    0  502  503 -0.00000000000E+00 -0.00000000000E+00 -0.12344192935E+03  0.12344192935E+03  0.00000000000E+00 0.  1.
         -6    2    1    2    0  503 -0.12886880607E+03  0.74994086994E+02  0.70699376639E+02  0.23778243529E+03  0.17120397897E+03 0.  0.
        -24    2    3    3    0    0 -0.60010561958E+02 -0.12711331607E+02 -0.23686488383E+01  0.10438556659E+03  0.84426835286E+02 0.  0.
          6    2    1    2  501    0  0.12886880607E+03 -0.74994086994E+02  0.26908144129E+03  0.34888224134E+03  0.16456826552E+03 0.  0.
         24    2    5    5    0    0  0.15633302041E+03 -0.53592284078E+02  0.25537444187E+03  0.31116895363E+03  0.65558111317E+02 0.  0.
          5    1    5    5  501    0 -0.27464214338E+02 -0.21401802916E+02  0.13706999423E+02  0.37713287717E+02  0.47000000000E+01 0. -1.
        -13    1    6    6    0    0  0.21987737765E+02 -0.29206252911E+02  0.28410613925E+02  0.46299339139E+02  0.00000000000E+00 0.  1.
         14    1    6    6    0    0  0.13434528264E+03 -0.24386031167E+02  0.22696382794E+03  0.26486961449E+03  0.00000000000E+00 0. -1.
         -5    1    3    3    0  503 -0.68858244112E+02  0.87705418601E+02  0.73068025477E+02  0.13339686871E+03  0.47000000000E+01 0.  1.
         13    1    4    4    0    0  0.13526503800E+02  0.10805802882E+02  0.17549290031E+02  0.24651759806E+02  0.00000000000E+00 0. -1.
        -14    1    4    4    0    0 -0.73537065758E+02 -0.23517134489E+02 -0.19917938869E+02  0.79733806780E+02  0.00000000000E+00 0.  1.
</event>
<event>
12    1  0.8416569E-002  0.2089993E+03  0.7818608E-02  0.1142408E+00
         21   -1    0    0  501  502  0.00000000000E+00  0.00000000000E+00  0.11719293486E+03  0.11719293486E+03  0.00000000000E+00 0.  1.
         21   -1    0    0  502  503 -0.00000000000E+00 -0.00000000000E+00 -0.61852653267E+03  0.61852653267E+03  0.00000000000E+00 0.  1.
         -6    2    1    2    0  503 -0.10867294003E+03 -0.49088148033E+02 -0.48267816150E+03  0.52588924176E+03  0.17135294813E+03 0.  0.
        -24    2    3    3    0    0 -0.14087892365E+03 -0.22813772291E+02 -0.34521691229E+03  0.38220468018E+03  0.80860136565E+02 0.  0.
          6    2    1    2  501    0  0.10867294003E+03  0.49088148033E+02 -0.18655436312E+02  0.20983022577E+03  0.17164278071E+03 0.  0.
         24    2    5    5    0    0  0.42718098750E+02  0.66966626554E+02 -0.60675423410E+02  0.12947196298E+03  0.82292874296E+02 0.  0.
          5    1    5    5  501    0  0.65954841282E+02 -0.17878478521E+02  0.42019987097E+02  0.80358262789E+02  0.47000000000E+01 0. -1.
        -13    1    6    6    0    0  0.67457351315E+02  0.48349614317E+02 -0.39167333351E+02  0.91772868828E+02  0.00000000000E+00 0.  1.
         14    1    6    6    0    0 -0.24739252565E+02  0.18617012237E+02 -0.21508090059E+02  0.37699094155E+02  0.00000000000E+00 0. -1.
         -5    1    3    3    0  503  0.32205983617E+02 -0.26274375741E+02 -0.13746124921E+03  0.14368456158E+03  0.47000000000E+01 0.  1.
         13    1    4    4    0    0 -0.41593516238E+01 -0.20130921985E+02 -0.17120684071E+02  0.26752047566E+02  0.00000000000E+00 0. -1.
        -14    1    4    4    0    0 -0.13671957202E+03 -0.26828503064E+01 -0.32809622822E+03  0.35545263261E+03  0.00000000000E+00 0.  1.
</event>
<event>
12    1  0.8416569E-002  0.1924334E+03  0.7818608E-02  0.1156357E+00
         21   -1    0    0  503  502  0.00000000000E+00  0.00000000000E+00  0.76449391102E+03  0.76449391102E+03  0.00000000000E+00 0.  1.
         21   -1    0    0  501  503 -0.00000000000E+00 -0.00000000000E+00 -0.48708386598E+02  0.48708386598E+02  0.00000000000E+00 0.  1.
          6    2    1    2  501    0  0.39869296354E+02 -0.75452700148E+02  0.32301273287E+03  0.37582249989E+03  0.17211233271E+03 0.  0.
         24    2    3    3    0    0  0.58017481097E+02  0.14335226013E+02  0.16581444337E+03  0.19382079518E+03  0.80625952375E+02 0.  0.
         -6    2    1    2    0  502 -0.39869296354E+02  0.75452700148E+02  0.39277279154E+03  0.43737979773E+03  0.17247594305E+03 0.  0.
        -24    2    5    5    0    0 -0.33215774906E+02  0.11967658263E+03  0.28747102108E+03  0.32287838292E+03  0.78645343573E+02 0.  0.
          5    1    3    3  501    0 -0.18148184743E+02 -0.89787926161E+02  0.15719828950E+03  0.18200170471E+03  0.47000000000E+01 0. -1.
        -13    1    4    4    0    0  0.12934667599E+02 -0.14507245832E+02 -0.15370830639E+00  0.19436806161E+02  0.00000000000E+00 0.  1.
         14    1    4    4    0    0  0.45082813498E+02  0.28842471845E+02  0.16596815168E+03  0.17438398902E+03  0.00000000000E+00 0. -1.
         -5    1    5    5    0  502 -0.66535214475E+01 -0.44223882478E+02  0.10530177047E+03  0.11450141480E+03  0.47000000000E+01 0.  1.
         11    1    6    6    0    0 -0.47419195823E+01  0.35880808661E+02  0.20444906318E+02  0.41568166014E+02  0.00000000000E+00 0. -1.
        -12    1    6    6    0    0 -0.28473855324E+02  0.83795773966E+02  0.26702611476E+03  0.28131021691E+03  0.00000000000E+00 0.  1.
</event>
<event>
12    1  0.8416569E-002  0.2481877E+03  0.7818608E-02  0.1114566E+00
         21   -1    0    0  501  502  0.00000000000E+00  0.00000000000E+00  0.68637040407E+03  0.68637040407E+03  0.00000000000E+00 0. -1.
         21   -1    0    0  502  503 -0.00000000000E+00 -0.00000000000E+00 -0.89522197086E+02  0.89522197086E+02  0.00000000000E+00 0.  1.
         -6    2    1    2    0  503  0.17848107057E+03 -0.32732091196E+01  0.29200795202E+03  0.38323068803E+03  0.17242653438E+03 0.  0.
        -24    2    3    3    0    0  0.16209912052E+03  0.52443336602E+02  0.19687812864E+03  0.27167588065E+03  0.77590967022E+02 0.  0.
          6    2    1    2  501    0 -0.17848107057E+03  0.32732091196E+01  0.30484025497E+03  0.39266191312E+03  0.17143392464E+03 0.  0.
         24    2    5    5    0    0 -0.11926697178E+03  0.18200452006E+02  0.93173413920E+02  0.17231202391E+03  0.80338543133E+02 0.  0.
          5    1    5    5  501    0 -0.59214098791E+02 -0.14927242886E+02  0.21166684105E+03  0.22034988921E+03  0.47000000000E+01 0. -1.
        -11    1    6    6    0    0  0.31096456883E+01  0.13737640510E+02 -0.54248852815E+01  0.15093774989E+02  0.00000000000E+00 0.  1.
         12    1    6    6    0    0 -0.12237661747E+03  0.44628114960E+01  0.98598299202E+02  0.15721824892E+03  0.00000000000E+00 0. -1.
         -5    1    3    3    0  503  0.16381950052E+02 -0.55716545722E+02  0.95129823374E+02  0.11155480738E+03  0.47000000000E+01 0.  1.
         13    1    4    4    0    0 -0.57390314207E+01  0.98682604074E+01  0.31476449329E+01  0.11841736095E+02  0.00000000000E+00 0. -1.
        -14    1    4    4    0    0  0.16783815194E+03  0.42575076195E+02  0.19373048371E+03  0.25983414456E+03  0.00000000000E+00 0.  1.
</event>
<event>
12    1  0.8416569E-002  0.2033949E+03  0.7818608E-02  0.1147496E+00
         21   -1    0    0  503  502  0.00000000000E+00  0.00000000000E+00  0.15161451095E+03  0.15161451095E+03  0.00000000000E+00 0. -1.
         21   -1    0    0  501  503 -0.00000000000E+00 -0.00000000000E+00 -0.48810455678E+03  0.48810455678E+03  0.00000000000E+00 0. -1.
          6    2    1    2  501    0  0.45494123375E+02 -0.92028821346E+02 -0.38186176726E+03  0.43132497733E+03  0.17228989394E+03 0.  0.
         24    2    3    3    0    0 -0.57885816510E+01 -0.67907463704E+02 -0.35114765602E+03  0.36669369730E+03  0.80713443766E+02 0.  0.
         -6    2    1    2    0  502 -0.45494123375E+02  0.92028821346E+02  0.45371721437E+02  0.20839409039E+03  0.17558611729E+03 0.  0.
        -24    2    5    5    0    0 -0.76022786935E+02  0.60002309670E+02  0.82834868421E+02  0.15022817141E+03  0.79543364026E+02 0.  0.
          5    1    3    3  501    0  0.51282705026E+02 -0.24121357642E+02 -0.30714111239E+02  0.64631280031E+02  0.47000000000E+01 0. -1.
        -13    1    4    4    0    0 -0.40943911531E+02 -0.24424207714E+02 -0.12633496677E+03  0.13503136541E+03  0.00000000000E+00 0.  1.
         14    1    4    4    0    0  0.35155329880E+02 -0.43483255990E+02 -0.22481268925E+03  0.23166233190E+03  0.00000000000E+00 0. -1.
         -5    1    5    5    0  502  0.30528663560E+02  0.32026511676E+02 -0.37463146984E+02  0.58165918981E+02  0.47000000000E+01 0.  1.
         13    1    6    6    0    0  0.14564036207E+02  0.14409808294E+02  0.20857153346E+01  0.20593783872E+02  0.00000000000E+00 0. -1.
        -14    1    6    6    0    0 -0.90586823142E+02  0.45592501376E+02  0.80749153086E+02  0.12963438754E+03  0.00000000000E+00 0.  1.
</event>
<event>
12    1  0.8416569E-002  0.2150061E+03  0.7818608E-02  0.1137893E+00
         21   -1    0    0  503  502  0.00000000000E+00  0.00000000000E+00  0.12655818192E+03  0.12655818192E+03  0.00000000000E+00 0. -1.
         21   -1    0    0  501  503 -0.00000000000E+00 -0.00000000000E+00 -0.36355872343E+03  0.36355872343E+03  0.00000000000E+00 0. -1.
          6    2    1    2  501    0 -0.12760488062E+03  0.14165773928E+02 -0.12618837846E+03  0.24930131782E+03  0.17246438907E+03 0.  0.
         24    2    3    3    0    0 -0.28884569987E+02 -0.11714811349E+02 -0.11889114991E+03  0.14687649675E+03  0.80411719186E+02 0.  0.
         -6    2    1    2    0  502  0.12760488062E+03 -0.14165773928E+02 -0.11081216305E+03  0.24081558754E+03  0.17096530939E+03 0.  0.
        -24    2    5    5    0    0  0.15233886200E+03 -0.34286943124E+02 -0.11300001734E+03  0.20851221324E+03  0.79533740066E+02 0.  0.
          5    1    3    3  501    0 -0.98720310633E+02  0.25880585277E+02 -0.72972285506E+01  0.10242482107E+03  0.47000000000E+01 0. -1.
        -11    1    4    4    0    0  0.13970108180E+02  0.68842021090E+01  0.34217100958E+01  0.15945665907E+02  0.00000000000E+00 0.  1.
         12    1    4    4    0    0 -0.42854678167E+02 -0.18599013458E+02 -0.12231286001E+03  0.13093083084E+03  0.00000000000E+00 0. -1.
         -5    1    5    5    0  502 -0.24733981379E+02  0.20121169196E+02  0.21878542881E+01  0.32303374299E+02  0.47000000000E+01 0.  1.
         11    1    6    6    0    0  0.12729433143E+03  0.59211288803E+01 -0.88786947520E+02  0.15531268020E+03  0.00000000000E+00 0. -1.
        -12    1    6    6    0    0  0.25044530569E+02 -0.40208072004E+02 -0.24213069815E+02  0.53199533039E+02  0.00000000000E+00 0.  1.
</event>
<event>
12    1  0.8416569E-002  0.1981670E+03  0.7818608E-02  0.1151678E+00
         21   -1    0    0  503  502  0.00000000000E+00  0.00000000000E+00  0.47816061643E+03  0.47816061643E+03  0.00000000000E+00 0. -1.
         21   -1    0    0  501  503 -0.00000000000E+00 -0.00000000000E+00 -0.87658855852E+02  0.87658855852E+02  0.00000000000E+00 0. -1.
          6    2    1    2  501    0 -0.28040373305E+02 -0.91441880982E+02  0.12040899264E+03  0.23188031256E+03  0.17355769563E+03 0.  0.
         24    2    3    3    0    0 -0.66799065209E+02 -0.15772322603E+02  0.39277018833E+02  0.11426821524E+03  0.82484298700E+02 0.  0.
         -6    2    1    2    0  502  0.28040373305E+02  0.91441880982E+02  0.27009276794E+03  0.33393915972E+03  0.17151495261E+03 0.  0.
        -24    2    5    5    0    0  0.12466477415E+02  0.13169157250E+03  0.20978517593E+03  0.25963115507E+03  0.76814278084E+02 0.  0.
          5    1    3    3  501    0  0.38758691905E+02 -0.75669558379E+02  0.81131973807E+02  0.11761209733E+03  0.47000000000E+01 0. -1.
        -11    1    4    4    0    0  0.13810113455E+02  0.10068193635E+02  0.22025471896E+02  0.27878471424E+02  0.00000000000E+00 0.  1.
         12    1    4    4    0    0 -0.80609178664E+02 -0.25840516238E+02  0.17251546937E+02  0.86389743813E+02  0.00000000000E+00 0. -1.
         -5    1    5    5    0  502  0.15573895890E+02 -0.40249691521E+02  0.60307592010E+02  0.74308004648E+02  0.47000000000E+01 0.  1.
         11    1    6    6    0    0  0.44747157169E+02  0.66245311602E+02  0.11295879005E+03  0.13838510625E+03  0.00000000000E+00 0. -1.
        -12    1    6    6    0    0 -0.32280679754E+02  0.65446260900E+02  0.96826385880E+02  0.12124604882E+03  0.00000000000E+00 0.  1.
</event>
<event>
12    1  0.8416569E-002  0.1895884E+03  0.7818608E-02  0.1159018E+00
         21   -1    0    0  501  502  0.00000000000E+00  0.00000000000E+00  0.33383550217E+03  0.33383550217E+03  0.00000000000E+00 0. -1.
         21   -1    0    0  502  503 -0.00000000000E+00 -0.00000000000E+00 -0.10757291274E+03  0.10757291274E+03  0.00000000000E+00 0. -1.
         -6    2    1    2    0  503 -0.59477507797E+02  0.50852928341E+02  0.12575989589E+03  0.22682849743E+03  0.17179063297E+03 0.  0.
        -24    2    3    3    0    0 -0.54057958822E+02 -0.21786523876E+02  0.11683970130E+03  0.15329264630E+03  0.80313162521E+02 0.  0.
          6    2    1    2  501    0  0.59477507797E+02 -0.50852928341E+02  0.10050269354E+03  0.21457991749E+03  0.17268513348E+03 0.  0.
         24    2    5    5    0    0  0.21557178843E+02 -0.97735571469E+02  0.74514759355E+02  0.14875138038E+03  0.80978823854E+02 0.  0.
          5    1    5    5  501    0  0.37920328954E+02  0.46882643128E+02  0.25987934190E+02  0.65828537110E+02  0.47000000000E+01 0. -1.
        -13    1    6    6    0    0 -0.11193023424E+02 -0.34258036424E+01  0.42236544696E+02  0.43828593541E+02  0.00000000000E+00 0.  1.
         14    1    6    6    0    0  0.32750202268E+02 -0.94309767827E+02  0.32278214659E+02  0.10492278684E+03  0.00000000000E+00 0. -1.
         -5    1    3    3    0  503 -0.54195489751E+01  0.72639452217E+02  0.89201945846E+01  0.73535851127E+02  0.47000000000E+01 0.  1.
         11    1    4    4    0    0 -0.70874150670E+02  0.10098617349E+01  0.84975688241E+02  0.11065727561E+03  0.00000000000E+00 0. -1.
        -12    1    4    4    0    0  0.16816191847E+02 -0.22796385611E+02  0.31864013062E+02  0.42635370687E+02  0.00000000000E+00 0.  1.
</event>
<event>
12    1  0.8416569E-002  0.2028791E+03  0.7818608E-02  0.1147399E+00
         21   -1    0    0  503  502  0.00000000000E+00  0.00000000000E+00  0.23770824315E+03  0.23770824315E+03  0.00000000000E+00 0.  1.
         21   -1    0    0  501  503 -0.00000000000E+00 -0.00000000000E+00 -0.17591000610E+03  0.17591000610E+03  0.00000000000E+00 0.  1.
          6    2    1    2  501    0 -0.53227965172E+02  0.92138194043E+02  0.37226858898E+01  0.20259056655E+03  0.17235549364E+03 0.  0.
         24    2    3    3    0    0 -0.10573121830E+02  0.94988863742E+02  0.55060883688E+02  0.13561846391E+03  0.78904953594E+02 0.  0.
         -6    2    1    2    0  502  0.53227965172E+02 -0.92138194043E+02  0.58075551165E+02  0.21102768270E+03  0.17273462347E+03 0.  0.
        -24    2    5    5    0    0  0.63977083034E+02  0.71839034194E+01  0.27073176272E+02  0.10632018618E+03  0.80164515177E+02 0.  0.
          5    1    3    3  501    0 -0.42654843342E+02 -0.28506696993E+01 -0.51338197798E+02  0.66972102635E+02  0.47000000000E+01 0. -1.
        -13    1    4    4    0    0 -0.44809763529E+02  0.59552569003E+02  0.36250569068E+02  0.82876577754E+02  0.00000000000E+00 0.  1.
         14    1    4    4    0    0  0.34236641699E+02  0.35436294739E+02  0.18810314620E+02  0.52741886160E+02  0.00000000000E+00 0. -1.
         -5    1    5    5    0  502 -0.10749117862E+02 -0.99322097462E+02  0.31002374893E+02  0.10470749652E+03  0.47000000000E+01 0.  1.
         11    1    6    6    0    0  0.50085652442E-01  0.21268511514E+01 -0.24151991796E+02  0.24245509112E+02  0.00000000000E+00 0. -1.
        -12    1    6    6    0    0  0.63926997382E+02  0.50570522680E+01  0.51225168068E+02  0.82074677066E+02  0.00000000000E+00 0.  1.
</event>
<event>
12    1  0.8416569E-002  0.1819557E+03  0.7818608E-02  0.1166878E+00
         21   -1    0    0  503  502  0.00000000000E+00  0.00000000000E+00  0.26750086949E+02  0.26750086949E+02  0.00000000000E+00 0. -1.
         21   -1    0    0  501  503 -0.00000000000E+00 -0.00000000000E+00 -0.12855368353E+04  0.12855368353E+04  0.00000000000E+00 0. -1.
          6    2    1    2  501    0 -0.78962381498E+01 -0.45035753055E+02 -0.79397323970E+03  0.81455593590E+03  0.17611728399E+03 0.  0.
         24    2    3    3    0    0  0.62863764296E+02 -0.14001825734E+02 -0.34685286014E+03  0.36078418004E+03  0.75567281283E+02 0.  0.
         -6    2    1    2    0  502  0.78962381498E+01  0.45035753055E+02 -0.46481350865E+03  0.49773098635E+03  0.17202897232E+03 0.  0.
        -24    2    5    5    0    0  0.18158401849E+02  0.94621287102E+01 -0.94928012997E+02  0.12596739931E+03  0.80232154401E+02 0.  0.
          5    1    3    3  501    0 -0.70760002445E+02 -0.31033927321E+02 -0.44712037957E+03  0.45377175586E+03  0.47000000000E+01 0. -1.
        -11    1    4    4    0    0 -0.15964762721E+02  0.72311963949E+01 -0.68490358781E+02  0.70697192986E+02  0.00000000000E+00 0.  1.
         12    1    4    4    0    0  0.78828527017E+02 -0.21233022129E+02 -0.27836250135E+03  0.29008698706E+03  0.00000000000E+00 0. -1.
         -5    1    5    5    0  502 -0.10262163699E+02  0.35573624344E+02 -0.36988549565E+03  0.37176358704E+03  0.47000000000E+01 0.  1.
         11    1    6    6    0    0  0.31729253208E+02 -0.61098687151E+01 -0.38082748193E+01  0.32535810455E+02  0.00000000000E+00 0. -1.
        -12    1    6    6    0    0 -0.13570851359E+02  0.15571997425E+02 -0.91119738177E+02  0.93431588855E+02  0.00000000000E+00 0.  1.
</event>
<event>
12    1  0.8416569E-002  0.1766227E+03  0.7818608E-02  0.1171413E+00
         21   -1    0    0  503  502  0.00000000000E+00  0.00000000000E+00  0.37376166975E+03  0.37376166975E+03  0.00000000000E+00 0. -1.
         21   -1    0    0  501  503 -0.00000000000E+00 -0.00000000000E+00 -0.83331163384E+02  0.83331163384E+02  0.00000000000E+00 0. -1.
          6    2    1    2  501    0  0.28652379277E+02 -0.24445088337E+02  0.16227474082E+03  0.23985136830E+03  0.17256032622E+03 0.  0.
         24    2    3    3    0    0  0.19107193650E+02 -0.26707100421E+02  0.19027728990E+03  0.20981039591E+03  0.82076800120E+02 0.  0.
         -6    2    1    2    0  502 -0.28652379277E+02  0.24445088337E+02  0.12815576555E+03  0.21724146484E+03  0.17132259810E+03 0.  0.
        -24    2    5    5    0    0 -0.36288114087E+02  0.58433734233E+02  0.14480239169E+03  0.17834760083E+03  0.78158848258E+02 0.  0.
          5    1    3    3  501    0  0.95451856263E+01  0.22620120840E+01 -0.28002549078E+02  0.30040972391E+02  0.47000000000E+01 0. -1.
        -13    1    4    4    0    0 -0.31292184216E+02 -0.18639236110E+02  0.94608106988E+02  0.10137709714E+03  0.00000000000E+00 0.  1.
         14    1    4    4    0    0  0.50399377867E+02 -0.80678643112E+01  0.95669182907E+02  0.10843329877E+03  0.00000000000E+00 0. -1.
         -5    1    5    5    0  502  0.76357348105E+01 -0.33988645896E+02 -0.16646626141E+02  0.38893864012E+02  0.47000000000E+01 0.  1.
         11    1    6    6    0    0 -0.93637411577E+01 -0.14239148967E+02  0.38156803541E+01  0.17464032419E+02  0.00000000000E+00 0. -1.
        -12    1    6    6    0    0 -0.26924372929E+02  0.72672883200E+02  0.14098671134E+03  0.16088356841E+03  0.00000000000E+00 0.  1.
</event>
<event>
12    1  0.8416569E-002  0.1797841E+03  0.7818608E-02  0.1168635E+00
         21   -1    0    0  501  502  0.00000000000E+00  0.00000000000E+00  0.40316448350E+03  0.40316448350E+03  0.00000000000E+00 0. -1.
         21   -1    0    0  502  503 -0.00000000000E+00 -0.00000000000E+00 -0.14923730486E+03  0.14923730486E+03  0.00000000000E+00 0. -1.
         -6    2    1    2    0  503  0.19186907981E+02 -0.37896323003E+02  0.31591167611E+03  0.36223243407E+03  0.17206940594E+03 0.  0.
        -24    2    3    3    0    0 -0.52142559781E+02 -0.22280784979E+02  0.12997398796E+03  0.16241588853E+03  0.79185878677E+02 0.  0.
          6    2    1    2  501    0 -0.19186907981E+02  0.37896323003E+02 -0.61984497462E+02  0.19016935429E+03  0.17469412311E+03 0.  0.
         24    2    5    5    0    0 -0.53875377040E+02  0.74934555481E+02 -0.67493309417E+02  0.13890964731E+03  0.78884722491E+02 0.  0.
          5    1    5    5  501    0  0.34688469059E+02 -0.37038232478E+02  0.55088119544E+01  0.51259706983E+02  0.47000000000E+01 0. -1.
        -13    1    6    6    0    0 -0.66664252027E+02  0.58150881221E+02 -0.25746652505E+02  0.92133260012E+02  0.00000000000E+00 0.  1.
         14    1    6    6    0    0  0.12788874987E+02  0.16783674260E+02 -0.41746656911E+02  0.46776387295E+02  0.00000000000E+00 0. -1.
         -5    1    3    3    0  503  0.71329467762E+02 -0.15615538023E+02  0.18593768815E+03  0.19981654554E+03  0.47000000000E+01 0.  1.
         13    1    4    4    0    0 -0.51130258808E+02  0.15865078577E+02  0.10167686037E+03  0.11490947749E+03  0.00000000000E+00 0. -1.
        -14    1    4    4    0    0 -0.10123009727E+01 -0.38145863556E+02  0.28297127593E+02  0.47506411038E+02  0.00000000000E+00 0.  1.
</event>
<event>
12    1  0.8416569E-002  0.2269552E+03  0.7818608E-02  0.1128904E+00
         21   -1    0    0  503  502  0.00000000000E+00  0.00000000000E+00  0.46856495439E+03  0.46856495439E+03  0.00000000000E+00 0. -1.
         21   -1    0    0  501  503 -0.00000000000E+00 -0.00000000000E+00 -0.16789670565E+03  0.16789670565E+03  0.00000000000E+00 0.  1.
          6    2    1    2  501    0 -0.88158449071E+02 -0.11746984418E+03 -0.36977499160E+02  0.22994784066E+03  0.17302484661E+03 0.  0.
         24    2    3    3    0    0 -0.62604827515E+02 -0.33746645072E+02 -0.70683780210E+02  0.13602891271E+03  0.91920986868E+02 0.  0.
         -6    2    1    2    0  502  0.88158449071E+02  0.11746984418E+03  0.33764574790E+03  0.40651381939E+03  0.17227233628E+03 0.  0.
        -24    2    5    5    0    0  0.12322617608E+03  0.72470207164E+02  0.20734282118E+03  0.26419145460E+03  0.79808882891E+02 0.  0.
          5    1    3    3  501    0 -0.25553621557E+02 -0.83723199112E+02  0.33706281050E+02  0.93918927945E+02  0.47000000000E+01 0. -1.
        -13    1    4    4    0    0  0.12229455650E+02 -0.16413871240E+02  0.11546936186E+02  0.23501201881E+02  0.00000000000E+00 0.  1.
         14    1    4    4    0    0 -0.74834283165E+02 -0.17332773833E+02 -0.82230716396E+02  0.11252771083E+03  0.00000000000E+00 0. -1.
         -5    1    5    5    0  502 -0.35067727011E+02  0.44999637020E+02  0.13030292671E+03  0.14232236479E+03  0.47000000000E+01 0.  1.
         11    1    6    6    0    0  0.25222132721E+02 -0.10957035611E+02  0.73643036819E+02  0.78609856127E+02  0.00000000000E+00 0. -1.
        -12    1    6    6    0    0  0.98004043362E+02  0.83427242774E+02  0.13369978436E+03  0.18558159847E+03  0.00000000000E+00 0.  1.
</event>
<event>
12    1  0.8416569E-002  0.2500870E+03  0.7818608E-02  0.1113418E+00
         21   -1    0    0  503  502  0.00000000000E+00  0.00000000000E+00  0.11402824315E+03  0.11402824315E+03  0.00000000000E+00 0. -1.
         21   -1    0    0  501  503 -0.00000000000E+00 -0.00000000000E+00 -0.69634023386E+03  0.69634023386E+03  0.00000000000E+00 0. -1.
          6    2    1    2  501    0  0.10679153451E+03  0.14590180381E+03 -0.47981396875E+03  0.54107760279E+03  0.17277661717E+03 0.  0.
         24    2    3    3    0    0  0.41582629432E+02  0.26885060983E+02 -0.97031471293E+02  0.13492280874E+03  0.79606132444E+02 0.  0.
         -6    2    1    2    0  502 -0.10679153451E+03 -0.14590180381E+03 -0.10249802196E+03  0.26929087421E+03  0.17123072805E+03 0.  0.
        -24    2    5    5    0    0 -0.11910527514E+03 -0.67700079505E+02 -0.10452214310E+03  0.18996039483E+03  0.79941890600E+02 0.  0.
          5    1    3    3  501    0  0.65208905079E+02  0.11901674283E+03 -0.38278249745E+03  0.40615479405E+03  0.47000000000E+01 0. -1.
        -11    1    4    4    0    0  0.64831455436E+02  0.14231518637E+02 -0.77432153267E+02  0.10198721536E+03  0.00000000000E+00 0.  1.
         12    1    4    4    0    0 -0.23248826004E+02  0.12653542346E+02 -0.19599318026E+02  0.32935593384E+02  0.00000000000E+00 0. -1.
         -5    1    5    5    0  502  0.12313740634E+02 -0.78201724307E+02  0.20241211320E+01  0.79330479385E+02  0.47000000000E+01 0.  1.
         13    1    6    6    0    0 -0.19529029613E+02 -0.46584218598E+02 -0.61150667720E+02  0.79315046382E+02  0.00000000000E+00 0. -1.
        -14    1    6    6    0    0 -0.99576245532E+02 -0.21115860908E+02 -0.43371475376E+02  0.11064534844E+03  0.00000000000E+00 0.  1.
</event>
<event>
12    1  0.8416569E-002  0.2357756E+03  0.7818608E-02  0.1122647E+00
         21   -1    0    0  503  502  0.00000000000E+00  0.00000000000E+00  0.70006960828E+03  0.70006960828E+03  0.00000000000E+00 0.  1.
         21   -1    0    0  501  503 -0.00000000000E+00 -0.00000000000E+00 -0.79527546636E+02  0.79527546636E+02  0.00000000000E+00 0.  1.
          6    2    1    2  501    0  0.10878516514E+03 -0.11883279277E+03  0.32639129903E+03  0.40264303398E+03  0.17214728560E+03 0.  0.
         24    2    3    3    0    0  0.11344134911E+02 -0.34855369441E+02  0.61156188236E+02  0.10782323139E+03  0.80883766556E+02 0.  0.
         -6    2    1    2    0  502 -0.10878516514E+03  0.11883279277E+03  0.29415076262E+03  0.37695412094E+03  0.17208803954E+03 0.  0.
        -24    2    5    5    0    0 -0.98252654832E+02  0.71762047723E+02  0.29464417154E+03  0.32848843963E+03  0.79284875447E+02 0.  0.
          5    1    3    3  501    0  0.97441030233E+02 -0.83977423325E+02  0.26523511079E+03  0.29481980259E+03  0.47000000000E+01 0. -1.
        -11    1    4    4    0    0  0.30068475818E+02 -0.54034524912E+02  0.39639110338E+02  0.73451359340E+02  0.00000000000E+00 0.  1.
         12    1    4    4    0    0 -0.18724340907E+02  0.19179155471E+02  0.21517077898E+02  0.34371872051E+02  0.00000000000E+00 0. -1.
         -5    1    5    5    0  502 -0.10532510312E+02  0.47070745043E+02 -0.49340891929E+00  0.48465681309E+02  0.47000000000E+01 0.  1.
         13    1    6    6    0    0 -0.29147670304E+02 -0.14437175253E+02  0.93559436908E+02  0.99052445442E+02  0.00000000000E+00 0. -1.
        -14    1    6    6    0    0 -0.69104984529E+02  0.86199222976E+02  0.20108473463E+03  0.22943599419E+03  0.00000000000E+00 0.  1.
</event>
<event>
12    1  0.8416569E-002  0.2031914E+03  0.7818608E-02  0.1147173E+00
         21   -1    0    0  503  502  0.00000000000E+00  0.00000000000E+00  0.98354107369E+03  0.98354107369E+03  0.00000000000E+00 0.  1.
         21   -1    0    0  501  503 -0.00000000000E+00 -0.00000000000E+00 -0.92707308138E+02  0.92707308138E+02  0.00000000000E+00 0. -1.
          6    2    1    2  501    0  0.10818849126E+03 -0.26251217977E+01  0.47199581626E+02  0.20860138200E+03  0.17197411190E+03 0.  0.
         24    2    3    3    0    0  0.75047106828E+02 -0.28765934412E+02  0.92694185168E+02  0.14636359286E+03  0.79815675934E+02 0.  0.
         -6    2    1    2    0  502 -0.10818849126E+03  0.26251217977E+01  0.84363418393E+03  0.86764699982E+03  0.17140898199E+03 0.  0.
        -24    2    5    5    0    0 -0.17837279549E+02  0.49881565324E+02  0.34267883380E+03  0.35639865926E+03  0.82370395679E+02 0.  0.
          5    1    3    3  501    0  0.33141384432E+02  0.26140812614E+02 -0.45494603542E+02  0.62237789145E+02  0.47000000000E+01 0. -1.
        -11    1    4    4    0    0  0.38556358719E+02 -0.55776854732E+02  0.57920196015E+02  0.89176226809E+02  0.00000000000E+00 0.  1.
         12    1    4    4    0    0  0.36490748110E+02  0.27010920320E+02  0.34773989154E+02  0.57187366051E+02  0.00000000000E+00 0. -1.
         -5    1    5    5    0  502 -0.90351211711E+02 -0.47256443526E+02  0.50095535013E+03  0.51124834057E+03  0.47000000000E+01 0.  1.
         11    1    6    6    0    0  0.98383409021E+01 -0.13275769466E+02  0.17819490708E+02  0.24301713020E+02  0.00000000000E+00 0. -1.
        -12    1    6    6    0    0 -0.27675620451E+02  0.63157334790E+02  0.32485934309E+03  0.33209694624E+03  0.00000000000E+00 0.  1.
</event>
<event>
12    1  0.8416569E-002  0.2434837E+03  0.7818608E-02  0.1117720E+00
         21   -1    0    0  501  502  0.00000000000E+00  0.00000000000E+00  0.91272954949E+02  0.91272954949E+02  0.00000000000E+00 0.  1.
         21   -1    0    0  502  503 -0.00000000000E+00 -0.00000000000E+00 -0.69409823035E+03  0.69409823035E+03  0.00000000000E+00 0.  1.
         -6    2    1    2    0  503 -0.10614337085E+03  0.13402722982E+03 -0.40574922172E+03  0.47319842373E+03  0.17336263665E+03 0.  0.
        -24    2    3    3    0    0 -0.14300677958E+03  0.97972433879E+02 -0.29679122983E+03  0.35256346524E+03  0.78526594919E+02 0.  0.
          6    2    1    2  501    0  0.10614337085E+03 -0.13402722982E+03 -0.19707605368E+03  0.31217276156E+03  0.17141513533E+03 0.  0.
         24    2    5    5    0    0  0.36270129720E+02 -0.11326042619E+03 -0.19526908258E+03  0.23910508674E+03  0.69984151368E+02 0.  0.
          5    1    5    5  501    0  0.69873241131E+02 -0.20766803633E+02 -0.18069710932E+01  0.73067674821E+02  0.47000000000E+01 0. -1.
        -13    1    6    6    0    0 -0.19196420482E+02 -0.12880546726E+02 -0.37595934744E+02  0.44134627591E+02  0.00000000000E+00 0.  1.
         14    1    6    6    0    0  0.55466550202E+02 -0.10037987946E+03 -0.15767314784E+03  0.19497045915E+03  0.00000000000E+00 0. -1.
         -5    1    3    3    0  503  0.36863408732E+02  0.36054795944E+02 -0.10895799189E+03  0.12063495849E+03  0.47000000000E+01 0.  1.
         13    1    4    4    0    0  0.85141426313E+01 -0.78626385531E+00 -0.21886433650E+02  0.23497336307E+02  0.00000000000E+00 0. -1.
        -14    1    4    4    0    0 -0.15152092221E+03  0.98758697735E+02 -0.27490479618E+03  0.32906612893E+03  0.00000000000E+00 0.  1.
</event>
<event>
12    1  0.8416569E-002  0.1858907E+03  0.7818608E-02  0.1162405E+00
         21   -1    0    0  503  502  0.00000000000E+00  0.00000000000E+00  0.24292307986E+03  0.24292307986E+03  0.00000000000E+00 0. -1.
         21   -1    0    0  501  503 -0.00000000000E+00 -0.00000000000E+00 -0.20284772194E+03  0.20284772194E+03  0.00000000000E+00 0. -1.
          6    2    1    2  501    0 -0.26433685623E+02 -0.63735480603E+02 -0.10242424409E+03  0.21154552800E+03  0.17175515543E+03 0.  0.
         24    2    3    3    0    0  0.35219566892E+02 -0.81677841878E+02 -0.60548116568E+02  0.13474219520E+03  0.81103002412E+02 0.  0.
         -6    2    1    2    0  502  0.26433685623E+02  0.63735480603E+02  0.14249960201E+03  0.23422527380E+03  0.17261051848E+03 0.  0.
        -24    2    5    5    0    0 -0.24578910976E+02 -0.20640431912E+02  0.48282879216E+02  0.97768465691E+02  0.78722843977E+02 0.  0.
          5    1    3    3  501    0 -0.61653252515E+02  0.17942361276E+02 -0.41876127523E+02  0.76803332806E+02  0.47000000000E+01 0. -1.
        -13    1    4    4    0    0  0.65979949422E+01  0.22452484547E+01  0.16095255660E+02  0.17539439348E+02  0.00000000000E+00 0.  1.
         14    1    4    4    0    0  0.28621571950E+02 -0.83923090333E+02 -0.76643372228E+02  0.11720275585E+03  0.00000000000E+00 0. -1.
         -5    1    5    5    0  502  0.51012596599E+02  0.84375912514E+02  0.94216722793E+02  0.13645680810E+03  0.47000000000E+01 0.  1.
         13    1    6    6    0    0 -0.43912832505E+02 -0.60518842204E+01  0.56839441573E+02  0.72081095160E+02  0.00000000000E+00 0. -1.
        -14    1    6    6    0    0  0.19333921529E+02 -0.14588547691E+02 -0.85565623565E+01  0.25687370531E+02  0.00000000000E+00 0.  1.
</event>
<event>
12    1  0.8416569E-002  0.2585827E+03  0.7818608E-02  0.1108042E+00
         21   -1    0    0  503  502  0.00000000000E+00  0.00000000000E+00  0.80634527818E+03  0.80634527818E+03  0.00000000000E+00 0.  1.
         21   -1    0    0  501  503 -0.00000000000E+00 -0.00000000000E+00 -0.12158730116E+03  0.12158730116E+03  0.00000000000E+00 0. -1.
          6    2    1    2  501    0 -0.18517315707E+03  0.50833321923E+02  0.80292295106E+02  0.27048007594E+03  0.17274111876E+03 0.  0.
         24    2    3    3    0    0 -0.24339600277E+02  0.47171233544E+02  0.42114291959E+02  0.10506999824E+03  0.80302861263E+02 0.  0.
         -6    2    1    2    0  502  0.18517315707E+03 -0.50833321923E+02  0.60446568191E+03  0.65745250339E+03  0.17318172215E+03 0.  0.
        -24    2    5    5    0    0  0.18060746795E+02 -0.20354029679E+02  0.13634019117E+03  0.15943733293E+03  0.78045744950E+02 0.  0.
          5    1    3    3  501    0 -0.16083355679E+03  0.36620883799E+01  0.38178003146E+02  0.16541007770E+03  0.47000000000E+01 0. -1.
        -11    1    4    4    0    0  0.14619664171E+02 -0.11502277787E+01 -0.14815024798E+02  0.20845684546E+02  0.00000000000E+00 0.  1.
         12    1    4    4    0    0 -0.38959264448E+02  0.48321461322E+02  0.56929316757E+02  0.84224313693E+02  0.00000000000E+00 0. -1.
         -5    1    5    5    0  502  0.16711241027E+03 -0.30479292244E+02  0.46812549075E+03  0.49801517046E+03  0.47000000000E+01 0.  1.
         11    1    6    6    0    0  0.10994257954E+02 -0.11762254016E+02  0.14465537703E+03  0.14554862566E+03  0.00000000000E+00 0. -1.
        -12    1    6    6    0    0  0.70664888411E+01 -0.85917756628E+01 -0.83151858653E+01  0.13888707267E+02  0.00000000000E+00 0.  1.
</event>
<event>
12    1  0.8416569E-002  0.2722722E+03  0.7818608E-02  0.1100021E+00
         21   -1    0    0  503  502  0.00000000000E+00  0.00000000000E+00  0.24814384181E+03  0.24814384181E+03  0.00000000000E+00 0. -1.
         21   -1    0    0  501  503 -0.00000000000E+00 -0.00000000000E+00 -0.53670609409E+03  0.53670609409E+03  0.00000000000E+00 0.  1.
          6    2    1    2  501    0  0.21100976730E+03  0.35196146207E+01 -0.40576516494E+03  0.48864866719E+03  0.17203093119E+03 0.  0.
         24    2    3    3    0    0  0.17096187210E+03 -0.44284440026E+02 -0.22280120822E+03  0.29529158558E+03  0.79797674089E+02 0.  0.
         -6    2    1    2    0  502 -0.21100976730E+03 -0.35196146207E+01  0.11720291266E+03  0.29620126871E+03  0.17164253339E+03 0.  0.
        -24    2    5    5    0    0 -0.80287310498E+02 -0.22420916966E+01  0.12006811942E+03  0.16535673429E+03  0.80469976228E+02 0.  0.
          5    1    3    3  501    0  0.40047895198E+02  0.47804054647E+02 -0.18296395672E+03  0.19335708161E+03  0.47000000000E+01 0. -1.
        -11    1    4    4    0    0  0.30948653783E+02  0.19237754789E+02 -0.22656279325E+02  0.42909408911E+02  0.00000000000E+00 0.  1.
         12    1    4    4    0    0  0.14001321832E+03 -0.63522194815E+02 -0.20014492890E+03  0.25238217667E+03  0.00000000000E+00 0. -1.
         -5    1    5    5    0  502 -0.13072245680E+03 -0.12775229240E+01 -0.28652067571E+01  0.13084453442E+03  0.47000000000E+01 0.  1.
         11    1    6    6    0    0 -0.10808078152E+02  0.22691942110E+02  0.74455776195E+02  0.78583722226E+02  0.00000000000E+00 0. -1.
        -12    1    6    6    0    0 -0.69479232346E+02 -0.24934033807E+02  0.45612343221E+02  0.86773012069E+02  0.00000000000E+00 0.  1.
</event>
<event>
12    1  0.8416569E-002  0.2016597E+03  0.7818608E-02  0.1148803E+00
         21   -1    0    0  503  502  0.00000000000E+00  0.00000000000E+00  0.27089415194E+03  0.27089415194E+03  0.00000000000E+00 0. -1.
         21   -1    0    0  501  503 -0.00000000000E+00 -0.00000000000E+00 -0.14893604298E+03  0.14893604298E+03  0.00000000000E+00 0.  1.
          6    2    1    2  501    0 -0.14885036581E+02  0.10467213071E+03  0.71953808248E+02  0.21206338120E+03  0.16916178015E+03 0.  0.
         24    2    3    3    0    0  0.34277493881E+02  0.37645851174E+02  0.85505810850E+02  0.12771159802E+03  0.80042812816E+02 0.  0.
         -6    2    1    2    0  502  0.14885036581E+02 -0.10467213071E+03  0.50004300710E+02  0.20776681372E+03  0.17172303145E+03 0.  0.
        -24    2    5    5    0    0  0.29765232802E+02 -0.13183526395E+03  0.68641106619E+02  0.17131579753E+03  0.79818513264E+02 0.  0.
          5    1    3    3  501    0 -0.49162530462E+02  0.67026279537E+02 -0.13552002602E+02  0.84351783173E+02  0.47000000000E+01 0. -1.
        -11    1    4    4    0    0  0.40348322416E+01  0.10948081898E+02 -0.15237397571E+02  0.19191629769E+02  0.00000000000E+00 0.  1.
         12    1    4    4    0    0  0.30242661640E+02  0.26697769276E+02  0.10074320842E+03  0.10851996826E+03  0.00000000000E+00 0. -1.
         -5    1    5    5    0  502 -0.14880196221E+02  0.27163133237E+02 -0.18636805909E+02  0.36451016190E+02  0.47000000000E+01 0.  1.
         13    1    6    6    0    0 -0.86691714957E+01  0.33623214780E+01 -0.70570021550E+01  0.11673089546E+02  0.00000000000E+00 0. -1.
        -14    1    6    6    0    0  0.38434404298E+02 -0.13519758543E+03  0.75698108774E+02  0.15964270798E+03  0.00000000000E+00 0.  1.
</event>
<event>
12    1  0.8416569E-002  0.1843785E+03  0.7818608E-02  0.1164087E+00
         21   -1    0    0  501  502  0.00000000000E+00  0.00000000000E+00  0.56216392272E+03  0.56216392272E+03  0.00000000000E+00 0.  1.
         21   -1    0    0  502  503 -0.00000000000E+00 -0.00000000000E+00 -0.29610131736E+03  0.29610131736E+03  0.00000000000E+00 0.  1.
         -6    2    1    2    0  503  0.35979381515E+02 -0.44015620889E+02 -0.25015064021E+03  0.31075838479E+03  0.17539538232E+03 0.  0.
        -24    2    3    3    0    0  0.75312938489E+02 -0.21479751440E+02 -0.86575075261E+02  0.14095246744E+03  0.78986935603E+02 0.  0.
          6    2    1    2  501    0 -0.35979381515E+02  0.44015620889E+02  0.51621324557E+03  0.54750685529E+03  0.17336594505E+03 0.  0.
         24    2    5    5    0    0  0.20983307371E+02  0.73384115998E+02  0.39673342314E+03  0.41184265809E+03  0.79946471607E+02 0.  0.
          5    1    5    5  501    0 -0.56962688886E+02 -0.29368495109E+02  0.11947982244E+03  0.13566419719E+03  0.47000000000E+01 0. -1.
        -13    1    6    6    0    0  0.43215170429E+02  0.17026296249E+02  0.22477122718E+03  0.22952026117E+03  0.00000000000E+00 0.  1.
         14    1    6    6    0    0 -0.22231863057E+02  0.56357819749E+02  0.17196219596E+03  0.18232239692E+03  0.00000000000E+00 0. -1.
         -5    1    3    3    0  503 -0.39333556974E+02 -0.22535869449E+02 -0.16357556495E+03  0.16980591735E+03  0.47000000000E+01 0.  1.
         13    1    4    4    0    0  0.77015958814E+01 -0.18337675363E+02  0.10593167863E+02  0.22534420832E+02  0.00000000000E+00 0. -1.
        -14    1    4    4    0    0  0.67611342608E+02 -0.31420760766E+01 -0.97168243124E+02  0.11841804661E+03  0.00000000000E+00 0.  1.
</event>
<event>
12    1  0.8416569E-002  0.2220273E+03  0.7818608E-02  0.1132565E+00
         21   -1    0    0  503  502  0.00000000000E+00  0.00000000000E+00  0.51474933816E+03  0.51474933816E+03  0.00000000000E+00 0. -1.
         21   -1    0    0  501  503 -0.00000000000E+00 -0.00000000000E+00 -0.13448981590E+03  0.13448981590E+03  0.00000000000E+00 0. -1.
          6    2    1    2  501    0  0.11746899633E+03  0.74955071727E+02  0.15283565097E+02  0.22255267284E+03  0.17285507499E+03 0.  0.
         24    2    3    3    0    0  0.39384911637E+02  0.34879770153E+02  0.71193688757E+02  0.11838364671E+03  0.78602651724E+02 0.  0.
         -6    2    1    2    0  502 -0.11746899633E+03 -0.74955071727E+02  0.36497595717E+03  0.42668648123E+03  0.17157119827E+03 0.  0.
        -24    2    5    5    0    0 -0.28082591592E+02  0.99530720820E+01  0.22117303934E+03  0.23721170346E+03  0.80400145092E+02 0.  0.
          5    1    3    3  501    0  0.78084084689E+02  0.40075301574E+02 -0.55910123659E+02  0.10416902613E+03  0.47000000000E+01 0. -1.
        -13    1    4    4    0    0 -0.31835643572E+01  0.43449426171E+02  0.58887276383E+02  0.73250931983E+02  0.00000000000E+00 0.  1.
         14    1    4    4    0    0  0.42568475994E+02 -0.85696560178E+01  0.12306412373E+02  0.45132714722E+02  0.00000000000E+00 0. -1.
         -5    1    5    5    0  502 -0.89386404733E+02 -0.84908143809E+02  0.14380291782E+03  0.18947477777E+03  0.47000000000E+01 0.  1.
         13    1    6    6    0    0 -0.13275855649E+02 -0.29245383865E+02  0.40218361214E+02  0.51468994544E+02  0.00000000000E+00 0. -1.
        -14    1    6    6    0    0 -0.14806735944E+02  0.39198455947E+02  0.18095467813E+03  0.18574270891E+03  0.00000000000E+00 0.  1.
</event>
<event>
12    1  0.8416569E-002  0.1862721E+03  0.7818608E-02  0.1162412E+00
         21   -1    0    0  503  502  0.00000000000E+00  0.00000000000E+00  0.21914516224E+03  0.21914516224E+03  0.00000000000E+00 0. -1.
         21   -1    0    0  501  503 -0.00000000000E+00 -0.00000000000E+00 -0.20145760252E+03  0.20145760252E+03  0.00000000000E+00 0.  1.
          6    2    1    2  501    0  0.51491097382E+02 -0.43395847079E+02 -0.90622645760E+02  0.20714667320E+03  0.17367425727E+03 0.  0.
         24    2    3    3    0    0  0.89114731239E+02  0.63938544179E+01 -0.78908174041E+02  0.14347665633E+03  0.79854456884E+02 0.  0.
         -6    2    1    2    0  502 -0.51491097382E+02  0.43395847079E+02  0.10831020548E+03  0.21345609157E+03  0.17116620509E+03 0.  0.
        -24    2    5    5    0    0 -0.26855601178E+02  0.67986982005E+02  0.60736452205E+01  0.10535412191E+03  0.75625054055E+02 0.  0.
          5    1    3    3  501    0 -0.37623633858E+02 -0.49789701497E+02 -0.11714471719E+02  0.63670016864E+02  0.47000000000E+01 0. -1.
        -13    1    4    4    0    0  0.50097836528E+02  0.11276103239E+02 -0.89115784287E+02  0.10285215962E+03  0.00000000000E+00 0.  1.
         14    1    4    4    0    0  0.39016894712E+02 -0.48822488215E+01  0.10207610246E+02  0.40624496716E+02  0.00000000000E+00 0. -1.
         -5    1    5    5    0  502 -0.24635496204E+02 -0.24591134926E+02  0.10223656026E+03  0.10810196966E+03  0.47000000000E+01 0.  1.
         11    1    6    6    0    0  0.17731209662E+02  0.21382026591E+02  0.25795964794E+02  0.37908028924E+02  0.00000000000E+00 0. -1.
        -12    1    6    6    0    0 -0.44586810840E+02  0.46604955414E+02 -0.19722319574E+02  0.67446092988E+02  0.00000000000E+00 0.  1.
</event>
<event>
12    1  0.8416569E-002  0.2232524E+03  0.7818608E-02  0.1131585E+00
         21   -1    0    0  503  502  0.00000000000E+00  0.00000000000E+00  0.42242382394E+04  0.42242382394E+04  0.00000000000E+00 0. -1.
         21   -1    0    0  501  503 -0.00000000000E+00 -0.00000000000E+00 -0.11812372318E+02  0.11812372318E+02  0.00000000000E+00 0.  1.
          6    2    1    2  501    0  0.82465270861E+02  0.11479980656E+03  0.22370861250E+04  0.22481983775E+04  0.17280653155E+03 0.  0.
         24    2    3    3    0    0  0.72332974474E+02  0.13856040279E+03  0.21515085353E+04  0.21586838914E+04  0.80598517375E+02 0.  0.
         -6    2    1    2    0  502 -0.82465270861E+02 -0.11479980656E+03  0.19753397421E+04  0.19878522343E+04  0.17207525109E+03 0.  0.
        -24    2    5    5    0    0 -0.52226109993E+01  0.11761495396E+01  0.91355414786E+03  0.91695187053E+03  0.78682226728E+02 0.  0.
          5    1    3    3  501    0  0.10132296387E+02 -0.23760596230E+02  0.85577589713E+02  0.89514486115E+02  0.47000000000E+01 0. -1.
        -13    1    4    4    0    0  0.43550864598E+02  0.20058771456E+02  0.38558184913E+03  0.38855166259E+03  0.00000000000E+00 0.  1.
         14    1    4    4    0    0  0.28782109877E+02  0.11850163134E+03  0.17659266861E+04  0.17701322288E+04  0.00000000000E+00 0. -1.
         -5    1    5    5    0  502 -0.77242659862E+02 -0.11597595610E+03  0.10617855943E+04  0.10709003638E+04  0.47000000000E+01 0.  1.
         11    1    6    6    0    0  0.18220276052E+02  0.14229453124E+01  0.82917431461E+03  0.82937569729E+03  0.00000000000E+00 0. -1.
        -12    1    6    6    0    0 -0.23442887051E+02 -0.24679577283E+00  0.84379833243E+02  0.87576173241E+02  0.00000000000E+00 0.  1.
</event>
<event>
12    1  0.8416569E-002  0.1975224E+03  0.7818608E-02  0.1152115E+00
         21   -1    0    0  501  502  0.00000000000E+00  0.00000000000E+00  0.26677865529E+03  0.26677865529E+03  0.00000000000E+00 0.  1.
         21   -1    0    0  502  503 -0.00000000000E+00 -0.00000000000E+00 -0.18550923895E+03  0.18550923895E+03  0.00000000000E+00 0.  1.
         -6    2    1    2    0  503  0.74891592695E+02 -0.61179532195E+02  0.14578944428E+03  0.24449493502E+03  0.17079673700E+03 0.  0.
        -24    2    3    3    0    0 -0.27080008800E+02 -0.28244943055E+02  0.63190523798E+02  0.10911559266E+03  0.79887837484E+02 0.  0.
          6    2    1    2  501    0 -0.74891592695E+02  0.61179532195E+02 -0.64520027946E+02  0.20779295922E+03  0.17223064211E+03 0.  0.
         24    2    5    5    0    0 -0.75588613854E+02  0.52235293262E+02 -0.10800115491E+03  0.16314787382E+03  0.80689620557E+02 0.  0.
          5    1    5    5  501    0  0.69702115896E+00  0.89442389336E+01  0.43481126960E+02  0.44645085400E+02  0.47000000000E+01 0. -1.
        -11    1    6    6    0    0 -0.33282764583E+02 -0.12126964723E+02 -0.69637178288E+01  0.36101233464E+02  0.00000000000E+00 0.  1.
         12    1    6    6    0    0 -0.42305849271E+02  0.64362257984E+02 -0.10103743708E+03  0.12704664036E+03  0.00000000000E+00 0. -1.
         -5    1    3    3    0  503  0.10197160149E+03 -0.32934589141E+02  0.82598920484E+02  0.13537934236E+03  0.47000000000E+01 0.  1.
         11    1    4    4    0    0 -0.25040387223E+02 -0.36628411481E+02 -0.96737128277E+00  0.44380145640E+02  0.00000000000E+00 0. -1.
        -12    1    4    4    0    0 -0.20396215768E+01  0.83834684259E+01  0.64157895081E+02  0.64735447015E+02  0.00000000000E+00 0.  1.
</event>
<event>
12    1  0.8416569E-002  0.1955572E+03  0.7818608E-02  0.1153671E+00
         21   -1    0    0  501  502  0.00000000000E+00  0.00000000000E+00  0.87947844890E+03  0.87947844890E+03  0.00000000000E+00 0. -1.
         21   -1    0    0  502  503 -0.00000000000E+00 -0.00000000000E+00 -0.57194404236E+02  0.57194404236E+02  0.00000000000E+00 0. -1.
         -6    2    1    2    0  503 -0.79919185504E+02 -0.41991406409E+02  0.18027062835E+03  0.26553661431E+03  0.17280578598E+03 0.  0.
        -24    2    3    3    0    0 -0.49028675328E+02 -0.31088122615E+02  0.22122872402E+02  0.10396338655E+03  0.83358754119E+02 0.  0.
          6    2    1    2  501    0  0.79919185504E+02  0.41991406409E+02  0.64201341632E+03  0.67113623883E+03  0.17347123656E+03 0.  0.
         24    2    5    5    0    0  0.10724837581E+03  0.48250646329E+02  0.34804361131E+03  0.37579508189E+03  0.79102776270E+02 0.  0.
          5    1    5    5  501    0 -0.27329190301E+02 -0.62592399206E+01  0.29396980501E+03  0.29534115694E+03  0.47000000000E+01 0. -1.
        -11    1    6    6    0    0  0.19017229771E+02  0.36109187880E+00  0.69754433555E+01  0.20259373769E+02  0.00000000000E+00 0.  1.
         12    1    6    6    0    0  0.88231146034E+02  0.47889554450E+02  0.34106816795E+03  0.35553570812E+03  0.00000000000E+00 0. -1.
         -5    1    3    3    0  503 -0.30890510176E+02 -0.10903283793E+02  0.15814775594E+03  0.16157322775E+03  0.47000000000E+01 0.  1.
         13    1    4    4    0    0 -0.55724028087E+02  0.10167886600E+02 -0.63298744261E-01  0.56644127947E+02  0.00000000000E+00 0. -1.
        -14    1    4    4    0    0  0.66953527591E+01 -0.41256009215E+02  0.22186171146E+02  0.47319258606E+02  0.00000000000E+00 0.  1.
</event>
<event>
12    1  0.8416569E-002  0.1766368E+03  0.7818608E-02  0.1171238E+00
         21   -1    0    0  503  502  0.00000000000E+00  0.00000000000E+00  0.25324345456E+04  0.25324345456E+04  0.00000000000E+00 0.  1.
         21   -1    0    0  501  503 -0.00000000000E+00 -0.00000000000E+00 -0.15259353121E+02  0.15259353121E+02  0.00000000000E+00 0.  1.
          6    2    1    2  501    0 -0.15463505243E+02 -0.35099797260E+02  0.69421952977E+03  0.71620054863E+03  0.17184689285E+03 0.  0.
         24    2    3    3    0    0 -0.31607627111E+01 -0.66281714738E+02  0.66051800925E+03  0.66843495498E+03  0.78217596272E+02 0.  0.
         -6    2    1    2    0  502  0.15463505243E+02  0.35099797260E+02  0.18229556627E+04  0.18314933501E+04  0.17242223600E+03 0.  0.
        -24    2    5    5    0    0 -0.34271535002E+02  0.38087982274E+02  0.59457069413E+03  0.60208933818E+03  0.79824985597E+02 0.  0.
          5    1    3    3  501    0 -0.12302742531E+02  0.31181917477E+02  0.33701520522E+02  0.47765593651E+02  0.47000000000E+01 0. -1.
        -13    1    4    4    0    0 -0.13220850401E+02 -0.76959009421E+01  0.20075502254E+02  0.25239722015E+02  0.00000000000E+00 0.  1.
         14    1    4    4    0    0  0.10060087690E+02 -0.58585813795E+02  0.64044250699E+03  0.64319523296E+03  0.00000000000E+00 0. -1.
         -5    1    5    5    0  502  0.49735040244E+02 -0.29881850133E+01  0.12283849686E+04  0.12294040119E+04  0.47000000000E+01 0.  1.
         13    1    6    6    0    0 -0.52863691285E+02  0.82845320312E+00  0.35775505235E+03  0.36164061397E+03  0.00000000000E+00 0. -1.
        -14    1    6    6    0    0  0.18592156283E+02  0.37259529071E+02  0.23681564177E+03  0.24044872420E+03  0.00000000000E+00 0.  1.
</event>
<event>
12    1  0.8416569E-002  0.1782093E+03  0.7818608E-02  0.1170684E+00
         21   -1    0    0  503  502  0.00000000000E+00  0.00000000000E+00  0.28333951553E+03  0.28333951553E+03  0.00000000000E+00 0. -1.
         21   -1    0    0  501  503 -0.00000000000E+00 -0.00000000000E+00 -0.12062566188E+03  0.12062566188E+03  0.00000000000E+00 0. -1.
          6    2    1    2  501    0  0.30594252240E+02 -0.33582349961E+02  0.18323016136E+02  0.17460239878E+03  0.16759022119E+03 0.  0.
         24    2    3    3    0    0  0.39845734760E+02 -0.46843912399E+02  0.64631638313E+02  0.12532727874E+03  0.88020698799E+02 0.  0.
         -6    2    1    2    0  502 -0.30594252240E+02  0.33582349961E+02  0.14439083751E+03  0.22936277863E+03  0.17232175651E+03 0.  0.
        -24    2    5    5    0    0  0.26101575823E+02  0.57258084858E+02  0.34938403181E+02  0.10375671698E+03  0.74732748910E+02 0.  0.
          5    1    3    3  501    0 -0.92514825194E+01  0.13261562438E+02 -0.46308622177E+02  0.49275120041E+02  0.47000000000E+01 0. -1.
        -11    1    4    4    0    0 -0.10452255660E+02 -0.41156690411E+02  0.61337525565E+02  0.74601708133E+02  0.00000000000E+00 0.  1.
         12    1    4    4    0    0  0.50297990420E+02 -0.56872219872E+01  0.32941127481E+01  0.50725570603E+02  0.00000000000E+00 0. -1.
         -5    1    5    5    0  502 -0.56695828063E+02 -0.23675734897E+02  0.10945243433E+03  0.12560606165E+03  0.47000000000E+01 0.  1.
         11    1    6    6    0    0  0.21014133269E+02  0.28824576486E+02  0.57115798264E+02  0.67339916974E+02  0.00000000000E+00 0. -1.
        -12    1    6    6    0    0  0.50874425538E+01  0.28433508372E+02 -0.22177395083E+02  0.36416800007E+02  0.00000000000E+00 0.  1.
</event>
<event>
12    1  0.8416569E-002  0.2111362E+03  0.7818608E-02  0.1140693E+00
         21   -1    0    0  501  502  0.00000000000E+00  0.00000000000E+00  0.59432678042E+02  0.59432678042E+02  0.00000000000E+00 0. -1.
         21   -1    0    0  502  503 -0.00000000000E+00 -0.00000000000E+00 -0.75161729609E+03  0.75161729609E+03  0.00000000000E+00 0. -1.
         -6    2    1    2    0  503  0.73003007186E+02 -0.97365111055E+02 -0.36702263708E+03  0.42341952940E+03  0.17253717814E+03 0.  0.
        -24    2    3    3    0    0  0.10950288771E+03 -0.43184674678E+02 -0.21701470941E+03  0.25973620915E+03  0.80695202445E+02 0.  0.
          6    2    1    2  501    0 -0.73003007186E+02  0.97365111055E+02 -0.32516198096E+03  0.38763044473E+03  0.17238806196E+03 0.  0.
         24    2    5    5    0    0 -0.16532312638E+02  0.41421972670E+01 -0.63664225962E+02  0.10428857195E+03  0.80823866605E+02 0.  0.
          5    1    5    5  501    0 -0.56470694548E+02  0.93222913788E+02 -0.26149775500E+03  0.28334187278E+03  0.47000000000E+01 0. -1.
        -11    1    6    6    0    0 -0.32175543636E+02 -0.30455907733E+02 -0.38886409359E+02  0.58948967396E+02  0.00000000000E+00 0.  1.
         12    1    6    6    0    0  0.15643230998E+02  0.34598105000E+02 -0.24777816602E+02  0.45339604556E+02  0.00000000000E+00 0. -1.
         -5    1    3    3    0  503 -0.36499880529E+02 -0.54180436377E+02 -0.15000792767E+03  0.16368332025E+03  0.47000000000E+01 0.  1.
         13    1    4    4    0    0  0.37202394186E+02 -0.41833286347E+02 -0.40834334715E+02  0.69292747610E+02  0.00000000000E+00 0. -1.
        -14    1    4    4    0    0  0.72300493529E+02 -0.13513883316E+01 -0.17618037470E+03  0.19044346154E+03  0.00000000000E+00 0.  1.
</event>
<event>
12    1  0.8416569E-002  0.1702419E+03  0.7818608E-02  0.1178144E+00
         21   -1    0    0  503  502  0.00000000000E+00  0.00000000000E+00  0.67785253670E+03  0.67785253670E+03  0.00000000000E+00 0.  1.
         21   -1    0    0  501  503 -0.00000000000E+00 -0.00000000000E+00 -0.46506551881E+02  0.46506551881E+02  0.00000000000E+00 0.  1.
          6    2    1    2  501    0  0.24537959616E+02  0.81400224300E+01  0.20764542651E+03  0.26851246550E+03  0.16826749404E+03 0.  0.
         24    2    3    3    0    0  0.28356707745E+01 -0.49834761234E+02  0.17843016011E+03  0.19989988158E+03  0.75040630075E+02 0.  0.
         -6    2    1    2    0  502 -0.24537959616E+02 -0.81400224300E+01  0.42370055830E+03  0.45584662307E+03  0.16614935822E+03 0.  0.
        -24    2    5    5    0    0  0.84988662695E+01  0.49898107239E+02  0.17907849091E+03  0.20222899314E+03  0.79154329792E+02 0.  0.
          5    1    3    3  501    0  0.21702288842E+02  0.57974783664E+02  0.29215266404E+02  0.68612583925E+02  0.47000000000E+01 0. -1.
        -11    1    4    4    0    0 -0.21459387868E+02  0.49267016755E+01  0.17325903878E+02  0.28017220816E+02  0.00000000000E+00 0.  1.
         12    1    4    4    0    0  0.24295058643E+02 -0.54761462910E+02  0.16110425623E+03  0.17188266076E+03  0.00000000000E+00 0. -1.
         -5    1    5    5    0  502 -0.33036825886E+02 -0.58038129669E+02  0.24462206739E+03  0.25361762994E+03  0.47000000000E+01 0.  1.
         13    1    6    6    0    0  0.20080784957E+02 -0.10677216302E+02  0.15803365033E+02  0.27694534096E+02  0.00000000000E+00 0. -1.
        -14    1    6    6    0    0 -0.11581918687E+02  0.60575323541E+02  0.16327512588E+03  0.17453445904E+03  0.00000000000E+00 0.  1.
</event>
<event>
12    1  0.8416569E-002  0.1736006E+03  0.7818608E-02  0.1174417E+00
         21   -1    0    0  503  502  0.00000000000E+00  0.00000000000E+00  0.57246694951E+03  0.57246694951E+03  0.00000000000E+00 0.  1.
         21   -1    0    0  501  503 -0.00000000000E+00 -0.00000000000E+00 -0.54506113415E+02  0.54506113415E+02  0.00000000000E+00 0.  1.
          6    2    1    2  501    0  0.25887967174E+02 -0.17004108894E-01  0.19542248206E+03  0.26068332705E+03  0.17057450974E+03 0.  0.
         24    2    3    3    0    0  0.85902407399E+01 -0.45525280946E+02  0.18762281966E+03  0.21115415046E+03  0.85072964898E+02 0.  0.
         -6    2    1    2    0  502 -0.25887967174E+02  0.17004108894E-01  0.32253835403E+03  0.36628973588E+03  0.17165952829E+03 0.  0.
        -24    2    5    5    0    0 -0.74955450675E+02 -0.30900595791E+02  0.21845167764E+03  0.24704359496E+03  0.82074575487E+02 0.  0.
          5    1    3    3  501    0  0.17297726434E+02  0.45508276837E+02  0.77996624032E+01  0.49529176594E+02  0.47000000000E+01 0. -1.
        -11    1    4    4    0    0 -0.54662925014E+00 -0.13702630484E+02 -0.58207666013E+01  0.14897724979E+02  0.00000000000E+00 0.  1.
         12    1    4    4    0    0  0.91368699901E+01 -0.31822650462E+02  0.19344358626E+03  0.19625642548E+03  0.00000000000E+00 0. -1.
         -5    1    5    5    0  502  0.49067483501E+02  0.30917599899E+02  0.10408667639E+03  0.11924614092E+03  0.47000000000E+01 0.  1.
         11    1    6    6    0    0 -0.29947561392E+02 -0.47338609737E+02  0.62651541074E+02  0.84041751553E+02  0.00000000000E+00 0. -1.
        -12    1    6    6    0    0 -0.45007889283E+02  0.16438013947E+02  0.15580013657E+03  0.16300184341E+03  0.00000000000E+00 0.  1.
</event>
<event>
12    1  0.8416569E-002  0.2169531E+03  0.7818608E-02  0.1136207E+00
         21   -1    0    0  503  502  0.00000000000E+00  0.00000000000E+00  0.37374317038E+03  0.37374317038E+03  0.00000000000E+00 0. -1.
         21   -1    0    0  501  503 -0.00000000000E+00 -0.00000000000E+00 -0.36873671930E+03  0.36873671930E+03  0.00000000000E+00 0.  1.
          6    2    1    2  501    0  0.87638215555E+02 -0.98331078988E+02 -0.29880037005E+03  0.36925642980E+03  0.17239255173E+03 0.  0.
         24    2    3    3    0    0  0.12657971701E+03 -0.64296248731E+02 -0.23922542886E+03  0.29022432352E+03  0.82734030425E+02 0.  0.
         -6    2    1    2    0  502 -0.87638215555E+02  0.98331078988E+02  0.30380682112E+03  0.37322345988E+03  0.17218509960E+03 0.  0.
        -24    2    5    5    0    0 -0.11990890323E+03  0.75162919323E+02  0.17744726850E+03  0.24068294741E+03  0.80082073923E+02 0.  0.
          5    1    3    3  501    0 -0.38941501456E+02 -0.34034830257E+02 -0.59574941190E+02  0.79032106286E+02  0.47000000000E+01 0. -1.
        -11    1    4    4    0    0 -0.74186214253E+01 -0.15465815298E+02 -0.52710495937E+02  0.55431252634E+02  0.00000000000E+00 0.  1.
         12    1    4    4    0    0  0.13399833844E+03 -0.48830433433E+02 -0.18651493292E+03  0.23479307088E+03  0.00000000000E+00 0. -1.
         -5    1    5    5    0  502  0.32270687673E+02  0.23168159665E+02  0.12635955262E+03  0.13254051246E+03  0.47000000000E+01 0.  1.
         11    1    6    6    0    0 -0.30801246235E+02 -0.90786473033E+01  0.11000867768E+02  0.33943448531E+02  0.00000000000E+00 0. -1.
        -12    1    6    6    0    0 -0.89107656993E+02  0.84241566626E+02  0.16644640073E+03  0.20673949888E+03  0.00000000000E+00 0.  1.
</event>
<event>
12    1  0.8416569E-002  0.2215427E+03  0.7818608E-02  0.1133194E+00
         21   -1    0    0  501  502  0.00000000000E+00  0.00000000000E+00  0.67440871640E+03  0.67440871640E+03  0.00000000000E+00 0.  1.
         21   -1    0    0  502  503 -0.00000000000E+00 -0.00000000000E+00 -0.14851191607E+03  0.14851191607E+03  0.00000000000E+00 0. -1.
         -6    2    1    2    0  503 -0.42072292423E+02  0.13322096293E+03 -0.31725158498E+02  0.22380270168E+03  0.17193970119E+03 0.  0.
        -24    2    3    3    0    0  0.13682911511E+02  0.14347510303E+03 -0.26236405567E+02  0.16665371601E+03  0.79453035343E+02 0.  0.
          6    2    1    2  501    0  0.42072292423E+02 -0.13322096293E+03  0.55762195883E+03  0.59911793079E+03  0.16876653480E+03 0.  0.
         24    2    5    5    0    0  0.83695793246E+02 -0.12760373318E+03  0.44933540033E+03  0.48287620918E+03  0.89327671362E+02 0.  0.
          5    1    5    5  501    0 -0.41623500823E+02 -0.56172297480E+01  0.10828655850E+03  0.11624172161E+03  0.47000000000E+01 0. -1.
        -11    1    6    6    0    0  0.26366266210E+02 -0.57812109955E+02  0.31267904505E+03  0.31906990655E+03  0.00000000000E+00 0.  1.
         12    1    6    6    0    0  0.57329527036E+02 -0.69791623225E+02  0.13665635528E+03  0.16380630263E+03  0.00000000000E+00 0. -1.
         -5    1    3    3    0  503 -0.55755203934E+02 -0.10254140102E+02 -0.54887529312E+01  0.57148985675E+02  0.47000000000E+01 0.  1.
         11    1    4    4    0    0 -0.45286112827E+01  0.49698569339E+02 -0.47379582687E+02  0.68813377842E+02  0.00000000000E+00 0. -1.
        -12    1    4    4    0    0  0.18211522793E+02  0.93776533691E+02  0.21143177120E+02  0.97840338165E+02  0.00000000000E+00 0.  1.
</event>
<event>
12    1  0.8416569E-002  0.2048453E+03  0.7818608E-02  0.1145806E+00
         21   -1    0    0  501  502  0.00000000000E+00  0.00000000000E+00  0.46932183764E+03  0.46932183764E+03  0.00000000000E+00 0.  1.
         21   -1    0    0  502  503 -0.00000000000E+00 -0.00000000000E+00 -0.15969170476E+03  0.15969170476E+03  0.00000000000E+00 0.  1.
         -6    2    1    2    0  503 -0.61661471724E+02  0.91638996883E+02 -0.54028015306E+02  0.21185044036E+03  0.17251591172E+03 0.  0.
        -24    2    3    3    0    0  0.33879745124E+02  0.34678906881E+02 -0.38224614105E+02  0.99403059511E+02  0.77906247532E+02 0.  0.
          6    2    1    2  501    0  0.61661471724E+02 -0.91638996883E+02  0.36365814818E+03  0.41716310204E+03  0.17198244713E+03 0.  0.
         24    2    5    5    0    0 -0.11888550568E+02 -0.57356814828E+02  0.97651172939E+02  0.13901444635E+03  0.79737838418E+02 0.  0.
          5    1    5    5  501    0  0.73550022293E+02 -0.34282182055E+02  0.26600697525E+03  0.27814865569E+03  0.47000000000E+01 0. -1.
        -13    1    6    6    0    0  0.10954590922E+02 -0.45788566279E+02  0.10577927360E+02  0.48254413387E+02  0.00000000000E+00 0.  1.
         14    1    6    6    0    0 -0.22843141490E+02 -0.11568248550E+02  0.87073245578E+02  0.90760032962E+02  0.00000000000E+00 0. -1.
         -5    1    3    3    0  503 -0.95541216848E+02  0.56960090003E+02 -0.15803401201E+02  0.11244738085E+03  0.47000000000E+01 0.  1.
         11    1    4    4    0    0  0.13866697010E+02 -0.24169771264E+02 -0.21029573543E+02  0.34909971245E+02  0.00000000000E+00 0. -1.
        -12    1    4    4    0    0  0.20013048114E+02  0.58848678144E+02 -0.17195040562E+02  0.64493088266E+02  0.00000000000E+00 0.  1.
</event>
<event>
12    1  0.8416569E-002  0.1917731E+03  0.7818608E-02  0.1157168E+00
         21   -1    0    0  503  502  0.00000000000E+00  0.00000000000E+00  0.73998198883E+02  0.73998198883E+02  0.00000000000E+00 0. -1.
         21   -1    0    0  501  503 -0.00000000000E+00 -0.00000000000E+00 -0.54117660226E+03  0.54117660226E+03  0.00000000000E+00 0. -1.
          6    2    1    2  501    0 -0.98755919814E+00 -0.82355912600E+02 -0.32555564955E+03  0.37784043820E+03  0.17318615468E+03 0.  0.
         24    2    3    3    0    0  0.24770716988E+02 -0.64436410291E+00 -0.25032901286E+03  0.26372907673E+03  0.79211158346E+02 0.  0.
         -6    2    1    2    0  502  0.98755919814E+00  0.82355912600E+02 -0.14162275382E+03  0.23733436294E+03  0.17171815227E+03 0.  0.
        -24    2    5    5    0    0  0.23146152709E+02  0.21698677938E+02  0.37325831005E-01  0.81578234484E+02  0.75156037275E+02 0.  0.
          5    1    3    3  501    0 -0.25758276186E+02 -0.81711548497E+02 -0.75226636689E+02  0.11411136147E+03  0.47000000000E+01 0. -1.
        -11    1    4    4    0    0  0.39057301188E+02  0.28196407070E+02 -0.18087898634E+03  0.18718364738E+03  0.00000000000E+00 0.  1.
         12    1    4    4    0    0 -0.14286584200E+02 -0.28840771173E+02 -0.69450026523E+02  0.76545429347E+02  0.00000000000E+00 0. -1.
         -5    1    5    5    0  502 -0.22158593511E+02  0.60657234662E+02 -0.14166007966E+03  0.15575612845E+03  0.47000000000E+01 0.  1.
         11    1    6    6    0    0 -0.24277612851E+02  0.23041123680E+02  0.51348427014E+01  0.33862405049E+02  0.00000000000E+00 0. -1.
        -12    1    6    6    0    0  0.47423765560E+02 -0.13424457422E+01 -0.50975168704E+01  0.47715829435E+02  0.00000000000E+00 0.  1.
</event>
<event>
12    1  0.8416569E-002  0.2418313E+03  0.7818608E-02  0.1118602E+00
         21   -1    0    0  501  502  0.00000000000E+00  0.00000000000E+00  0.15901794152E+03  0.15901794152E+03  0.00000000000E+00 0.  1.
         21   -1    0    0  502  503 -0.00000000000E+00 -0.00000000000E+00 -0.49226335682E+03  0.49226335682E+03  0.00000000000E+00 0. -1.
         -6    2    1    2    0  503 -0.15103747271E+03 -0.77616640207E+02 -0.33055749875E+03  0.40957372660E+03  0.17217931507E+03 0.  0.
        -24    2    3    3    0    0 -0.81504039127E+02  0.22864112766E+02 -0.18146317337E+03  0.21674611456E+03  0.82971795452E+02 0.  0.
          6    2    1    2  501    0  0.15103747271E+03  0.77616640207E+02 -0.26879165456E+01  0.24170757174E+03  0.17198448866E+03 0.  0.
         24    2    5    5    0    0  0.12725249037E+03  0.73226564897E+02  0.57004351335E+02  0.17713006024E+03  0.81056992657E+02 0.  0.
          5    1    5    5  501    0  0.23784982345E+02  0.43900753108E+01 -0.59692267880E+02  0.64577511496E+02  0.47000000000E+01 0. -1.
        -11    1    6    6    0    0  0.85523010762E+02  0.33106251956E+02  0.72840709882E+02  0.11711523515E+03  0.00000000000E+00 0.  1.
         12    1    6    6    0    0  0.41729479605E+02  0.40120312940E+02 -0.15836358547E+02  0.60014825089E+02  0.00000000000E+00 0. -1.
         -5    1    3    3    0  503 -0.69533433584E+02 -0.10048075297E+03 -0.14909432539E+03  0.19282761204E+03  0.47000000000E+01 0.  1.
         13    1    4    4    0    0  0.11580817798E+02  0.21188621980E+02 -0.51472321326E+02  0.56854840647E+02  0.00000000000E+00 0. -1.
        -14    1    4    4    0    0 -0.93084856926E+02  0.16754907853E+01 -0.12999085204E+03  0.15989127391E+03  0.00000000000E+00 0.  1.
</event>
<event>
12    1  0.8416569E-002  0.1993580E+03  0.7818608E-02  0.1150811E+00
         21   -1    0    0  501  502  0.00000000000E+00  0.00000000000E+00  0.15769298854E+03  0.15769298854E+03  0.00000000000E+00 0.  1.
         21   -1    0    0  502  503 -0.00000000000E+00 -0.00000000000E+00 -0.24923138413E+03  0.24923138413E+03  0.00000000000E+00 0. -1.
         -6    2    1    2    0  503 -0.97760289206E+02 -0.22716105786E+02 -0.38080138195E+02  0.20052328557E+03  0.16937058636E+03 0.  0.
        -24    2    3    3    0    0 -0.11001083956E+03  0.69363968511E+01 -0.61501303644E+02  0.16052343698E+03  0.99170888112E+02 0.  0.
          6    2    1    2  501    0  0.97760289206E+02  0.22716105786E+02 -0.53458257394E+02  0.20640108709E+03  0.17225135083E+03 0.  0.
         24    2    5    5    0    0  0.86915359891E+02  0.69939983214E+02 -0.11161165790E+02  0.14191201011E+03  0.86997505458E+02 0.  0.
          5    1    5    5  501    0  0.10844929315E+02 -0.47223877428E+02 -0.42297091604E+02  0.64489076977E+02  0.47000000000E+01 0. -1.
        -11    1    6    6    0    0  0.22632871350E+02 -0.99359863330E+01  0.23077448627E+02  0.33816258295E+02  0.00000000000E+00 0.  1.
         12    1    6    6    0    0  0.64282488541E+02  0.79875969547E+02 -0.34238614418E+02  0.10809575182E+03  0.00000000000E+00 0. -1.
         -5    1    3    3    0  503  0.12250550349E+02 -0.29652502637E+02  0.23421165449E+02  0.39999848593E+02  0.47000000000E+01 0.  1.
         11    1    4    4    0    0 -0.48230300996E+02  0.26455438831E+02  0.18078303075E+02  0.57904034574E+02  0.00000000000E+00 0. -1.
        -12    1    4    4    0    0 -0.61780538560E+02 -0.19519041980E+02 -0.79579606719E+02  0.10261940241E+03  0.00000000000E+00 0.  1.
</event>
<event>
12    1  0.8416569E-002  0.2395528E+03  0.7818608E-02  0.1120111E+00
         21   -1    0    0  503  502  0.00000000000E+00  0.00000000000E+00  0.22088218453E+03  0.22088218453E+03  0.00000000000E+00 0. -1.
         21   -1    0    0  501  503 -0.00000000000E+00 -0.00000000000E+00 -0.26644631421E+03  0.26644631421E+03  0.00000000000E+00 0. -1.
          6    2    1    2  501    0 -0.14440826438E+03 -0.84149475042E+02 -0.61648217542E+02  0.24735816983E+03  0.17161200565E+03 0.  0.
         24    2    3    3    0    0 -0.13370310900E+03 -0.85616576195E+02  0.31445789651E+01  0.18150265209E+03  0.87901108431E+02 0.  0.
         -6    2    1    2    0  502  0.14440826438E+03  0.84149475042E+02  0.16084087867E+02  0.23997032890E+03  0.17144147660E+03 0.  0.
        -24    2    5    5    0    0  0.15772078567E+03  0.83032383423E+02  0.51194727694E+02  0.20211114051E+03  0.80360376106E+02 0.  0.
          5    1    3    3  501    0 -0.10705155384E+02  0.14671011525E+01 -0.64792796508E+02  0.65855517740E+02  0.47000000000E+01 0. -1.
        -11    1    4    4    0    0 -0.31223470701E+02  0.73748311205E+01  0.25938235965E+02  0.41256336988E+02  0.00000000000E+00 0.  1.
         12    1    4    4    0    0 -0.10247963830E+03 -0.92991407315E+02 -0.22793657000E+02  0.14024631510E+03  0.00000000000E+00 0. -1.
         -5    1    5    5    0  502 -0.13312521281E+02  0.11170916194E+01 -0.35110639827E+02  0.37859188391E+02  0.47000000000E+01 0.  1.
         11    1    6    6    0    0  0.60370785283E+02  0.71593812354E+02  0.50854676012E+01  0.93787886551E+02  0.00000000000E+00 0. -1.
        -12    1    6    6    0    0  0.97350000382E+02  0.11438571069E+02  0.46109260093E+02  0.10832325396E+03  0.00000000000E+00 0.  1.
</event>
<event>
12    1  0.8416569E-002  0.2218633E+03  0.7818608E-02  0.1132637E+00
         21   -1    0    0  503  502  0.00000000000E+00  0.00000000000E+00  0.51311021823E+03  0.51311021823E+03  0.00000000000E+00 0.  1.
         21   -1    0    0  501  503 -0.00000000000E+00 -0.00000000000E+00 -0.11277822057E+03  0.11277822057E+03  0.00000000000E+00 0. -1.
          6    2    1    2  501    0 -0.13758374136E+03 -0.13390751642E+02  0.78361929866E+02  0.23529541125E+03  0.17353599162E+03 0.  0.
         24    2    3    3    0    0 -0.14827916472E+03 -0.16236312030E+02  0.11154302446E+03  0.20000285774E+03  0.72862667251E+02 0.  0.
         -6    2    1    2    0  502  0.13758374136E+03  0.13390751642E+02  0.32197006780E+03  0.39059302754E+03  0.17259661206E+03 0.  0.
        -24    2    5    5    0    0  0.76343918090E+02 -0.25032192840E+02  0.13381221279E+03  0.18896935082E+03  0.10653029029E+03 0.  0.
          5    1    3    3  501    0  0.10695423363E+02  0.28455603885E+01 -0.33181094597E+02  0.35292553514E+02  0.47000000000E+01 0. -1.
        -11    1    4    4    0    0 -0.47585526633E+02 -0.40136970116E+02  0.36455489561E+02  0.72141260276E+02  0.00000000000E+00 0.  1.
         12    1    4    4    0    0 -0.10069363809E+03  0.23900658086E+02  0.75087534902E+02  0.12786159746E+03  0.00000000000E+00 0. -1.
         -5    1    5    5    0  502  0.61239823266E+02  0.38422944482E+02  0.18815785500E+03  0.20162367673E+03  0.47000000000E+01 0.  1.
         11    1    6    6    0    0  0.73170916366E+02  0.24878452668E+02  0.10767469936E+03  0.13253965931E+03  0.00000000000E+00 0. -1.
        -12    1    6    6    0    0  0.31730017241E+01 -0.49910645508E+02  0.26137513432E+02  0.56429691505E+02  0.00000000000E+00 0.  1.
</event>
<event>
12    1  0.8416569E-002  0.2847565E+03  0.7818608E-02  0.1093218E+00
         21   -1    0    0  501  502  0.00000000000E+00  0.00000000000E+00  0.92158101538E+02  0.92158101538E+02  0.00000000000E+00 0. -1.
         21   -1    0    0  502  503 -0.00000000000E+00 -0.00000000000E+00 -0.10230656821E+04  0.10230656821E+04  0.00000000000E+00 0.  1.
         -6    2    1    2    0  503  0.20271310432E+03 -0.10008964730E+03 -0.67624034507E+03  0.73374876366E+03  0.17313492921E+03 0.  0.
        -24    2    3    3    0    0  0.21926949436E+03 -0.88982487815E+02 -0.66556065623E+03  0.71064835681E+03  0.77801707064E+02 0.  0.
          6    2    1    2  501    0 -0.20271310432E+03  0.10008964730E+03 -0.25466723554E+03  0.38147502002E+03  0.17192222045E+03 0.  0.
         24    2    5    5    0    0 -0.17017037519E+03  0.13315865253E+03 -0.18334093268E+03  0.29625694796E+03  0.86400800260E+02 0.  0.
          5    1    5    5  501    0 -0.32542729133E+02 -0.33069005226E+02 -0.71326302856E+02  0.85218072057E+02  0.47000000000E+01 0. -1.
        -13    1    6    6    0    0 -0.62616782965E+02  0.73940863022E+02 -0.13063074081E+03  0.16264225520E+03  0.00000000000E+00 0.  1.
         14    1    6    6    0    0 -0.10755359222E+03  0.59217789507E+02 -0.52710191870E+02  0.13361469276E+03  0.00000000000E+00 0. -1.
         -5    1    3    3    0  503 -0.16556390035E+02 -0.11107159489E+02 -0.10679688835E+02  0.23100406848E+02  0.47000000000E+01 0.  1.
         11    1    4    4    0    0  0.76570266552E+02 -0.48555120769E+02 -0.16138502615E+03  0.18511005413E+03  0.00000000000E+00 0. -1.
        -12    1    4    4    0    0  0.14269922780E+03 -0.40427367045E+02 -0.50417563008E+03  0.52553830268E+03  0.00000000000E+00 0.  1.
</event>
<event>
12    1  0.8416569E-002  0.1872029E+03  0.7818608E-02  0.1161344E+00
         21   -1    0    0  503  502  0.00000000000E+00  0.00000000000E+00  0.37450409917E+03  0.37450409917E+03  0.00000000000E+00 0.  1.
         21   -1    0    0  501  503 -0.00000000000E+00 -0.00000000000E+00 -0.29894167488E+03  0.29894167488E+03  0.00000000000E+00 0.  1.
          6    2    1    2  501    0 -0.41938812123E+02  0.56088034963E+02 -0.24184398842E+03  0.30494646424E+03  0.17204388885E+03 0.  0.
         24    2    3    3    0    0 -0.20643948032E+02  0.14741235080E+02 -0.24424855522E+03  0.25813940239E+03  0.79593452857E+02 0.  0.
         -6    2    1    2    0  502  0.41938812123E+02 -0.56088034963E+02  0.31740641271E+03  0.36849930982E+03  0.17360927072E+03 0.  0.
        -24    2    5    5    0    0 -0.31594969099E+02 -0.33787149361E+01  0.21330149746E+03  0.23049419115E+03  0.81365751708E+02 0.  0.
          5    1    3    3  501    0 -0.21294864091E+02  0.41346799883E+02  0.24045668028E+01  0.46807061847E+02  0.47000000000E+01 0. -1.
        -13    1    4    4    0    0 -0.40737295982E+02 -0.24119000124E+01 -0.21452423702E+03  0.21837122708E+03  0.00000000000E+00 0.  1.
         14    1    4    4    0    0  0.20093347950E+02  0.17153135092E+02 -0.29724318195E+02  0.39768175310E+02  0.00000000000E+00 0. -1.
         -5    1    5    5    0  502  0.73533781222E+02 -0.52709320026E+02  0.10410491525E+03  0.13800511867E+03  0.47000000000E+01 0.  1.
         11    1    6    6    0    0  0.26610026893E+02 -0.62692140717E+00  0.94419999681E+02  0.98100065757E+02  0.00000000000E+00 0. -1.
        -12    1    6    6    0    0 -0.58204995992E+02 -0.27517935289E+01  0.11888149777E+03  0.13239412540E+03  0.00000000000E+00 0.  1.
</event>
<event>
12    1  0.8416569E-002  0.2026426E+03  0.7818608E-02  0.1147866E+00
         21   -1    0    0  501  502  0.00000000000E+00  0.00000000000E+00  0.95005443205E+03  0.95005443205E+03  0.00000000000E+00 0. -1.
         21   -1    0    0  502  503 -0.00000000000E+00 -0.00000000000E+00 -0.42881300367E+02  0.42881300367E+02  0.00000000000E+00 0.  1.
         -6    2    1    2    0  503  0.93449330759E+02 -0.53248095792E+02  0.45115995154E+03  0.49457993982E+03  0.17174363999E+03 0.  0.
        -24    2    3    3    0    0  0.34003950277E+02 -0.26291788720E+02  0.40289238680E+03  0.41326423680E+03  0.81348185538E+02 0.  0.
          6    2    1    2  501    0 -0.93449330759E+02  0.53248095792E+02  0.45601318014E+03  0.49835579259E+03  0.16983032245E+03 0.  0.
         24    2    5    5    0    0  0.85559756478E+01  0.49073628721E+02  0.26991149192E+03  0.28603896079E+03  0.80527311275E+02 0.  0.
          5    1    5    5  501    0 -0.10200530641E+03  0.41744670708E+01  0.18610168822E+03  0.21231683181E+03  0.47000000000E+01 0. -1.
        -11    1    6    6    0    0 -0.26361178728E+02 -0.76212269809E+01  0.94952001778E+02  0.98837631934E+02  0.00000000000E+00 0.  1.
         12    1    6    6    0    0  0.34917154376E+02  0.56694855702E+02  0.17495949015E+03  0.18720132885E+03  0.00000000000E+00 0. -1.
         -5    1    3    3    0  503  0.59445380482E+02 -0.26956307072E+02  0.48267564739E+02  0.81315703018E+02  0.47000000000E+01 0.  1.
         13    1    4    4    0    0  0.13485566198E+01  0.24962766890E+02  0.59546730882E+02  0.64581510469E+02  0.00000000000E+00 0. -1.
        -14    1    4    4    0    0  0.32655393657E+02 -0.51254555610E+02  0.34334565592E+03  0.34868272633E+03  0.00000000000E+00 0.  1.
</event>
<event>
12    1  0.8416569E-002  0.1865584E+03  0.7818608E-02  0.1161821E+00
         21   -1    0    0  503  502  0.00000000000E+00  0.00000000000E+00  0.76856430638E+02  0.76856430638E+02  0.00000000000E+00 0.  1.
         21   -1    0    0  501  503 -0.00000000000E+00 -0.00000000000E+00 -0.55763510795E+03  0.55763510795E+03  0.00000000000E+00 0.  1.
          6    2    1    2  501    0  0.59753491529E+02 -0.40362483039E+02 -0.37891386570E+03  0.42193456693E+03  0.17103640360E+03 0.  0.
         24    2    3    3    0    0  0.55871968084E+02 -0.78483611780E+01 -0.37488785793E+03  0.38860990514E+03  0.85401866226E+02 0.  0.
         -6    2    1    2    0  502 -0.59753491529E+02  0.40362483039E+02 -0.10186481161E+03  0.21255697166E+03  0.17205934026E+03 0.  0.
        -24    2    5    5    0    0  0.15720153584E+02 -0.68529413810E+01 -0.91872133164E+02  0.12284905099E+03  0.79732768935E+02 0.  0.
          5    1    3    3  501    0  0.38815234445E+01 -0.32514121861E+02 -0.40260077697E+01  0.33324661787E+02  0.47000000000E+01 0. -1.
        -11    1    4    4    0    0 -0.89687651662E+01 -0.16071889442E+02 -0.17851065237E+02  0.25639908521E+02  0.00000000000E+00 0.  1.
         12    1    4    4    0    0  0.64840733250E+02  0.82235282643E+01 -0.35703679270E+03  0.36296999662E+03  0.00000000000E+00 0. -1.
         -5    1    5    5    0  502 -0.75473645113E+02  0.47215424420E+02 -0.99926784464E+01  0.89707920677E+02  0.47000000000E+01 0.  1.
         11    1    6    6    0    0  0.44859431153E+02  0.64016181678E+01 -0.33775892875E+02  0.56516902056E+02  0.00000000000E+00 0. -1.
        -12    1    6    6    0    0 -0.29139277569E+02 -0.13254559549E+02 -0.58096240290E+02  0.66332148931E+02  0.00000000000E+00 0.  1.
</event>
<event>
12    1  0.8416569E-002  0.2070117E+03  0.7818608E-02  0.1144150E+00
         21   -1    0    0  503  502  0.00000000000E+00  0.00000000000E+00  0.82563196408E+02  0.82563196408E+02  0.00000000000E+00 0.  1.
         21   -1    0    0  501  503 -0.00000000000E+00 -0.00000000000E+00 -0.52481603172E+03  0.52481603172E+03  0.00000000000E+00 0. -1.
          6    2    1    2  501    0  0.50793322646E+02 -0.10166470910E+03 -0.25959266754E+03  0.33202737529E+03  0.17302644364E+03 0.  0.
         24    2    3    3    0    0  0.80903389811E+02 -0.31636424381E+02 -0.21263147716E+03  0.24237236870E+03  0.77369232891E+02 0.  0.
         -6    2    1    2    0  502 -0.50793322646E+02  0.10166470910E+03 -0.18266016777E+03  0.27535185284E+03  0.17186689987E+03 0.  0.
        -24    2    5    5    0    0 -0.22634244809E+02  0.74164572941E+02 -0.26052080206E+02  0.11380503534E+03  0.79121313617E+02 0.  0.
          5    1    3    3  501    0 -0.30110067165E+02 -0.70028284714E+02 -0.46961190380E+02  0.89655006590E+02  0.47000000000E+01 0. -1.
        -13    1    4    4    0    0  0.40451273754E+02 -0.46863062334E+02 -0.70542346741E+02  0.93854540878E+02  0.00000000000E+00 0.  1.
         14    1    4    4    0    0  0.40452116057E+02  0.15226637954E+02 -0.14208913042E+03  0.14851782782E+03  0.00000000000E+00 0. -1.
         -5    1    5    5    0  502 -0.28159077837E+02  0.27500136154E+02 -0.15660808756E+03  0.16154681750E+03  0.47000000000E+01 0.  1.
         11    1    6    6    0    0  0.17589155985E+02  0.64432858086E+02 -0.39946664315E+01  0.66909857041E+02  0.00000000000E+00 0. -1.
        -12    1    6    6    0    0 -0.40223400794E+02  0.97317148552E+01 -0.22057413775E+02  0.46895178301E+02  0.00000000000E+00 0.  1.
</event>
<event>
12    1  0.8416569E-002  0.2134557E+03  0.7818608E-02  0.1139072E+00
         21   -1    0    0  501  502  0.00000000000E+00  0.00000000000E+00  0.20154136157E+03  0.20154136157E+03  0.00000000000E+00 0.  1.
         21   -1    0    0  502  503 -0.00000000000E+00 -0.00000000000E+00 -0.95937812708E+03  0.95937812708E+03  0.00000000000E+00 0. -1.
         -6    2    1    2    0  503  0.79817366546E+01 -0.12264950974E+03 -0.88657093858E+03  0.91164887773E+03  0.17317342975E+03 0.  0.
        -24    2    3    3    0    0 -0.16561855984E+02 -0.14589719318E+02 -0.58074503226E+03  0.58633229159E+03  0.77676307034E+02 0.  0.
          6    2    1    2  501    0 -0.79817366546E+01  0.12264950974E+03  0.12873417307E+03  0.24927061092E+03  0.17451859440E+03 0.  0.
         24    2    5    5    0    0 -0.63651255700E+02  0.11581930813E+03  0.11164846615E+03  0.19045090005E+03  0.79627701530E+02 0.  0.
          5    1    5    5  501    0  0.55669519046E+02  0.68302016198E+01  0.17085706919E+02  0.58819710862E+02  0.47000000000E+01 0. -1.
        -13    1    6    6    0    0 -0.20017827056E+02  0.86571972148E+02  0.10492376052E+03  0.13749332814E+03  0.00000000000E+00 0.  1.
         14    1    6    6    0    0 -0.43633428644E+02  0.29247335977E+02  0.67247056276E+01  0.52957571912E+02  0.00000000000E+00 0. -1.
         -5    1    3    3    0  503  0.24543592638E+02 -0.10805979043E+03 -0.30582590632E+03  0.32531658614E+03  0.47000000000E+01 0.  1.
         13    1    4    4    0    0 -0.50208236729E+00 -0.43921223961E+02 -0.24318725782E+03  0.24712217296E+03  0.00000000000E+00 0. -1.
        -14    1    4    4    0    0 -0.16059773617E+02  0.29331504642E+02 -0.33755777444E+03  0.33921011863E+03  0.00000000000E+00 0.  1.
</event>
<event>
12    1  0.8416569E-002  0.1798398E+03  0.7818608E-02  0.1170855E+00
         21   -1    0    0  503  502  0.00000000000E+00  0.00000000000E+00  0.82661314702E+03  0.82661314702E+03  0.00000000000E+00 0.  1.
         21   -1    0    0  501  503 -0.00000000000E+00 -0.00000000000E+00 -0.37262686031E+02  0.37262686031E+02  0.00000000000E+00 0.  1.
          6    2    1    2  501    0 -0.48059894788E+02 -0.40201832484E+02  0.35243863022E+03  0.39567075636E+03  0.16857170149E+03 0.  0.
         24    2    3    3    0    0  0.20965498103E+02  0.12434510158E+02  0.94617204256E+02  0.12358792501E+03  0.75679526375E+02 0.  0.
         -6    2    1    2    0  502  0.48059894788E+02  0.40201832484E+02  0.43691183076E+03  0.46820507669E+03  0.15619892815E+03 0.  0.
        -24    2    5    5    0    0  0.70178297023E+02  0.72404543217E+02  0.35064360846E+03  0.37338664770E+03  0.79367734483E+02 0.  0.
          5    1    3    3  501    0 -0.69025392891E+02 -0.52636342643E+02  0.25782142597E+03  0.27208283136E+03  0.47000000000E+01 0. -1.
        -13    1    4    4    0    0 -0.11168300963E+02 -0.23285613364E+02  0.13083526079E+02  0.28950464431E+02  0.00000000000E+00 0.  1.
         14    1    4    4    0    0  0.32133799067E+02  0.35720123522E+02  0.81533678177E+02  0.94637460574E+02  0.00000000000E+00 0. -1.
         -5    1    5    5    0  502 -0.22118402236E+02 -0.32202710733E+02  0.86268222301E+02  0.94818428984E+02  0.47000000000E+01 0.  1.
         13    1    6    6    0    0 -0.11632775552E+02 -0.23683005853E+01  0.80813178558E+02  0.81680475901E+02  0.00000000000E+00 0. -1.
        -14    1    6    6    0    0  0.81811072575E+02  0.74772843802E+02  0.26983042990E+03  0.29170617180E+03  0.00000000000E+00 0.  1.
</event>
<event>
12    1  0.8416569E-002  0.1806848E+03  0.7818608E-02  0.1167357E+00
         21   -1    0    0  501  502  0.00000000000E+00  0.00000000000E+00  0.12601187797E+04  0.12601187797E+04  0.00000000000E+00 0. -1.
         21   -1    0    0  502  503 -0.00000000000E+00 -0.00000000000E+00 -0.25866030994E+02  0.25866030994E+02  0.00000000000E+00 0. -1.
         -6    2    1    2    0  503  0.52589204529E+02 -0.12071688745E+02  0.65263323075E+03  0.67694600141E+03  0.17150628224E+03 0.  0.
        -24    2    3    3    0    0  0.15257667330E+02 -0.23103053304E+02  0.14695687632E+03  0.16975175844E+03  0.80329250660E+02 0.  0.
          6    2    1    2  501    0 -0.52589204529E+02  0.12071688745E+02  0.58161951798E+03  0.60903880931E+03  0.17244030110E+03 0.  0.
         24    2    5    5    0    0 -0.96371849320E+02 -0.15554733897E+02  0.36492393969E+03  0.38619536008E+03  0.80298762753E+02 0.  0.
          5    1    5    5  501    0  0.43782644791E+02  0.27626422643E+02  0.21669557829E+03  0.22284344923E+03  0.47000000000E+01 0. -1.
        -13    1    6    6    0    0 -0.26835174195E+02  0.29706204104E+02  0.80308892375E+02  0.89733512864E+02  0.00000000000E+00 0.  1.
         14    1    6    6    0    0 -0.69536675125E+02 -0.45260938002E+02  0.28461504731E+03  0.29646184721E+03  0.00000000000E+00 0. -1.
         -5    1    3    3    0  503  0.37331537199E+02  0.11031364559E+02  0.50567635443E+03  0.50719424297E+03  0.47000000000E+01 0.  1.
         13    1    4    4    0    0  0.97415447182E+01  0.29968044387E+02  0.58548335010E+02  0.66489765455E+02  0.00000000000E+00 0. -1.
        -14    1    4    4    0    0  0.55161226120E+01 -0.53071097691E+02  0.88408541308E+02  0.10326199298E+03  0.00000000000E+00 0.  1.
</event>
<event>
12    1  0.8416569E-002  0.1730996E+03  0.7818608E-02  0.1174715E+00
         21   -1    0    0  503  502  0.00000000000E+00  0.00000000000E+00  0.79019962624E+02  0.79019962624E+02  0.00000000000E+00 0.  1.
         21   -1    0    0  501  503 -0.00000000000E+00 -0.00000000000E+00 -0.39441368146E+03  0.39441368146E+03  0.00000000000E+00 0.  1.
          6    2    1    2  501    0  0.20404696080E+02  0.26133501451E+01 -0.20489693127E+03  0.26807299449E+03  0.17163098995E+03 0.  0.
         24    2    3    3    0    0 -0.25023005065E+02 -0.54258546665E+02 -0.12313627322E+03  0.15850573715E+03  0.79946145981E+02 0.  0.
         -6    2    1    2    0  502 -0.20404696080E+02 -0.26133501451E+01 -0.11049678757E+03  0.20536064959E+03  0.17187284578E+03 0.  0.
        -24    2    5    5    0    0 -0.12709318415E+02  0.26214555456E+02  0.46304382747E+01  0.86336975015E+02  0.81141250938E+02 0.  0.
          5    1    3    3  501    0  0.45427701145E+02  0.56871896810E+02 -0.81760658043E+02  0.10956725734E+03  0.47000000000E+01 0. -1.
        -11    1    4    4    0    0 -0.34171258104E+01  0.68371236278E+01 -0.80661471929E+02  0.81022811986E+02  0.00000000000E+00 0.  1.
         12    1    4    4    0    0 -0.21605879255E+02 -0.61095670293E+02 -0.42474801294E+02  0.77482925163E+02  0.00000000000E+00 0. -1.
         -5    1    5    5    0  502 -0.76953776645E+01 -0.28827905601E+02 -0.11512722584E+03  0.11902367457E+03  0.47000000000E+01 0.  1.
         13    1    6    6    0    0  0.31903374346E+02  0.50937182593E+01  0.15440250192E+02  0.35807437584E+02  0.00000000000E+00 0. -1.
        -14    1    6    6    0    0 -0.44612692761E+02  0.21120837197E+02 -0.10809811917E+02  0.50529537431E+02  0.00000000000E+00 0.  1.
</event>
<event>
12    1  0.8416569E-002  0.3252051E+03  0.7818608E-02  0.1073320E+00
         21   -1    0    0  503  502  0.00000000000E+00  0.00000000000E+00  0.40813042228E+03  0.40813042228E+03  0.00000000000E+00 0.  1.
         21   -1    0    0  501  503 -0.00000000000E+00 -0.00000000000E+00 -0.27143840060E+03  0.27143840060E+03  0.00000000000E+00 0. -1.
          6    2    1    2  501    0 -0.10710466955E+03 -0.25383604632E+03  0.14160138647E+03  0.35469605374E+03  0.17278364862E+03 0.  0.
         24    2    3    3    0    0 -0.53047934843E+02 -0.71963346559E+02  0.11075776299E+03  0.16241181466E+03  0.78214505306E+02 0.  0.
         -6    2    1    2    0  502  0.10710466955E+03  0.25383604632E+03 -0.49093647863E+01  0.32487276914E+03  0.17208737785E+03 0.  0.
        -24    2    5    5    0    0  0.87910934158E+02  0.20162470084E+03 -0.64758619320E+02  0.24302872633E+03  0.80550795851E+02 0.  0.
          5    1    3    3  501    0 -0.54056734709E+02 -0.18187269977E+03  0.30843623485E+02  0.19228423908E+03  0.47000000000E+01 0. -1.
        -13    1    4    4    0    0 -0.40042406800E+02 -0.12913014319E+01  0.15198894692E+02  0.42849366408E+02  0.00000000000E+00 0.  1.
         14    1    4    4    0    0 -0.13005528043E+02 -0.70672045127E+02  0.95558868296E+02  0.11956244825E+03  0.00000000000E+00 0. -1.
         -5    1    5    5    0  502  0.19193735395E+02  0.52211345481E+02  0.59849254533E+02  0.81844042810E+02  0.47000000000E+01 0.  1.
         11    1    6    6    0    0 -0.83047175924E+01  0.70631975998E+02 -0.27722499793E+02  0.76330736682E+02  0.00000000000E+00 0. -1.
        -12    1    6    6    0    0  0.96215651750E+02  0.13099272485E+03 -0.37036119526E+02  0.16669798965E+03  0.00000000000E+00 0.  1.
</event>
<event>
12    1  0.8416569E-002  0.1978809E+03  0.7818608E-02  0.1151917E+00
         21   -1    0    0  503  502  0.00000000000E+00  0.00000000000E+00  0.76748951104E+02  0.76748951104E+02  0.00000000000E+00 0. -1.
         21   -1    0    0  501  503 -0.00000000000E+00 -0.00000000000E+00 -0.12453873825E+04  0.12453873825E+04  0.00000000000E+00 0. -1.
          6    2    1    2  501    0 -0.93886637828E+02  0.83438412177E+01 -0.10927380909E+04  0.11101983722E+04  0.17198712146E+03 0.  0.
         24    2    3    3    0    0 -0.11273489975E+03  0.21008226724E+02 -0.10692102859E+04  0.10771636746E+04  0.62613443067E+02 0.  0.
         -6    2    1    2    0  502  0.93886637828E+02 -0.83438412177E+01 -0.75900340559E+02  0.21193796144E+03  0.17398999210E+03 0.  0.
        -24    2    5    5    0    0  0.11597918286E+03  0.29995886613E+02 -0.84768732622E+02  0.16656447078E+03  0.78784902268E+02 0.  0.
          5    1    3    3  501    0  0.18848261920E+02 -0.12664385506E+02 -0.23527805008E+02  0.33034697609E+02  0.47000000000E+01 0. -1.
        -13    1    4    4    0    0 -0.32999826651E+02  0.12101322225E+02 -0.60890215985E+03  0.60991578995E+03  0.00000000000E+00 0.  1.
         14    1    4    4    0    0 -0.79735073097E+02  0.89069044992E+01 -0.46030812600E+03  0.46724788463E+03  0.00000000000E+00 0. -1.
         -5    1    5    5    0  502 -0.22092545037E+02 -0.38339727831E+02  0.88683920633E+01  0.45373490654E+02  0.47000000000E+01 0.  1.
         11    1    6    6    0    0  0.56397087359E+02  0.12966106427E+02  0.43355111944E+01  0.58030578454E+02  0.00000000000E+00 0. -1.
        -12    1    6    6    0    0  0.59582095506E+02  0.17029780187E+02 -0.89104243817E+02  0.10853389233E+03  0.00000000000E+00 0.  1.
</event>
<event>
12    1  0.8416569E-002  0.1951630E+03  0.7818608E-02  0.1157337E+00
         21   -1    0    0  501  502  0.00000000000E+00  0.00000000000E+00  0.89460194135E+02  0.89460194135E+02  0.00000000000E+00 0.  1.
         21   -1    0    0  502  503 -0.00000000000E+00 -0.00000000000E+00 -0.45865195747E+03  0.45865195747E+03  0.00000000000E+00 0.  1.
         -6    2    1    2    0  503  0.72855809153E+02 -0.55890943337E+02 -0.74805151388E+02  0.19490957072E+03  0.15479716926E+03 0.  0.
        -24    2    3    3    0    0  0.58169781097E+02 -0.89675129305E+02 -0.84094581671E+02  0.15662858123E+03  0.77686945765E+02 0.  0.
          6    2    1    2  501    0 -0.72855809153E+02  0.55890943337E+02 -0.29438661195E+03  0.35320258089E+03  0.17221155413E+03 0.  0.
         24    2    5    5    0    0 -0.10210567931E+03  0.42451676966E+02 -0.29182299978E+03  0.32057083420E+03  0.73329952357E+02 0.  0.
          5    1    5    5  501    0  0.29249870155E+02  0.13439266371E+02 -0.25636121685E+01  0.32631746690E+02  0.47000000000E+01 0. -1.
        -11    1    6    6    0    0 -0.75388149576E+02  0.23843458028E+01 -0.23093190611E+03  0.24293744763E+03  0.00000000000E+00 0.  1.
         12    1    6    6    0    0 -0.26717529732E+02  0.40067331163E+02 -0.60891093673E+02  0.77633386569E+02  0.00000000000E+00 0. -1.
         -5    1    3    3    0  503  0.14686028056E+02  0.33784185967E+02  0.92894302829E+01  0.38280989492E+02  0.47000000000E+01 0.  1.
         11    1    4    4    0    0  0.31814173143E+02 -0.70590405389E+02 -0.13095550812E+02  0.78527959332E+02  0.00000000000E+00 0. -1.
        -12    1    4    4    0    0  0.26355607954E+02 -0.19084723915E+02 -0.70999030859E+02  0.78100621896E+02  0.00000000000E+00 0.  1.
</event>
<event>
12    1  0.8416569E-002  0.1759485E+03  0.7818608E-02  0.1171821E+00
         21   -1    0    0  503  502  0.00000000000E+00  0.00000000000E+00  0.50159074384E+03  0.50159074384E+03  0.00000000000E+00 0.  1.
         21   -1    0    0  501  503 -0.00000000000E+00 -0.00000000000E+00 -0.20909712071E+03  0.20909712071E+03  0.00000000000E+00 0.  1.
          6    2    1    2  501    0  0.10896377219E+02  0.35217687370E+02 -0.15215138302E+03  0.23249643969E+03  0.17188814553E+03 0.  0.
         24    2    3    3    0    0 -0.22497933168E+02 -0.35632326913E+02 -0.61727822723E+02  0.11277419970E+03  0.84450436961E+02 0.  0.
         -6    2    1    2    0  502 -0.10896377219E+02 -0.35217687370E+02  0.44464500614E+03  0.47819142487E+03  0.17204313641E+03 0.  0.
        -24    2    5    5    0    0 -0.50099956475E+02  0.27181431633E+02  0.20246562792E+03  0.22500471132E+03  0.79912162801E+02 0.  0.
          5    1    3    3  501    0  0.33394310387E+02  0.70850014283E+02 -0.90423560293E+02  0.11972223998E+03  0.47000000000E+01 0. -1.
        -13    1    4    4    0    0  0.44169096423E+01  0.87440001749E+01 -0.60052856165E+02  0.60846628201E+02  0.00000000000E+00 0.  1.
         14    1    4    4    0    0 -0.26914842810E+02 -0.44376327088E+02 -0.16749665579E+01  0.51927571504E+02  0.00000000000E+00 0. -1.
         -5    1    5    5    0  502  0.39203579256E+02 -0.62399119003E+02  0.24217937822E+03  0.25318671354E+03  0.47000000000E+01 0.  1.
         13    1    6    6    0    0 -0.25739321752E+02  0.51776442660E+02  0.16053566133E+03  0.17063121420E+03  0.00000000000E+00 0. -1.
        -14    1    6    6    0    0 -0.24360634722E+02 -0.24595011027E+02  0.41929966587E+02  0.54373497124E+02  0.00000000000E+00 0.  1.
</event>
<event>
12    1  0.8416569E-002  0.2159282E+03  0.7818608E-02  0.1137385E+00
         21   -1    0    0  501  502  0.00000000000E+00  0.00000000000E+00  0.54756597118E+03  0.54756597118E+03  0.00000000000E+00 0.  1.
         21   -1    0    0  502  503 -0.00000000000E+00 -0.00000000000E+00 -0.84270958157E+02  0.84270958157E+02  0.00000000000E+00 0. -1.
         -6    2    1    2    0  503 -0.75638466897E+02 -0.10153166669E+03  0.23413541326E+03  0.31850331444E+03  0.17491458645E+03 0.  0.
        -24    2    3    3    0    0 -0.63242461829E+02 -0.12352389617E+03  0.11473288700E+03  0.19637071283E+03  0.78358532372E+02 0.  0.
          6    2    1    2  501    0  0.75638466897E+02  0.10153166669E+03  0.22915959977E+03  0.31333361490E+03  0.17214521499E+03 0.  0.
         24    2    5    5    0    0 -0.74121424114E+00  0.28877779291E+02  0.34832494954E+02  0.92205695561E+02  0.80337488471E+02 0.  0.
          5    1    5    5  501    0  0.76379681139E+02  0.72653887402E+02  0.19432710481E+03  0.22112791934E+03  0.47000000000E+01 0. -1.
        -11    1    6    6    0    0 -0.33394299902E+02  0.14782521451E+02  0.42280268900E+02  0.55868804754E+02  0.00000000000E+00 0.  1.
         12    1    6    6    0    0  0.32653085661E+02  0.14095257840E+02 -0.74477739455E+01  0.36336890807E+02  0.00000000000E+00 0. -1.
         -5    1    3    3    0  503 -0.12396005069E+02  0.21992229477E+02  0.11940252626E+03  0.12213260161E+03  0.47000000000E+01 0.  1.
         13    1    4    4    0    0 -0.52221828679E+02 -0.80154500614E+02  0.29508585881E+02  0.10011303611E+03  0.00000000000E+00 0. -1.
        -14    1    4    4    0    0 -0.11020633150E+02 -0.43369395555E+02  0.85224301118E+02  0.96257676717E+02  0.00000000000E+00 0.  1.
</event>
<event>
12    1  0.8416569E-002  0.2198594E+03  0.7818608E-02  0.1134120E+00
         21   -1    0    0  503  502  0.00000000000E+00  0.00000000000E+00  0.30421315201E+02  0.30421315201E+02  0.00000000000E+00 0.  1.
         21   -1    0    0  501  503 -0.00000000000E+00 -0.00000000000E+00 -0.16546371741E+04  0.16546371741E+04  0.00000000000E+00 0. -1.
          6    2    1    2  501    0  0.78868786488E+02 -0.11177832464E+03 -0.98510719436E+03  0.10091901175E+04  0.17121281963E+03 0.  0.
         24    2    3    3    0    0  0.59291601939E+02 -0.51231421540E+02 -0.28579689174E+03  0.30697492048E+03  0.80084866604E+02 0.  0.
         -6    2    1    2    0  502 -0.78868786488E+02  0.11177832464E+03 -0.63910866454E+03  0.67586837177E+03  0.17211476266E+03 0.  0.
        -24    2    5    5    0    0 -0.86090083798E+02  0.10767426985E+03 -0.64501459413E+03  0.66464516345E+03  0.81878664716E+02 0.  0.
          5    1    3    3  501    0  0.19577184549E+02 -0.60546903097E+02 -0.69931030262E+03  0.70221519706E+03  0.47000000000E+01 0. -1.
        -11    1    4    4    0    0  0.36251431520E+02 -0.65571672522E+02 -0.25569134782E+03  0.26644300680E+03  0.00000000000E+00 0.  1.
         12    1    4    4    0    0  0.23040170419E+02  0.14340250982E+02 -0.30105543922E+02  0.40531913673E+02  0.00000000000E+00 0. -1.
         -5    1    5    5    0  502  0.72212973099E+01  0.41040547874E+01  0.59059295953E+01  0.11223208317E+02  0.47000000000E+01 0.  1.
         11    1    6    6    0    0 -0.90970857010E+02  0.11598430747E+03 -0.62822196382E+03  0.64528357505E+03  0.00000000000E+00 0. -1.
        -12    1    6    6    0    0  0.48807732120E+01 -0.83100376230E+01 -0.16792630309E+02  0.19361588394E+02  0.00000000000E+00 0.  1.
</event>
<event>
12    1  0.8416569E-002  0.1816857E+03  0.7818608E-02  0.1166340E+00
         21   -1    0    0  501  502  0.00000000000E+00  0.00000000000E+00  0.77486838766E+02  0.77486838766E+02  0.00000000000E+00 0.  1.
         21   -1    0    0  502  503 -0.00000000000E+00 -0.00000000000E+00 -0.44276725459E+03  0.44276725459E+03  0.00000000000E+00 0.  1.
         -6    2    1    2    0  503  0.59495702081E+01 -0.58115618799E+02 -0.23586778022E+03  0.29773025634E+03  0.17203741820E+03 0.  0.
        -24    2    3    3    0    0  0.52384238585E+02 -0.79097575209E+02 -0.12499332182E+03  0.17561696285E+03  0.78850822974E+02 0.  0.
          6    2    1    2  501    0 -0.59495702081E+01  0.58115618799E+02 -0.12941263560E+03  0.22252383702E+03  0.17133710997E+03 0.  0.
         24    2    5    5    0    0 -0.17595437918E+02  0.53406308092E+02 -0.27483747659E+02  0.11971628846E+03  0.10205292822E+03 0.  0.
          5    1    5    5  501    0  0.11645867710E+02  0.47093107067E+01 -0.10192888794E+03  0.10280754855E+03  0.47000000000E+01 0. -1.
        -13    1    6    6    0    0  0.40654670104E+02  0.53709578561E+01 -0.89465194664E+01  0.41972486228E+02  0.00000000000E+00 0.  1.
         14    1    6    6    0    0 -0.58250108022E+02  0.48035350236E+02 -0.18537228193E+02  0.77743802235E+02  0.00000000000E+00 0. -1.
         -5    1    3    3    0  503 -0.46434668377E+02  0.20981956410E+02 -0.11087445840E+03  0.12211329349E+03  0.47000000000E+01 0.  1.
         11    1    4    4    0    0  0.65806044686E+02 -0.30201334951E+02 -0.67959023237E+02  0.99302492363E+02  0.00000000000E+00 0. -1.
        -12    1    4    4    0    0 -0.13421806101E+02 -0.48896240258E+02 -0.57034298582E+02  0.76314470483E+02  0.00000000000E+00 0.  1.
</event>
<event>
12    1  0.8416569E-002  0.2092746E+03  0.7818608E-02  0.1142216E+00
         21   -1    0    0  501  502  0.00000000000E+00  0.00000000000E+00  0.14406220020E+03  0.14406220020E+03  0.00000000000E+00 0. -1.
         21   -1    0    0  502  503 -0.00000000000E+00 -0.00000000000E+00 -0.69174309483E+03  0.69174309483E+03  0.00000000000E+00 0. -1.
         -6    2    1    2    0  503  0.53269822025E+01  0.11846581661E+03 -0.58704155845E+03  0.62322840016E+03  0.17243352622E+03 0.  0.
        -24    2    3    3    0    0 -0.51810350970E+01  0.15682622367E+03 -0.44626607480E+03  0.47686663583E+03  0.60225171638E+02 0.  0.
          6    2    1    2  501    0 -0.53269822025E+01 -0.11846581661E+03  0.39360663819E+02  0.21257689488E+03  0.17198008005E+03 0.  0.
         24    2    5    5    0    0 -0.31637324716E+02 -0.25128834284E+02  0.69458746747E+02  0.11093039474E+03  0.76476508488E+02 0.  0.
          5    1    5    5  501    0  0.26310342513E+02 -0.93336982328E+02 -0.30098082927E+02  0.10164650013E+03  0.47000000000E+01 0. -1.
        -13    1    6    6    0    0  0.23517390887E+02 -0.13999520756E+02  0.10182391804E+02  0.29201632804E+02  0.00000000000E+00 0.  1.
         14    1    6    6    0    0 -0.55154715603E+02 -0.11129313528E+02  0.59276354943E+02  0.81728761939E+02  0.00000000000E+00 0. -1.
         -5    1    3    3    0  503  0.10508017300E+02 -0.38360407061E+02 -0.14077548365E+03  0.14636176432E+03  0.47000000000E+01 0.  1.
         11    1    4    4    0    0  0.30820208173E+01  0.19944560473E+02 -0.13809951737E+03  0.13956633205E+03  0.00000000000E+00 0. -1.
        -12    1    4    4    0    0 -0.82630559144E+01  0.13688166320E+03 -0.30816655743E+03  0.33730030378E+03  0.00000000000E+00 0.  1.
</event>
<event>
12    1  0.8416569E-002  0.1777645E+03  0.7818608E-02  0.1170056E+00
         21   -1    0    0  503  502  0.00000000000E+00  0.00000000000E+00  0.10698366489E+03  0.10698366489E+03  0.00000000000E+00 0.  1.
         21   -1    0    0  501  503 -0.00000000000E+00 -0.00000000000E+00 -0.50736635427E+03  0.50736635427E+03  0.00000000000E+00 0.  1.
          6    2    1    2  501    0  0.21538800760E+02  0.37651802398E+02 -0.39887859151E+03  0.43657919154E+03  0.17209207293E+03 0.  0.
         24    2    3    3    0    0  0.49393056015E+02 -0.11941060794E+02 -0.34714183274E+03  0.35954612187E+03  0.78636497876E+02 0.  0.
         -6    2    1    2    0  502 -0.21538800760E+02 -0.37651802398E+02 -0.15040978795E+01  0.17777082762E+03  0.17239091240E+03 0.  0.
        -24    2    5    5    0    0 -0.15415894860E+02 -0.68477573839E+02 -0.52093022505E+02  0.11802932231E+03  0.79312104990E+02 0.  0.
          5    1    3    3  501    0 -0.27854255255E+02  0.49592863193E+02 -0.51736758763E+02  0.77033069670E+02  0.47000000000E+01 0. -1.
        -13    1    4    4    0    0  0.50209825354E+01  0.14046951987E+02 -0.88013171260E+01  0.17320228315E+02  0.00000000000E+00 0.  1.
         14    1    4    4    0    0  0.44372073479E+02 -0.25988012781E+02 -0.33834051562E+03  0.34222589356E+03  0.00000000000E+00 0. -1.
         -5    1    5    5    0  502 -0.61229059000E+01  0.30825771441E+02  0.50588924625E+02  0.59741505307E+02  0.47000000000E+01 0.  1.
         11    1    6    6    0    0  0.25524840620E+02 -0.22950097236E+02 -0.44696404825E+02  0.56355949607E+02  0.00000000000E+00 0. -1.
        -12    1    6    6    0    0 -0.40940735480E+02 -0.45527476603E+02 -0.73966176800E+01  0.61673372703E+02  0.00000000000E+00 0.  1.
</event>
<event>
12    1  0.8416569E-002  0.1728237E+03  0.7818608E-02  0.1175883E+00
         21   -1    0    0  503  502  0.00000000000E+00  0.00000000000E+00  0.22353413197E+03  0.22353413197E+03  0.00000000000E+00 0.  1.
         21   -1    0    0  501  503 -0.00000000000E+00 -0.00000000000E+00 -0.20230859743E+03  0.20230859743E+03  0.00000000000E+00 0.  1.
          6    2    1    2  501    0 -0.25743052297E+02 -0.41113392194E+00 -0.11590213907E+03  0.20808970330E+03  0.17089512868E+03 0.  0.
         24    2    3    3    0    0 -0.63854268134E+02  0.46359629796E+02 -0.85533254439E+02  0.14038203560E+03  0.78514937883E+02 0.  0.
         -6    2    1    2    0  502  0.25743052297E+02  0.41113392194E+00  0.13712767361E+03  0.21775302609E+03  0.16718106272E+03 0.  0.
        -24    2    5    5    0    0  0.95969829963E+01  0.64039506553E+02  0.93999958807E+02  0.13906786141E+03  0.79440023536E+02 0.  0.
          5    1    3    3  501    0  0.38111215837E+02 -0.46770763718E+02 -0.30368884627E+02  0.67707667696E+02  0.47000000000E+01 0. -1.
        -13    1    4    4    0    0 -0.32466053021E+02 -0.19313420341E+02 -0.37131393323E+02  0.52969738287E+02  0.00000000000E+00 0.  1.
         14    1    4    4    0    0 -0.31388215113E+02  0.65673050137E+02 -0.48401861116E+02  0.87412297315E+02  0.00000000000E+00 0. -1.
         -5    1    5    5    0  502  0.16146069301E+02 -0.63628372631E+02  0.43127714800E+02  0.78685164684E+02  0.47000000000E+01 0.  1.
         11    1    6    6    0    0 -0.32103906450E+02  0.19906369712E+02  0.18150436332E+02  0.41908981179E+02  0.00000000000E+00 0. -1.
        -12    1    6    6    0    0  0.41700889446E+02  0.44133136841E+02  0.75849522475E+02  0.97158880230E+02  0.00000000000E+00 0.  1.
</event>
<event>
12    1  0.8416569E-002  0.1926117E+03  0.7818608E-02  0.1156769E+00
         21   -1    0    0  503  502  0.00000000000E+00  0.00000000000E+00  0.83919154135E+02  0.83919154135E+02  0.00000000000E+00 0.  1.
         21   -1    0    0  501  503 -0.00000000000E+00 -0.00000000000E+00 -0.45245867614E+03  0.45245867614E+03  0.00000000000E+00 0.  1.
          6    2    1    2  501    0 -0.76398242274E+02  0.32807062649E+02 -0.23750968271E+03  0.30579426648E+03  0.17374201924E+03 0.  0.
         24    2    3    3    0    0 -0.45752471299E+02 -0.14268625424E+02 -0.23101821623E+03  0.24905351549E+03  0.79758103314E+02 0.  0.
         -6    2    1    2    0  502  0.76398242274E+02 -0.32807062649E+02 -0.13102983929E+03  0.23058356379E+03  0.17054901443E+03 0.  0.
        -24    2    5    5    0    0  0.39155711308E+02 -0.24761981572E+02 -0.15836452185E+03  0.18345603136E+03  0.80190200163E+02 0.  0.
          5    1    3    3  501    0 -0.30645770975E+02  0.47075688073E+02 -0.64914664766E+01  0.56740750992E+02  0.47000000000E+01 0. -1.
        -11    1    4    4    0    0 -0.29635920167E+02  0.14671439214E+02 -0.27941145470E+02  0.43292568680E+02  0.00000000000E+00 0.  1.
         12    1    4    4    0    0 -0.16116551132E+02 -0.28940064638E+02 -0.20307707076E+03  0.20576094681E+03  0.00000000000E+00 0. -1.
         -5    1    5    5    0  502  0.37242530966E+02 -0.80450810768E+01  0.27334682560E+02  0.47127532430E+02  0.47000000000E+01 0.  1.
         13    1    6    6    0    0 -0.14508682888E+02 -0.84753488378E+01 -0.15019742108E+01  0.16869776039E+02  0.00000000000E+00 0. -1.
        -14    1    6    6    0    0  0.53664394196E+02 -0.16286632734E+02 -0.15686254764E+03  0.16658625532E+03  0.00000000000E+00 0.  1.
</event>
<event>
12    1  0.8416569E-002  0.2722794E+03  0.7818608E-02  0.1100078E+00
         21   -1    0    0  503  502  0.00000000000E+00  0.00000000000E+00  0.13379110686E+04  0.13379110686E+04  0.00000000000E+00 0.  1.
         21   -1    0    0  501  503 -0.00000000000E+00 -0.00000000000E+00 -0.33486098604E+03  0.33486098604E+03  0.00000000000E+00 0.  1.
          6    2    1    2  501    0  0.13213198515E+03  0.16370192987E+03 -0.26282376373E+03  0.37794670859E+03  0.17178533236E+03 0.  0.
         24    2    3    3    0    0  0.11391734416E+03  0.11190080295E+03 -0.26901340600E+03  0.32248923328E+03  0.78307994298E+02 0.  0.
         -6    2    1    2    0  502 -0.13213198515E+03 -0.16370192987E+03  0.12658738463E+04  0.12948253461E+04  0.17285513788E+03 0.  0.
        -24    2    5    5    0    0 -0.41665266295E+02 -0.11320904614E+03  0.97826329462E+03  0.98908742239E+03  0.82113171838E+02 0.  0.
          5    1    3    3  501    0  0.18214640988E+02  0.51801126918E+02  0.61896422761E+01  0.55457475310E+02  0.47000000000E+01 0. -1.
        -11    1    4    4    0    0  0.48356349306E+02  0.52318344412E+02 -0.19309737570E+03  0.20582065538E+03  0.00000000000E+00 0.  1.
         12    1    4    4    0    0  0.65560994856E+02  0.59582458539E+02 -0.75916030308E+02  0.11666857790E+03  0.00000000000E+00 0. -1.
         -5    1    5    5    0  502 -0.90466718855E+02 -0.50492883728E+02  0.28761055170E+03  0.30573792368E+03  0.47000000000E+01 0.  1.
         13    1    6    6    0    0  0.62029748740E+01 -0.14620120017E+02  0.25497906187E+02  0.30039441181E+02  0.00000000000E+00 0. -1.
        -14    1    6    6    0    0 -0.47868241169E+02 -0.98588926124E+02  0.95276538843E+03  0.95904798121E+03  0.00000000000E+00 0.  1.
</event>
<event>
12    1  0.8416569E-002  0.5269562E+03  0.7818608E-02  0.1007018E+00
         21   -1    0    0  503  502  0.00000000000E+00  0.00000000000E+00  0.62628674334E+03  0.62628674334E+03  0.00000000000E+00 0.  1.
         21   -1    0    0  501  503 -0.00000000000E+00 -0.00000000000E+00 -0.50263491819E+03  0.50263491819E+03  0.00000000000E+00 0.  1.
          6    2    1    2  501    0  0.49056914201E+03 -0.86824008652E+02 -0.13295841185E+03  0.54347105177E+03  0.17171590858E+03 0.  0.
         24    2    3    3    0    0  0.21612934715E+03  0.11788124895E+02 -0.93999734166E+02  0.24922383861E+03  0.80160570861E+02 0.  0.
         -6    2    1    2    0  502 -0.49056914201E+03  0.86824008652E+02  0.25661023700E+03  0.58545060977E+03  0.16943173016E+03 0.  0.
        -24    2    5    5    0    0 -0.39807239006E+03  0.12232897469E+03  0.23146933753E+03  0.48312560521E+03  0.80039305408E+02 0.  0.
          5    1    3    3  501    0  0.27443979486E+03 -0.98612133547E+02 -0.38958677681E+02  0.29424721316E+03  0.47000000000E+01 0. -1.
        -13    1    4    4    0    0  0.57460709546E+02 -0.29265298455E+02 -0.43279272224E+02  0.77661356153E+02  0.00000000000E+00 0.  1.
         14    1    4    4    0    0  0.15866863760E+03  0.41053423350E+02 -0.50720461941E+02  0.17156248246E+03  0.00000000000E+00 0. -1.
         -5    1    5    5    0  502 -0.92496751942E+02 -0.35504966037E+02  0.25140899464E+02  0.10232500456E+03  0.47000000000E+01 0.  1.
         11    1    6    6    0    0 -0.18670321867E+02  0.21288174026E+02  0.32022937528E+02  0.42746178775E+02  0.00000000000E+00 0. -1.
        -12    1    6    6    0    0 -0.37940206820E+03  0.10104080066E+03  0.19944640000E+03  0.44037942643E+03  0.00000000000E+00 0.  1.
</event>
<event>
12    1  0.8416569E-002  0.3151140E+03  0.7818608E-02  0.1078174E+00
         21   -1    0    0  501  502  0.00000000000E+00  0.00000000000E+00  0.16580282399E+03  0.16580282399E+03  0.00000000000E+00 0. -1.
         21   -1    0    0  502  503 -0.00000000000E+00 -0.00000000000E+00 -0.96020037158E+03  0.96020037158E+03  0.00000000000E+00 0.  1.
         -6    2    1    2    0  503  0.12550372139E+03 -0.23210621037E+03 -0.74366261492E+03  0.80683099944E+03  0.16827863752E+03 0.  0.
        -24    2    3    3    0    0  0.80943998376E+02 -0.50654107092E+02 -0.27019231970E+03  0.29780580835E+03  0.81034809970E+02 0.  0.
          6    2    1    2  501    0 -0.12550372139E+03  0.23210621037E+03 -0.50734932668E+02  0.31917219613E+03  0.17225672821E+03 0.  0.
         24    2    5    5    0    0 -0.23249700190E+02  0.17780894954E+03 -0.51851035976E+02  0.20329548117E+03  0.80522988232E+02 0.  0.
          5    1    5    5  501    0 -0.10225402120E+03  0.54297260825E+02  0.11161033085E+01  0.11587671496E+03  0.47000000000E+01 0. -1.
        -13    1    6    6    0    0  0.21529179753E+02  0.16295893644E+02 -0.17586393683E+02  0.32223329643E+02  0.00000000000E+00 0.  1.
         14    1    6    6    0    0 -0.44778879944E+02  0.16151305590E+03 -0.34264642293E+02  0.17107215152E+03  0.00000000000E+00 0. -1.
         -5    1    3    3    0  503  0.44559723011E+02 -0.18145210328E+03 -0.47347029522E+03  0.50902519108E+03  0.47000000000E+01 0.  1.
         11    1    4    4    0    0  0.16595868079E+02  0.22402475440E+02 -0.59343118150E+02  0.65565992824E+02  0.00000000000E+00 0. -1.
        -12    1    4    4    0    0  0.64348130296E+02 -0.73056582532E+02 -0.21084920155E+03  0.23223981553E+03  0.00000000000E+00 0.  1.
</event>
<event>
12    1  0.8416569E-002  0.2456156E+03  0.7818608E-02  0.1116958E+00
         21   -1    0    0  501  502  0.00000000000E+00  0.00000000000E+00  0.49930198182E+02  0.49930198182E+02  0.00000000000E+00 0. -1.
         21   -1    0    0  502  503 -0.00000000000E+00 -0.00000000000E+00 -0.17403903414E+04  0.17403903414E+04  0.00000000000E+00 0.  1.
         -6    2    1    2    0  503 -0.16169989166E+03  0.58229251415E+02 -0.13457590848E+04  0.13670642739E+04  0.16810625770E+03 0.  0.
        -24    2    3    3    0    0 -0.27757540847E+02  0.57525087399E+02 -0.70896652421E+03  0.71632015794E+03  0.80008871193E+02 0.  0.
          6    2    1    2  501    0  0.16169989166E+03 -0.58229251415E+02 -0.34470105842E+03  0.42325626571E+03  0.17546950193E+03 0.  0.
         24    2    5    5    0    0  0.31154183797E+02 -0.68374069822E+02 -0.11650670856E+03  0.16012160345E+03  0.80121895617E+02 0.  0.
          5    1    5    5  501    0  0.13054570787E+03  0.10144818407E+02 -0.22819434985E+03  0.26313466227E+03  0.47000000000E+01 0. -1.
        -13    1    6    6    0    0 -0.17581459113E+02 -0.34390940539E+01 -0.56196548468E+02  0.58982939331E+02  0.00000000000E+00 0.  1.
         14    1    6    6    0    0  0.48735642910E+02 -0.64934975768E+02 -0.60310160096E+02  0.10113866411E+03  0.00000000000E+00 0. -1.
         -5    1    3    3    0  503 -0.13394235082E+03  0.70416401609E+00 -0.63679256064E+03  0.65074411597E+03  0.47000000000E+01 0.  1.
         13    1    4    4    0    0  0.22315518921E+02  0.29647334155E+02 -0.15423219532E+03  0.15863327797E+03  0.00000000000E+00 0. -1.
        -14    1    4    4    0    0 -0.50073059768E+02  0.27877753244E+02 -0.55473432889E+03  0.55768687997E+03  0.00000000000E+00 0.  1.
</event>
<event>
12    1  0.8416569E-002  0.1858073E+03  0.7818608E-02  0.1162402E+00
         21   -1    0    0  501  502  0.00000000000E+00  0.00000000000E+00  0.96039847341E+02  0.96039847341E+02  0.00000000000E+00 0.  1.
         21   -1    0    0  502  503 -0.00000000000E+00 -0.00000000000E+00 -0.36182715289E+03  0.36182715289E+03  0.00000000000E+00 0.  1.
         -6    2    1    2    0  503  0.60801984833E+02 -0.39010772539E+02 -0.15463309905E+03  0.24173490734E+03  0.17118892597E+03 0.  0.
        -24    2    3    3    0    0 -0.28260903579E+02  0.71551196778E+01 -0.78283886234E+02  0.11558111234E+03  0.79879611148E+02 0.  0.
          6    2    1    2  501    0 -0.60801984833E+02  0.39010772539E+02 -0.11115420650E+03  0.21613209289E+03  0.17070179325E+03 0.  0.
         24    2    5    5    0    0 -0.10400468922E+03  0.16548663865E+02 -0.10778048302E+03  0.16709647315E+03  0.72206406682E+02 0.  0.
          5    1    5    5  501    0  0.43202704388E+02  0.22462108674E+02 -0.33737234855E+01  0.49035619734E+02  0.47000000000E+01 0. -1.
        -11    1    6    6    0    0  0.21390314830E+00  0.15146562772E+02  0.25030394169E+01  0.15353479237E+02  0.00000000000E+00 0.  1.
         12    1    6    6    0    0 -0.10421859237E+03  0.14021010929E+01 -0.11028352243E+03  0.15174299392E+03  0.00000000000E+00 0. -1.
         -5    1    3    3    0  503  0.89062888412E+02 -0.46165892216E+02 -0.76349212814E+02  0.12615379500E+03  0.47000000000E+01 0.  1.
         11    1    4    4    0    0  0.16519960848E+01  0.40329916851E+02 -0.37113244638E+02  0.54832692911E+02  0.00000000000E+00 0. -1.
        -12    1    4    4    0    0 -0.29912899663E+02 -0.33174797173E+02 -0.41170641596E+02  0.60748419430E+02  0.00000000000E+00 0.  1.
</event>
<event>
12    1  0.8416569E-002  0.1761015E+03  0.7818608E-02  0.1171899E+00
         21   -1    0    0  503  502  0.00000000000E+00  0.00000000000E+00  0.52000050413E+03  0.52000050413E+03  0.00000000000E+00 0.  1.
         21   -1    0    0  501  503 -0.00000000000E+00 -0.00000000000E+00 -0.89407571770E+02  0.89407571770E+02  0.00000000000E+00 0.  1.
          6    2    1    2  501    0 -0.30846699773E+02 -0.21162027525E+02  0.37962768542E+02  0.17909402602E+03  0.17097996393E+03 0.  0.
         24    2    3    3    0    0 -0.53827260537E+02 -0.67713535488E+02  0.50743979087E+01  0.11745893870E+03  0.79299154478E+02 0.  0.
         -6    2    1    2    0  502  0.30846699773E+02  0.21162027525E+02  0.39263016382E+03  0.43031404988E+03  0.17208249675E+03 0.  0.
        -24    2    5    5    0    0 -0.20702050942E+02  0.15787790459E+02  0.85978298120E+02  0.11927769692E+03  0.78467012141E+02 0.  0.
          5    1    3    3  501    0  0.22980560764E+02  0.46551507963E+02  0.32888370633E+02  0.61635087325E+02  0.47000000000E+01 0. -1.
        -13    1    4    4    0    0  0.20311126154E+02 -0.23115916180E+02  0.29746396455E+01  0.30914978691E+02  0.00000000000E+00 0.  1.
         14    1    4    4    0    0 -0.74138386690E+02 -0.44597619308E+02  0.20997582632E+01  0.86543960007E+02  0.00000000000E+00 0. -1.
         -5    1    5    5    0  502  0.51548750714E+02  0.53742370656E+01  0.30665186570E+03  0.31103635296E+03  0.47000000000E+01 0.  1.
         11    1    6    6    0    0  0.16813666947E+01  0.44794805193E+02  0.37076257175E+02  0.58172591590E+02  0.00000000000E+00 0. -1.
        -12    1    6    6    0    0 -0.22383417637E+02 -0.29007014734E+02  0.48902040946E+02  0.61105105331E+02  0.00000000000E+00 0.  1.
</event>
<event>
12    1  0.8416569E-002  0.2007503E+03  0.7818608E-02  0.1149266E+00
         21   -1    0    0  503  502  0.00000000000E+00  0.00000000000E+00  0.49121895914E+03  0.49121895914E+03  0.00000000000E+00 0. -1.
         21   -1    0    0  501  503 -0.00000000000E+00 -0.00000000000E+00 -0.11498505837E+03  0.11498505837E+03  0.00000000000E+00 0. -1.
          6    2    1    2  501    0 -0.76146225979E+02  0.68460325037E+02  0.25374888810E+02  0.20234767143E+03  0.17267203397E+03 0.  0.
         24    2    3    3    0    0  0.16326619731E+02  0.47061423357E+02 -0.25780649390E+02  0.94421218346E+02  0.75956490906E+02 0.  0.
         -6    2    1    2    0  502  0.76146225979E+02 -0.68460325037E+02  0.35085901196E+03  0.40385634608E+03  0.17179300963E+03 0.  0.
        -24    2    5    5    0    0  0.76145811922E+02 -0.46107864287E+02  0.35991578563E+03  0.37928506912E+03  0.79960434534E+02 0.  0.
          5    1    3    3  501    0 -0.92472845709E+02  0.21398901679E+02  0.51155538200E+02  0.10792645308E+03  0.47000000000E+01 0. -1.
        -13    1    4    4    0    0  0.35550243886E+01 -0.19525764147E+02  0.42019930313E+01  0.20286705237E+02  0.00000000000E+00 0.  1.
         14    1    4    4    0    0  0.12771595342E+02  0.66587187505E+02 -0.29982642421E+02  0.74134513109E+02  0.00000000000E+00 0. -1.
         -5    1    5    5    0  502  0.41405657979E-03 -0.22352460750E+02 -0.90567736729E+01  0.24571276953E+02  0.47000000000E+01 0.  1.
         11    1    6    6    0    0  0.39231780304E+02  0.19181362345E+02  0.15665836205E+03  0.16263117674E+03  0.00000000000E+00 0. -1.
        -12    1    6    6    0    0  0.36914031618E+02 -0.65289226632E+02  0.20325742359E+03  0.21665389239E+03  0.00000000000E+00 0.  1.
</event>
<event>
12    1  0.8416569E-002  0.2059589E+03  0.7818608E-02  0.1147894E+00
         21   -1    0    0  501  502  0.00000000000E+00  0.00000000000E+00  0.20677715035E+03  0.20677715035E+03  0.00000000000E+00 0. -1.
         21   -1    0    0  502  503 -0.00000000000E+00 -0.00000000000E+00 -0.25945077100E+03  0.25945077100E+03  0.00000000000E+00 0. -1.
         -6    2    1    2    0  503  0.19061764850E+01  0.84589507187E+02 -0.14544189680E+03  0.24034073460E+03  0.17161382558E+03 0.  0.
        -24    2    3    3    0    0  0.21915104852E+02  0.65412987634E+02 -0.17098163672E+03  0.20236094482E+03  0.83403244075E+02 0.  0.
          6    2    1    2  501    0 -0.19061764850E+01 -0.84589507187E+02  0.92768276149E+02  0.22588718674E+03  0.18777659556E+03 0.  0.
         24    2    5    5    0    0 -0.78456894823E+02 -0.41913439653E+02  0.49738787484E+02  0.12813808898E+03  0.77673689872E+02 0.  0.
          5    1    5    5  501    0  0.76550718338E+02 -0.42676067535E+02  0.43029488665E+02  0.97749097761E+02  0.47000000000E+01 0. -1.
        -13    1    6    6    0    0  0.43834510548E+01 -0.10623213903E+02 -0.14672513433E+02  0.18637327255E+02  0.00000000000E+00 0.  1.
         14    1    6    6    0    0 -0.82840345878E+02 -0.31290225750E+02  0.64411300917E+02  0.10950076173E+03  0.00000000000E+00 0. -1.
         -5    1    3    3    0  503 -0.20008928366E+02  0.19176519554E+02  0.25539739921E+02  0.37979789781E+02  0.47000000000E+01 0.  1.
         13    1    4    4    0    0 -0.15005350502E+01 -0.20483309226E+01 -0.10532373695E+03  0.10535433940E+03  0.00000000000E+00 0. -1.
        -14    1    4    4    0    0  0.23415639902E+02  0.67461318556E+02 -0.65657899763E+02  0.97006605418E+02  0.00000000000E+00 0.  1.
</event>
<event>
12    1  0.8416569E-002  0.1971988E+03  0.7818608E-02  0.1152716E+00
         21   -1    0    0  501  502  0.00000000000E+00  0.00000000000E+00  0.29874310393E+03  0.29874310393E+03  0.00000000000E+00 0.  1.
         21   -1    0    0  502  503 -0.00000000000E+00 -0.00000000000E+00 -0.19216719141E+03  0.19216719141E+03  0.00000000000E+00 0.  1.
         -6    2    1    2    0  503  0.63278713933E+02 -0.63650947440E+02 -0.87886837395E+02  0.21589688673E+03  0.17558966589E+03 0.  0.
        -24    2    3    3    0    0  0.34330863325E+02 -0.53815754926E+01 -0.11590322524E+03  0.14490177599E+03  0.79720747177E+02 0.  0.
          6    2    1    2  501    0 -0.63278713933E+02  0.63650947440E+02  0.19446274992E+03  0.27501340860E+03  0.17251369528E+03 0.  0.
         24    2    5    5    0    0 -0.76160810009E+02  0.66513222576E+02  0.21440950342E+03  0.25063916003E+03  0.81388424376E+02 0.  0.
          5    1    5    5  501    0  0.12882096076E+02 -0.28622751362E+01 -0.19946753506E+02  0.24374248577E+02  0.47000000000E+01 0. -1.
        -13    1    6    6    0    0 -0.33980196129E+02  0.75631215751E+02  0.11069320425E+03  0.13830300066E+03  0.00000000000E+00 0.  1.
         14    1    6    6    0    0 -0.42180613880E+02 -0.91179931752E+01  0.10371629917E+03  0.11233615936E+03  0.00000000000E+00 0. -1.
         -5    1    3    3    0  503  0.28947850607E+02 -0.58269371947E+02  0.28016387849E+02  0.70995110747E+02  0.47000000000E+01 0.  1.
         11    1    4    4    0    0  0.79501023402E+00  0.26978603056E+02 -0.84499670668E+02  0.88705531999E+02  0.00000000000E+00 0. -1.
        -12    1    4    4    0    0  0.33535853091E+02 -0.32360178549E+02 -0.31403554576E+02  0.56196243987E+02  0.00000000000E+00 0.  1.
</event>
<event>
12    1  0.8416569E-002  0.2291900E+03  0.7818608E-02  0.1127298E+00
         21   -1    0    0  501  502  0.00000000000E+00  0.00000000000E+00  0.19800496614E+04  0.19800496614E+04  0.00000000000E+00 0. -1.
         21   -1    0    0  502  503 -0.00000000000E+00 -0.00000000000E+00 -0.47276932495E+02  0.47276932495E+02  0.00000000000E+00 0.  1.
         -6    2    1    2    0  503 -0.60643337147E+02  0.13786077169E+03  0.29337485138E+03  0.37198570768E+03  0.17210856047E+03 0.  0.
        -24    2    3    3    0    0 -0.74725713672E+02  0.22098611584E+02  0.14104259764E+03  0.18008365827E+03  0.80404158521E+02 0.  0.
          6    2    1    2  501    0  0.60643337147E+02 -0.13786077169E+03  0.16393978775E+04  0.16553408862E+04  0.17275659766E+03 0.  0.
         24    2    5    5    0    0  0.78468982246E+02 -0.16326732180E+03  0.14283916411E+04  0.14420125753E+04  0.79271606066E+02 0.  0.
          5    1    5    5  501    0 -0.17825645098E+02  0.25406550111E+02  0.21100623646E+03  0.21332831091E+03  0.47000000000E+01 0. -1.
        -13    1    6    6    0    0 -0.14722966660E+02 -0.33609072508E+02  0.20685401810E+03  0.21008312713E+03  0.00000000000E+00 0.  1.
         14    1    6    6    0    0  0.93191948906E+02 -0.12965824929E+03  0.12215376230E+04  0.12319294482E+04  0.00000000000E+00 0. -1.
         -5    1    3    3    0  503  0.14082376525E+02  0.11576216010E+03  0.15233225374E+03  0.19190204941E+03  0.47000000000E+01 0.  1.
         11    1    4    4    0    0  0.13048620323E+02 -0.11882902864E+02  0.26351066905E+02  0.31715116267E+02  0.00000000000E+00 0. -1.
        -12    1    4    4    0    0 -0.87774333995E+02  0.33981514448E+02  0.11469153074E+03  0.14836854200E+03  0.00000000000E+00 0.  1.
</event>
<event>
12    1  0.8416569E-002  0.2152422E+03  0.7818608E-02  0.1137612E+00
         21   -1    0    0  503  502  0.00000000000E+00  0.00000000000E+00  0.56754172667E+02  0.56754172667E+02  0.00000000000E+00 0.  1.
         21   -1    0    0  501  503 -0.00000000000E+00 -0.00000000000E+00 -0.11063685371E+04  0.11063685371E+04  0.00000000000E+00 0.  1.
          6    2    1    2  501    0  0.12020767493E+03  0.48087369382E+02 -0.82451950983E+03  0.85215116789E+03  0.17195031447E+03 0.  0.
         24    2    3    3    0    0  0.86164750273E+02  0.69111694523E+01 -0.26300631976E+03  0.28808241962E+03  0.79668235868E+02 0.  0.
         -6    2    1    2    0  502 -0.12020767493E+03 -0.48087369382E+02 -0.22509485458E+03  0.31097154185E+03  0.17109449458E+03 0.  0.
        -24    2    5    5    0    0 -0.13605014775E+03 -0.66116126135E+02 -0.13825226239E+03  0.22075100188E+03  0.82075160285E+02 0.  0.
          5    1    3    3  501    0  0.34042924658E+02  0.41176199929E+02 -0.56151319007E+03  0.56406874827E+03  0.47000000000E+01 0. -1.
        -11    1    4    4    0    0  0.96488520899E+02 -0.10261947026E+02 -0.20740345535E+03  0.22897933425E+03  0.00000000000E+00 0.  1.
         12    1    4    4    0    0 -0.10323770625E+02  0.17173116478E+02 -0.55602864415E+02  0.59103085374E+02  0.00000000000E+00 0. -1.
         -5    1    5    5    0  502  0.15842472817E+02  0.18028756754E+02 -0.86842592189E+02  0.90220539974E+02  0.47000000000E+01 0.  1.
         13    1    6    6    0    0 -0.37808159061E+01 -0.35487878741E+02 -0.21345705488E+02  0.41585132551E+02  0.00000000000E+00 0. -1.
        -14    1    6    6    0    0 -0.13226933184E+03 -0.30628247394E+02 -0.11690655690E+03  0.17916586933E+03  0.00000000000E+00 0.  1.
</event>
<event>
12    1  0.8416569E-002  0.1986621E+03  0.7818608E-02  0.1151160E+00
         21   -1    0    0  503  502  0.00000000000E+00  0.00000000000E+00  0.15283776069E+03  0.15283776069E+03  0.00000000000E+00 0.  1.
         21   -1    0    0  501  503 -0.00000000000E+00 -0.00000000000E+00 -0.30660429666E+03  0.30660429666E+03  0.00000000000E+00 0.  1.
          6    2    1    2  501    0  0.66067581882E+02 -0.69990913111E+02 -0.16998690229E+03  0.26146164791E+03  0.17379008339E+03 0.  0.
         24    2    3    3    0    0  0.98647117302E+02 -0.26680082090E+02 -0.15975059120E+03  0.20610709727E+03  0.80726721879E+02 0.  0.
         -6    2    1    2    0  502 -0.66067581882E+02  0.69990913111E+02  0.16220366311E+02  0.19798040944E+03  0.17224833510E+03 0.  0.
        -24    2    5    5    0    0 -0.65433317266E+01  0.28622900087E+02  0.68986347801E+02  0.10819852006E+03  0.78011011789E+02 0.  0.
          5    1    3    3  501    0 -0.32579535419E+02 -0.43310831021E+02 -0.10236311093E+02  0.55354550641E+02  0.47000000000E+01 0. -1.
        -13    1    4    4    0    0  0.66820362228E+02  0.20189704680E+02 -0.63210241481E+02  0.94170694016E+02  0.00000000000E+00 0.  1.
         14    1    4    4    0    0  0.31826755073E+02 -0.46869786770E+02 -0.96540349714E+02  0.11193640325E+03  0.00000000000E+00 0. -1.
         -5    1    5    5    0  502 -0.59524250156E+02  0.41368013024E+02 -0.52765981490E+02  0.89781889381E+02  0.47000000000E+01 0.  1.
         11    1    6    6    0    0  0.23457054714E+02 -0.17644645048E+01 -0.37830082251E+01  0.23825572439E+02  0.00000000000E+00 0. -1.
        -12    1    6    6    0    0 -0.30000386440E+02  0.30387364592E+02  0.72769356027E+02  0.84372947619E+02  0.00000000000E+00 0.  1.
</event>
<event>
12    1  0.8416569E-002  0.1963932E+03  0.7818608E-02  0.1152912E+00
         21   -1    0    0  503  502  0.00000000000E+00  0.00000000000E+00  0.56940639643E+03  0.56940639643E+03  0.00000000000E+00 0.  1.
         21   -1    0    0  501  503 -0.00000000000E+00 -0.00000000000E+00 -0.32418145184E+03  0.32418145184E+03  0.00000000000E+00 0.  1.
          6    2    1    2  501    0  0.31702771059E+02 -0.90196318739E+02 -0.27485816326E+03  0.33781250792E+03  0.17155127219E+03 0.  0.
         24    2    3    3    0    0 -0.36243504788E+02 -0.62876823558E+02 -0.20414250980E+03  0.23590154255E+03  0.93318202348E+02 0.  0.
         -6    2    1    2    0  502 -0.31702771059E+02  0.90196318739E+02  0.52008310784E+03  0.55577534035E+03  0.17105364150E+03 0.  0.
        -24    2    5    5    0    0 -0.62795426241E+02  0.10956016133E+03  0.35025680764E+03  0.38198013372E+03  0.85336374158E+02 0.  0.
          5    1    3    3  501    0  0.67946275848E+02 -0.27319495181E+02 -0.70715653453E+02  0.10191096537E+03  0.47000000000E+01 0. -1.
        -13    1    4    4    0    0  0.10601871486E+01 -0.18462063310E+02  0.47608830080E+01  0.19095491234E+02  0.00000000000E+00 0.  1.
         14    1    4    4    0    0 -0.37303691937E+02 -0.44414760248E+02 -0.20890339281E+03  0.21680605132E+03  0.00000000000E+00 0. -1.
         -5    1    5    5    0  502  0.31092655181E+02 -0.19363842587E+02  0.16982630020E+03  0.17379520663E+03  0.47000000000E+01 0.  1.
         11    1    6    6    0    0 -0.12251894495E+01 -0.12241212798E+02  0.59863233288E+02  0.61114278853E+02  0.00000000000E+00 0. -1.
        -12    1    6    6    0    0 -0.61570236791E+02  0.12180137412E+03  0.29039357435E+03  0.32086585487E+03  0.00000000000E+00 0.  1.
</event>
<event>
12    1  0.8416569E-002  0.1905534E+03  0.7818608E-02  0.1158665E+00
         21   -1    0    0  503  502  0.00000000000E+00  0.00000000000E+00  0.14635668073E+04  0.14635668073E+04  0.00000000000E+00 0.  1.
         21   -1    0    0  501  503 -0.00000000000E+00 -0.00000000000E+00 -0.49017738294E+02  0.49017738294E+02  0.00000000000E+00 0.  1.
          6    2    1    2  501    0  0.46214728798E+02 -0.56411899813E+02  0.16851660709E+03  0.25206580494E+03  0.17268821488E+03 0.  0.
         24    2    3    3    0    0  0.82622619226E+02 -0.78662856990E+02  0.15242492317E+03  0.20622181000E+03  0.79244781781E+02 0.  0.
         -6    2    1    2    0  502 -0.46214728798E+02  0.56411899813E+02  0.12460324620E+04  0.12605187407E+04  0.17604685678E+03 0.  0.
        -24    2    5    5    0    0  0.40638215355E+02  0.24742243849E+02  0.52263954775E+03  0.53122744132E+03  0.82382366793E+02 0.  0.
          5    1    3    3  501    0 -0.36407890428E+02  0.22250957177E+02  0.16091683919E+02  0.45843994940E+02  0.47000000000E+01 0. -1.
        -11    1    4    4    0    0  0.41036919950E+02  0.82196499974E+01  0.36777709068E+02  0.55715270163E+02  0.00000000000E+00 0.  1.
         12    1    4    4    0    0  0.41585699276E+02 -0.86882506988E+02  0.11564721410E+03  0.15050653984E+03  0.00000000000E+00 0. -1.
         -5    1    5    5    0  502 -0.86852944152E+02  0.31669655964E+02  0.72339291422E+03  0.72929129938E+03  0.47000000000E+01 0.  1.
         13    1    6    6    0    0  0.61204254576E+01 -0.11963707844E+02  0.37473443279E+03  0.37497531256E+03  0.00000000000E+00 0. -1.
        -14    1    6    6    0    0  0.34517789897E+02  0.36705951693E+02  0.14790511496E+03  0.15625212876E+03  0.00000000000E+00 0.  1.
</event>
<event>
12    1  0.8416569E-002  0.3001387E+03  0.7818608E-02  0.1085479E+00
         21   -1    0    0  503  502  0.00000000000E+00  0.00000000000E+00  0.55136092991E+02  0.55136092991E+02  0.00000000000E+00 0.  1.
         21   -1    0    0  501  503 -0.00000000000E+00 -0.00000000000E+00 -0.16782708810E+04  0.16782708810E+04  0.00000000000E+00 0.  1.
          6    2    1    2  501    0  0.10689198053E+03 -0.21871458654E+03 -0.64759735839E+03  0.71274222114E+03  0.17133933974E+03 0.  0.
         24    2    3    3    0    0 -0.52959425766E+01 -0.13513996161E+03 -0.31463875998E+03  0.35155755054E+03  0.79399658878E+02 0.  0.
         -6    2    1    2    0  502 -0.10689198053E+03  0.21871458654E+03 -0.97553742966E+03  0.10206647529E+04  0.17555994774E+03 0.  0.
        -24    2    5    5    0    0 -0.19084288403E+02  0.14258908795E+03 -0.73725445488E+03  0.75551168690E+03  0.80980983796E+02 0.  0.
          5    1    3    3  501    0  0.11218792310E+03 -0.83574624930E+02 -0.33295859841E+03  0.36118467060E+03  0.47000000000E+01 0. -1.
        -11    1    4    4    0    0  0.36395388947E+02 -0.73480761183E+02 -0.15241071321E+03  0.17306955857E+03  0.00000000000E+00 0.  1.
         12    1    4    4    0    0 -0.41691331523E+02 -0.61659200430E+02 -0.16222804677E+03  0.17848799198E+03  0.00000000000E+00 0. -1.
         -5    1    5    5    0  502 -0.87807692124E+02  0.76125498590E+02 -0.23828297478E+03  0.26515306598E+03  0.47000000000E+01 0.  1.
         11    1    6    6    0    0  0.42465374949E+01  0.73007326069E+02 -0.54216643916E+03  0.54707636624E+03  0.00000000000E+00 0. -1.
        -12    1    6    6    0    0 -0.23330825898E+02  0.69581761884E+02 -0.19508801572E+03  0.20843532067E+03  0.00000000000E+00 0.  1.
</event>
<event>
12    1  0.8416569E-002  0.4457922E+03  0.7818608E-02  0.1029114E+00
         21   -1    0    0  503  502  0.00000000000E+00  0.00000000000E+00  0.98995893386E+03  0.98995893386E+03  0.00000000000E+00 0.  1.
         21   -1    0    0  501  503 -0.00000000000E+00 -0.00000000000E+00 -0.22023208017E+03  0.22023208017E+03  0.00000000000E+00 0.  1.
          6    2    1    2  501    0 -0.40960037237E+03  0.33950098946E+02  0.20066833102E+03  0.48730910404E+03  0.16815858450E+03 0.  0.
         24    2    3    3    0    0 -0.23222757638E+03  0.53237682089E+01  0.18469812820E+03  0.30687154434E+03  0.78094535215E+02 0.  0.
         -6    2    1    2    0  502  0.40960037237E+03 -0.33950098946E+02  0.56905852267E+03  0.72288190999E+03  0.17264292429E+03 0.  0.
        -24    2    5    5    0    0  0.27940161858E+03 -0.59336315138E+02  0.47672922259E+03  0.56119404676E+03  0.77986817441E+02 0.  0.
          5    1    3    3  501    0 -0.17737279600E+03  0.28626330737E+02  0.15970202822E+02  0.18043755970E+03  0.47000000000E+01 0. -1.
        -13    1    4    4    0    0 -0.11569431516E+03  0.10539848285E+02  0.44290765182E+02  0.12432994347E+03  0.00000000000E+00 0.  1.
         14    1    4    4    0    0 -0.11653326121E+03 -0.52160800761E+01  0.14040736302E+03  0.18254160087E+03  0.00000000000E+00 0. -1.
         -5    1    5    5    0  502  0.13019875380E+03  0.25386216192E+02  0.92329300082E+02  0.16168786323E+03  0.47000000000E+01 0.  1.
         13    1    6    6    0    0  0.18342165428E+03 -0.12728883507E+01  0.31122013276E+03  0.36125212046E+03  0.00000000000E+00 0. -1.
        -14    1    6    6    0    0  0.95979964299E+02 -0.58063426788E+02  0.16550908982E+03  0.19994192630E+03  0.00000000000E+00 0.  1.
</event>
<event>
12    1  0.8416569E-002  0.2829466E+03  0.7818608E-02  0.1094126E+00
         21   -1    0    0  501  502  0.00000000000E+00  0.00000000000E+00  0.33222628182E+03  0.33222628182E+03  0.00000000000E+00 0. -1.
         21   -1    0    0  502  503 -0.00000000000E+00 -0.00000000000E+00 -0.24601377193E+03  0.24601377193E+03  0.00000000000E+00 0.  1.
         -6    2    1    2    0  503  0.21407523801E+03 -0.67548905767E+02  0.84980807692E+00  0.28294787784E+03  0.17224319203E+03 0.  0.
        -24    2    3    3    0    0  0.19598744073E+03 -0.59458625550E+01  0.27319084718E+02  0.21334316572E+03  0.79514424877E+02 0.  0.
          6    2    1    2  501    0 -0.21407523801E+03  0.67548905767E+02  0.85362701814E+02  0.29529217591E+03  0.17181273554E+03 0.  0.
         24    2    5    5    0    0 -0.54157357202E+02  0.42718052433E+02 -0.11945088720E+02  0.10639750691E+03  0.80124234714E+02 0.  0.
          5    1    5    5  501    0 -0.15991788081E+03  0.24830853334E+02  0.97307790534E+02  0.18889466900E+03  0.47000000000E+01 0. -1.
        -13    1    6    6    0    0  0.18705263163E+02  0.22393055103E+02  0.28615889137E+01  0.29317647893E+02  0.00000000000E+00 0.  1.
         14    1    6    6    0    0 -0.72862620365E+02  0.20324997330E+02 -0.14806677634E+02  0.77079859013E+02  0.00000000000E+00 0. -1.
         -5    1    3    3    0  503  0.18087797281E+02 -0.61603043212E+02 -0.26469276641E+02  0.69604712121E+02  0.47000000000E+01 0.  1.
         11    1    4    4    0    0  0.69736322791E+02 -0.40486611576E+02  0.12863188373E+02  0.81656488098E+02  0.00000000000E+00 0. -1.
        -12    1    4    4    0    0  0.12625111794E+03  0.34540749021E+02  0.14455896345E+02  0.13168667762E+03  0.00000000000E+00 0.  1.
</event>
<event>
12    1  0.8416569E-002  0.2200703E+03  0.7818608E-02  0.1134227E+00
         21   -1    0    0  503  502  0.00000000000E+00  0.00000000000E+00  0.34484304926E+02  0.34484304926E+02  0.00000000000E+00 0.  1.
         21   -1    0    0  501  503 -0.00000000000E+00 -0.00000000000E+00 -0.15218044277E+04  0.15218044277E+04  0.00000000000E+00 0. -1.
          6    2    1    2  501    0 -0.40410808607E+02  0.13113222107E+03 -0.97512835334E+03  0.99965305910E+03  0.17205301572E+03 0.  0.
         24    2    3    3    0    0 -0.39687955639E+02  0.14083485812E+03 -0.56295910106E+03  0.58734219797E+03  0.81475867343E+02 0.  0.
         -6    2    1    2    0  502  0.40410808607E+02 -0.13113222107E+03 -0.51219176942E+03  0.55663567351E+03  0.16933449593E+03 0.  0.
        -24    2    5    5    0    0  0.76106100379E+02 -0.62459359796E+02 -0.21671766455E+03  0.25115711064E+03  0.80125139337E+02 0.  0.
          5    1    3    3  501    0 -0.72285296759E+00 -0.97026370477E+01 -0.41216925228E+03  0.41231086113E+03  0.47000000000E+01 0. -1.
        -13    1    4    4    0    0 -0.71210321359E+01  0.11950219074E+03 -0.32767117582E+03  0.34885510195E+03  0.00000000000E+00 0.  1.
         14    1    4    4    0    0 -0.32566923503E+02  0.21332667381E+02 -0.23528792524E+03  0.23848709602E+03  0.00000000000E+00 0. -1.
         -5    1    5    5    0  502 -0.35695291772E+02 -0.68672861276E+02 -0.29547410486E+03  0.30547856287E+03  0.47000000000E+01 0.  1.
         11    1    6    6    0    0  0.14726622974E+02 -0.47007402533E+02 -0.15544356714E+03  0.16306217183E+03  0.00000000000E+00 0. -1.
        -12    1    6    6    0    0  0.61379477405E+02 -0.15451957262E+02 -0.61274097418E+02  0.88094938811E+02  0.00000000000E+00 0.  1.
</event>
<event>
12    1  0.8416569E-002  0.2291256E+03  0.7818608E-02  0.1127410E+00
         21   -1    0    0  503  502  0.00000000000E+00  0.00000000000E+00  0.66800061659E+03  0.66800061659E+03  0.00000000000E+00 0.  1.
         21   -1    0    0  501  503 -0.00000000000E+00 -0.00000000000E+00 -0.42484279631E+03  0.42484279631E+03  0.00000000000E+00 0. -1.
          6    2    1    2  501    0  0.96321680784E+02 -0.11462469170E+03 -0.37197386426E+03  0.43642470616E+03  0.17229417377E+03 0.  0.
         24    2    3    3    0    0  0.54550342027E+02 -0.13355144429E+03 -0.20404687385E+03  0.26228501851E+03  0.79665401024E+02 0.  0.
         -6    2    1    2    0  502 -0.96321680784E+02  0.11462469170E+03  0.61513168455E+03  0.65641870673E+03  0.17344118047E+03 0.  0.
        -24    2    5    5    0    0 -0.25509734718E+02  0.34757091735E+02  0.12617927742E+03  0.15592923466E+03  0.80832630652E+02 0.  0.
          5    1    3    3  501    0  0.41771338756E+02  0.18926752587E+02 -0.16792699042E+03  0.17413968765E+03  0.47000000000E+01 0. -1.
        -11    1    4    4    0    0  0.73324901137E+02 -0.88935695378E+02 -0.12913581953E+03  0.17309580851E+03  0.00000000000E+00 0.  1.
         12    1    4    4    0    0 -0.18774559110E+02 -0.44615748908E+02 -0.74911054320E+02  0.89189209996E+02  0.00000000000E+00 0. -1.
         -5    1    5    5    0  502 -0.70811946066E+02  0.79867599963E+02  0.48895240712E+03  0.50048947208E+03  0.47000000000E+01 0.  1.
         11    1    6    6    0    0 -0.12376218709E+02  0.58925947105E+02  0.63649572762E+02  0.87616814280E+02  0.00000000000E+00 0. -1.
        -12    1    6    6    0    0 -0.13133516009E+02 -0.24168855370E+02  0.62529704661E+02  0.68312420376E+02  0.00000000000E+00 0.  1.
</event>
<event>
12    1  0.8416569E-002  0.2219245E+03  0.7818608E-02  0.1132540E+00
         21   -1    0    0  501  502  0.00000000000E+00  0.00000000000E+00  0.11799632024E+04  0.11799632024E+04  0.00000000000E+00 0.  1.
         21   -1    0    0  502  503 -0.00000000000E+00 -0.00000000000E+00 -0.37503497137E+03  0.37503497137E+03  0.00000000000E+00 0. -1.
         -6    2    1    2    0  503 -0.65220008470E+02 -0.12475217106E+03 -0.33063270024E+03  0.39795490968E+03  0.17097770024E+03 0.  0.
        -24    2    3    3    0    0 -0.99333577966E+02 -0.11379909247E+03 -0.20440352969E+03  0.26665525602E+03  0.80664920835E+02 0.  0.
          6    2    1    2  501    0  0.65220008470E+02  0.12475217106E+03  0.11355609313E+04  0.11570432641E+04  0.17156262018E+03 0.  0.
         24    2    5    5    0    0  0.11100856445E+03  0.91682862181E+02  0.79851882640E+03  0.81526900890E+03  0.79388866764E+02 0.  0.
          5    1    5    5  501    0 -0.45788555975E+02  0.33069308882E+02  0.33704210488E+03  0.34177425519E+03  0.47000000000E+01 0. -1.
        -13    1    6    6    0    0  0.21311049840E+02 -0.28815399734E+01  0.27233569543E+03  0.27318344592E+03  0.00000000000E+00 0.  1.
         14    1    6    6    0    0  0.89697514605E+02  0.94564402154E+02  0.52618313097E+03  0.54208556299E+03  0.00000000000E+00 0. -1.
         -5    1    3    3    0  503  0.34113569496E+02 -0.10953078595E+02 -0.12622917055E+03  0.13129965366E+03  0.47000000000E+01 0.  1.
         11    1    4    4    0    0 -0.37380804811E+02 -0.10033419225E+03 -0.14038179645E+03  0.17655402424E+03  0.00000000000E+00 0. -1.
        -12    1    4    4    0    0 -0.61952773155E+02 -0.13464900216E+02 -0.64021733248E+02  0.90101231776E+02  0.00000000000E+00 0.  1.
</event>
<event>
12    1  0.8416569E-002  0.1898229E+03  0.7818608E-02  0.1159094E+00
         21   -1    0    0  503  502  0.00000000000E+00  0.00000000000E+00  0.81046319956E+03  0.81046319956E+03  0.00000000000E+00 0.  1.
         21   -1    0    0  501  503 -0.00000000000E+00 -0.00000000000E+00 -0.14180250548E+03  0.14180250548E+03  0.00000000000E+00 0.  1.
          6    2    1    2  501    0 -0.78909269697E+02  0.87591640781E+01 -0.60572438828E+02  0.19925299788E+03  0.17242198531E+03 0.  0.
         24    2    3    3    0    0 -0.95623322220E+02 -0.32932683196E+02 -0.75891812434E+02  0.15156292670E+03  0.83566573347E+02 0.  0.
         -6    2    1    2    0  502  0.78909269697E+02 -0.87591640781E+01  0.72923313291E+03  0.75301270717E+03  0.17012871369E+03 0.  0.
        -24    2    5    5    0    0  0.67692384819E+02 -0.68795977666E+02  0.45781972005E+03  0.47477258035E+03  0.80591323840E+02 0.  0.
          5    1    3    3  501    0  0.16714052522E+02  0.41691847274E+02  0.15319373607E+02  0.47690071174E+02  0.47000000000E+01 0. -1.
        -13    1    4    4    0    0 -0.17791460777E+02 -0.21724257547E+02 -0.66728641042E+02  0.72396070182E+02  0.00000000000E+00 0.  1.
         14    1    4    4    0    0 -0.77831861443E+02 -0.11208425649E+02 -0.91631713927E+01  0.79166856519E+02  0.00000000000E+00 0. -1.
         -5    1    5    5    0  502  0.11216884879E+02  0.60036813587E+02  0.27141341286E+03  0.27824012682E+03  0.47000000000E+01 0.  1.
         11    1    6    6    0    0  0.18366890721E+02 -0.86842240509E+01  0.15196614213E+02  0.25371154993E+02  0.00000000000E+00 0. -1.
        -12    1    6    6    0    0  0.49325494098E+02 -0.60111753615E+02  0.44262310584E+03  0.44940142536E+03  0.00000000000E+00 0.  1.
</event>
<event>
12    1  0.8416569E-002  0.2161157E+03  0.7818608E-02  0.1137423E+00
         21   -1    0    0  503  502  0.00000000000E+00  0.00000000000E+00  0.70531552588E+02  0.70531552588E+02  0.00000000000E+00 0.  1.
         21   -1    0    0  501  503 -0.00000000000E+00 -0.00000000000E+00 -0.71211766883E+03  0.71211766883E+03  0.00000000000E+00 0. -1.
          6    2    1    2  501    0  0.37555216103E+02  0.12471831600E+03 -0.20539268811E+03  0.29585285782E+03  0.16845683289E+03 0.  0.
         24    2    3    3    0    0  0.81837179631E+02  0.95668650643E+02 -0.18769042512E+03  0.23981505391E+03  0.80210658372E+02 0.  0.
         -6    2    1    2    0  502 -0.37555216103E+02 -0.12471831600E+03 -0.43619342813E+03  0.48679636360E+03  0.17245561824E+03 0.  0.
        -24    2    5    5    0    0 -0.50259968760E+02 -0.10713639968E+03 -0.44109771037E+03  0.46406584434E+03  0.82375027714E+02 0.  0.
          5    1    3    3  501    0 -0.44281963528E+02  0.29049665361E+02 -0.17702262986E+02  0.56037803903E+02  0.47000000000E+01 0. -1.
        -11    1    4    4    0    0  0.37789093070E+02  0.91468578498E+02 -0.95380163405E+02  0.13744777910E+03  0.00000000000E+00 0.  1.
         12    1    4    4    0    0  0.44048086561E+02  0.42000721450E+01 -0.92310261715E+02  0.10236727482E+03  0.00000000000E+00 0. -1.
         -5    1    5    5    0  502  0.12704752656E+02 -0.17581916321E+02  0.49042822368E+01  0.22730519260E+02  0.47000000000E+01 0.  1.
         11    1    6    6    0    0 -0.50341717391E+02 -0.19216749455E+02 -0.12852896104E+03  0.13936737709E+03  0.00000000000E+00 0. -1.
        -12    1    6    6    0    0  0.81748631368E-01 -0.87919650227E+02 -0.31256874933E+03  0.32469846725E+03  0.00000000000E+00 0.  1.
</event>
<event>
12    1  0.8416569E-002  0.2342582E+03  0.7818608E-02  0.1124081E+00
         21   -1    0    0  503  502  0.00000000000E+00  0.00000000000E+00  0.45473952279E+03  0.45473952279E+03  0.00000000000E+00 0. -1.
         21   -1    0    0  501  503 -0.00000000000E+00 -0.00000000000E+00 -0.12089889788E+03  0.12089889788E+03  0.00000000000E+00 0.  1.
          6    2    1    2  501    0  0.13722248523E+02 -0.15447376748E+03  0.19729332524E+03  0.30448887741E+03  0.17244818160E+03 0.  0.
         24    2    3    3    0    0  0.64523699017E+02 -0.11177664190E+03  0.18160708978E+03  0.23613699457E+03  0.78244614725E+02 0.  0.
         -6    2    1    2    0  502 -0.13722248523E+02  0.15447376748E+03  0.13654729967E+03  0.27114954327E+03  0.17557467022E+03 0.  0.
        -24    2    5    5    0    0  0.37248746129E+02  0.15548484023E+03  0.13644029797E+03  0.21995221899E+03  0.64807554342E+02 0.  0.
          5    1    3    3  501    0 -0.50801450495E+02 -0.42697125578E+02  0.15686235453E+02  0.68351882839E+02  0.47000000000E+01 0. -1.
        -11    1    4    4    0    0  0.38696314363E+02 -0.12013293306E+02  0.21871805493E+02  0.46044541879E+02  0.00000000000E+00 0.  1.
         12    1    4    4    0    0  0.25827384654E+02 -0.99763348594E+02  0.15973528429E+03  0.19009245269E+03  0.00000000000E+00 0. -1.
         -5    1    5    5    0  502 -0.50970994652E+02 -0.10110727485E+01  0.10700169793E+00  0.51197324279E+02  0.47000000000E+01 0.  1.
         13    1    6    6    0    0  0.14586093586E+02  0.18584867978E+02  0.53017396114E+02  0.58043050700E+02  0.00000000000E+00 0. -1.
        -14    1    6    6    0    0  0.22662652543E+02  0.13689997225E+03  0.83422901853E+02  0.16190916829E+03  0.00000000000E+00 0.  1.
</event>
<event>
12    1  0.8416569E-002  0.1827261E+03  0.7818608E-02  0.1165248E+00
         21   -1    0    0  503  502  0.00000000000E+00  0.00000000000E+00  0.42032525180E+03  0.42032525180E+03  0.00000000000E+00 0.  1.
         21   -1    0    0  501  503 -0.00000000000E+00 -0.00000000000E+00 -0.80960288504E+02  0.80960288504E+02  0.00000000000E+00 0.  1.
          6    2    1    2  501    0  0.34621975816E+02 -0.48930996996E+02  0.20513636520E+03  0.27455629642E+03  0.17235808045E+03 0.  0.
         24    2    3    3    0    0  0.54865723917E+02 -0.95856959117E+02  0.14730744243E+03  0.19723793141E+03  0.70742594805E+02 0.  0.
         -6    2    1    2    0  502 -0.34621975816E+02  0.48930996996E+02  0.13422859809E+03  0.22672924388E+03  0.17261491770E+03 0.  0.
        -24    2    5    5    0    0 -0.76980809643E+01  0.65736592599E+02  0.15662938537E+03  0.18759857269E+03  0.79245820429E+02 0.  0.
          5    1    3    3  501    0 -0.20243748101E+02  0.46925962121E+02  0.57828922772E+02  0.77318365006E+02  0.47000000000E+01 0. -1.
        -11    1    4    4    0    0  0.25365130848E+02 -0.22492783900E+02  0.98840690174E+02  0.10449304869E+03  0.00000000000E+00 0.  1.
         12    1    4    4    0    0  0.29500593069E+02 -0.73364175217E+02  0.48466752258E+02  0.92744882722E+02  0.00000000000E+00 0. -1.
         -5    1    5    5    0  502 -0.26923894852E+02 -0.16805595603E+02 -0.22400787281E+02  0.39130671197E+02  0.47000000000E+01 0.  1.
         13    1    6    6    0    0  0.26833686612E+02  0.62786191595E+02  0.11062917156E+03  0.13000371607E+03  0.00000000000E+00 0. -1.
        -14    1    6    6    0    0 -0.34531767576E+02  0.29504010041E+01  0.46000213812E+02  0.57594856618E+02  0.00000000000E+00 0.  1.
</event>
<event>
12    1  0.8416569E-002  0.1822264E+03  0.7818608E-02  0.1165897E+00
         21   -1    0    0  501  502  0.00000000000E+00  0.00000000000E+00  0.24867944282E+03  0.24867944282E+03  0.00000000000E+00 0. -1.
         21   -1    0    0  502  503 -0.00000000000E+00 -0.00000000000E+00 -0.15276001869E+03  0.15276001869E+03  0.00000000000E+00 0. -1.
         -6    2    1    2    0  503 -0.32717550994E+02 -0.50524205472E+02 -0.24441539266E+02  0.18385821738E+03  0.17199802840E+03 0.  0.
        -24    2    3    3    0    0 -0.31772779394E+02 -0.73461000553E+02 -0.67936582032E+02  0.13445277327E+03  0.84000838979E+02 0.  0.
          6    2    1    2  501    0  0.32717550994E+02  0.50524205472E+02  0.12036096340E+03  0.21758124413E+03  0.17097281307E+03 0.  0.
         24    2    5    5    0    0 -0.20854247856E+02  0.52780329763E+02  0.18415403344E+02  0.10229891703E+03  0.83098005277E+02 0.  0.
          5    1    5    5  501    0  0.53571798850E+02 -0.22561242916E+01  0.10194556005E+03  0.11528232711E+03  0.47000000000E+01 0. -1.
        -13    1    6    6    0    0 -0.46139728051E+02  0.14951146569E+02 -0.87794193890E+01  0.49289851827E+02  0.00000000000E+00 0.  1.
         14    1    6    6    0    0  0.25285480195E+02  0.37829183195E+02  0.27194822733E+02  0.53009065200E+02  0.00000000000E+00 0. -1.
         -5    1    3    3    0  503 -0.94477159940E+00  0.22936795082E+02  0.43495042766E+02  0.49405444105E+02  0.47000000000E+01 0.  1.
         11    1    4    4    0    0  0.24221815934E+02 -0.39181405872E+01 -0.45464848226E+01  0.24954332631E+02  0.00000000000E+00 0. -1.
        -12    1    4    4    0    0 -0.55994595329E+02 -0.69542859966E+02 -0.63390097209E+02  0.10949844064E+03  0.00000000000E+00 0.  1.
</event>
<event>
12    1  0.8416569E-002  0.2301403E+03  0.7818608E-02  0.1127144E+00
         21   -1    0    0  501  502  0.00000000000E+00  0.00000000000E+00  0.49063037304E+03  0.49063037304E+03  0.00000000000E+00 0. -1.
         21   -1    0    0  502  503 -0.00000000000E+00 -0.00000000000E+00 -0.12290907505E+03  0.12290907505E+03  0.00000000000E+00 0.  1.
         -6    2    1    2    0  503  0.57280774618E+02 -0.13706222685E+03  0.70125087837E+02  0.23733726591E+03  0.17130180582E+03 0.  0.
        -24    2    3    3    0    0 -0.13658171875E+02 -0.39245215677E+02 -0.14398125900E+02  0.89801624574E+02  0.78296188503E+02 0.  0.
          6    2    1    2  501    0 -0.57280774618E+02  0.13706222685E+03  0.29759621016E+03  0.37620218218E+03  0.17577666627E+03 0.  0.
         24    2    5    5    0    0 -0.82350260516E+02  0.39823517723E+02  0.11389984987E+03  0.16679757750E+03  0.80503279992E+02 0.  0.
          5    1    5    5  501    0  0.25069485899E+02  0.97238709125E+02  0.18369636029E+03  0.20940460467E+03  0.47000000000E+01 0. -1.
        -13    1    6    6    0    0 -0.91561158169E+01  0.13870469535E+02 -0.10851662204E+02  0.19849003868E+02  0.00000000000E+00 0.  1.
         14    1    6    6    0    0 -0.73194144699E+02  0.25953048189E+02  0.12475151207E+03  0.14694857363E+03  0.00000000000E+00 0. -1.
         -5    1    3    3    0  503  0.70938946493E+02 -0.97817011171E+02  0.84523213737E+02  0.14753564134E+03  0.47000000000E+01 0.  1.
         13    1    4    4    0    0 -0.44334675124E+02 -0.84644713106E+01 -0.88047414290E+01  0.45986238861E+02  0.00000000000E+00 0. -1.
        -14    1    4    4    0    0  0.30676503249E+02 -0.30780744367E+02 -0.55933844714E+01  0.43815385713E+02  0.00000000000E+00 0.  1.
</event>
<event>
12    1  0.8416569E-002  0.1985793E+03  0.7818608E-02  0.1151035E+00
         21   -1    0    0  503  502  0.00000000000E+00  0.00000000000E+00  0.24119804630E+03  0.24119804630E+03  0.00000000000E+00 0.  1.
         21   -1    0    0  501  503 -0.00000000000E+00 -0.00000000000E+00 -0.36189280526E+03  0.36189280526E+03  0.00000000000E+00 0.  1.
          6    2    1    2  501    0 -0.27340307877E+02 -0.95749343756E+02 -0.28378910003E+03  0.34612099539E+03  0.17131275753E+03 0.  0.
         24    2    3    3    0    0  0.36262661368E+02 -0.12822608757E+02 -0.16854062446E+03  0.19047240981E+03  0.79964972949E+02 0.  0.
         -6    2    1    2    0  502  0.27340307877E+02  0.95749343756E+02  0.16309434108E+03  0.25696985617E+03  0.17180894512E+03 0.  0.
        -24    2    5    5    0    0  0.33629172978E+02  0.12595030449E+03  0.92577421466E+02  0.17985712178E+03  0.82362642095E+02 0.  0.
          5    1    3    3  501    0 -0.63602969245E+02 -0.82926734999E+02 -0.11524847557E+03  0.15564858559E+03  0.47000000000E+01 0. -1.
        -11    1    4    4    0    0  0.31747778834E+02 -0.33781547776E+02 -0.43382972510E+02  0.63491706031E+02  0.00000000000E+00 0.  1.
         12    1    4    4    0    0  0.45148825343E+01  0.20958939018E+02 -0.12515765195E+03  0.12698070377E+03  0.00000000000E+00 0. -1.
         -5    1    5    5    0  502 -0.62888651009E+01 -0.30200960735E+02  0.70516919610E+02  0.77112734388E+02  0.47000000000E+01 0.  1.
         11    1    6    6    0    0 -0.18943483451E+02  0.35746109993E+01  0.34167568534E+01  0.19578243958E+02  0.00000000000E+00 0. -1.
        -12    1    6    6    0    0  0.52572656430E+02  0.12237569349E+03  0.89160664612E+02  0.16027887782E+03  0.00000000000E+00 0.  1.
</event>
<event>
12    1  0.8416569E-002  0.4974472E+03  0.7818608E-02  0.1014558E+00
         21   -1    0    0  501  502  0.00000000000E+00  0.00000000000E+00  0.14514970534E+04  0.14514970534E+04  0.00000000000E+00 0. -1.
         21   -1    0    0  502  503 -0.00000000000E+00 -0.00000000000E+00 -0.18806333359E+03  0.18806333359E+03  0.00000000000E+00 0.  1.
         -6    2    1    2    0  503 -0.24478941859E+03  0.39537995877E+03  0.37603529595E+03  0.62224547079E+03  0.17187120430E+03 0.  0.
        -24    2    3    3    0    0 -0.12577816907E+03  0.32193782208E+03  0.25220507147E+03  0.43539408747E+03  0.80600894726E+02 0.  0.
          6    2    1    2  501    0  0.24478941859E+03 -0.39537995877E+03  0.88739842384E+03  0.10173149162E+04  0.17665362941E+03 0.  0.
         24    2    5    5    0    0  0.26472258040E+03 -0.34497933937E+03  0.81121615404E+03  0.92370198113E+03  0.77877546168E+02 0.  0.
          5    1    5    5  501    0 -0.19933161814E+02 -0.50400619402E+02  0.76182269796E+02  0.93612935042E+02  0.47000000000E+01 0. -1.
        -13    1    6    6    0    0  0.11532921543E+03 -0.20050563405E+03  0.47728811323E+03  0.53038408747E+03  0.00000000000E+00 0.  1.
         14    1    6    6    0    0  0.14939336498E+03 -0.14447370533E+03  0.33392804081E+03  0.39331789366E+03  0.00000000000E+00 0. -1.
         -5    1    3    3    0  503 -0.11901124952E+03  0.73442136697E+02  0.12383022448E+03  0.18685138332E+03  0.47000000000E+01 0.  1.
         11    1    4    4    0    0 -0.13678421904E+03  0.28559361511E+03  0.21973957212E+03  0.38543367151E+03  0.00000000000E+00 0. -1.
        -12    1    4    4    0    0  0.11006049969E+02  0.36344206963E+02  0.32465499343E+02  0.49960415964E+02  0.00000000000E+00 0.  1.
</event>
<event>
12    1  0.8416569E-002  0.1908611E+03  0.7818608E-02  0.1158006E+00
         21   -1    0    0  501  502  0.00000000000E+00  0.00000000000E+00  0.67154228560E+03  0.67154228560E+03  0.00000000000E+00 0. -1.
         21   -1    0    0  502  503 -0.00000000000E+00 -0.00000000000E+00 -0.53896273198E+02  0.53896273198E+02  0.00000000000E+00 0.  1.
         -6    2    1    2    0  503  0.27578936552E+02 -0.73044348101E+02  0.29632152987E+03  0.35170418343E+03  0.17260738411E+03 0.  0.
        -24    2    3    3    0    0 -0.20508268233E+02 -0.86867767997E+02  0.12382193729E+03  0.17203319067E+03  0.79353313441E+02 0.  0.
          6    2    1    2  501    0 -0.27578936552E+02  0.73044348101E+02  0.32132448254E+03  0.37373437537E+03  0.17416051712E+03 0.  0.
         24    2    5    5    0    0 -0.40687586143E+02  0.84673355213E+02  0.12328149367E+03  0.17486208987E+03  0.80952869267E+02 0.  0.
          5    1    5    5  501    0  0.13108649591E+02 -0.11629007112E+02  0.19804298887E+03  0.19887228550E+03  0.47000000000E+01 0. -1.
        -11    1    6    6    0    0 -0.32271390591E+02 -0.52903857414E+01  0.23634206644E+02  0.40348563241E+02  0.00000000000E+00 0.  1.
         12    1    6    6    0    0 -0.84161955520E+01  0.89963740954E+02  0.99647287023E+02  0.13451352662E+03  0.00000000000E+00 0. -1.
         -5    1    3    3    0  503  0.48087204786E+02  0.13823419896E+02  0.17249959257E+03  0.17967099276E+03  0.47000000000E+01 0.  1.
         13    1    4    4    0    0  0.13840035983E+02 -0.87531623141E+01  0.68280959522E+02  0.70217190771E+02  0.00000000000E+00 0. -1.
        -14    1    4    4    0    0 -0.34348304216E+02 -0.78114605683E+02  0.55540977772E+02  0.10181599990E+03  0.00000000000E+00 0.  1.
</event>
<event>
12    1  0.8416569E-002  0.1896448E+03  0.7818608E-02  0.1161004E+00
         21   -1    0    0  501  502  0.00000000000E+00  0.00000000000E+00  0.11901485547E+04  0.11901485547E+04  0.00000000000E+00 0. -1.
         21   -1    0    0  502  503 -0.00000000000E+00 -0.00000000000E+00 -0.47519084277E+02  0.47519084277E+02  0.00000000000E+00 0.  1.
         -6    2    1    2    0  503 -0.60124989256E+02  0.22878446487E+02  0.17317600058E+03  0.24983912747E+03  0.16819995480E+03 0.  0.
        -24    2    3    3    0    0 -0.76146921354E+02  0.46044387954E+02  0.59859027266E+02  0.13297942701E+03  0.78625603770E+02 0.  0.
          6    2    1    2  501    0  0.60124989256E+02 -0.22878446487E+02  0.96945346989E+03  0.98782851155E+03  0.17840039322E+03 0.  0.
         24    2    5    5    0    0 -0.32382868757E+02  0.79307675186E+01  0.57711291494E+03  0.58352650498E+03  0.79575864151E+02 0.  0.
          5    1    5    5  501    0  0.92507858013E+02 -0.30809214006E+02  0.39234055495E+03  0.40430200657E+03  0.47000000000E+01 0. -1.
        -13    1    6    6    0    0  0.25981472900E+02 -0.42417455032E+01  0.20122831374E+03  0.20294300576E+03  0.00000000000E+00 0.  1.
         14    1    6    6    0    0 -0.58364341657E+02  0.12172513022E+02  0.37588460120E+03  0.38058349921E+03  0.00000000000E+00 0. -1.
         -5    1    3    3    0  503  0.16021932098E+02 -0.23165941466E+02  0.11331697331E+03  0.11685970046E+03  0.47000000000E+01 0.  1.
         13    1    4    4    0    0  0.10481877726E+02 -0.21123538474E+01  0.26213189874E+02  0.28310124034E+02  0.00000000000E+00 0. -1.
        -14    1    4    4    0    0 -0.86628799080E+02  0.48156741801E+02  0.33645837391E+02  0.10466930297E+03  0.00000000000E+00 0.  1.
</event>
<event>
12    1  0.8416569E-002  0.2620470E+03  0.7818608E-02  0.1105939E+00
         21   -1    0    0  503  502  0.00000000000E+00  0.00000000000E+00  0.47116100565E+02  0.47116100565E+02  0.00000000000E+00 0. -1.
         21   -1    0    0  501  503 -0.00000000000E+00 -0.00000000000E+00 -0.16854899259E+04  0.16854899259E+04  0.00000000000E+00 0. -1.
          6    2    1    2  501    0 -0.22773480726E+02 -0.19766190462E+03 -0.50019658169E+03  0.56468156497E+03  0.17052797286E+03 0.  0.
         24    2    3    3    0    0 -0.76536243702E+02 -0.10634765489E+03 -0.32123546680E+03  0.35664816014E+03  0.82692591561E+02 0.  0.
         -6    2    1    2    0  502  0.22773480726E+02  0.19766190462E+03 -0.11381772436E+04  0.11679244614E+04  0.17032689108E+03 0.  0.
        -24    2    5    5    0    0 -0.37748093302E+02  0.13294174037E+03 -0.89404790387E+03  0.90816922069E+03  0.79694755831E+02 0.  0.
          5    1    3    3  501    0  0.53762762976E+02 -0.91314249728E+02 -0.17896111489E+03  0.20803340484E+03  0.47000000000E+01 0. -1.
        -13    1    4    4    0    0 -0.80374443398E+02 -0.11615090966E+03 -0.27412567576E+03  0.30837634649E+03  0.00000000000E+00 0.  1.
         14    1    4    4    0    0  0.38381996964E+01  0.98032547628E+01 -0.47109791039E+02  0.48271813645E+02  0.00000000000E+00 0. -1.
         -5    1    5    5    0  502  0.60521574028E+02  0.64720164249E+02 -0.24412933974E+03  0.25975524076E+03  0.47000000000E+01 0.  1.
         11    1    6    6    0    0  0.19363516701E+02  0.99921178538E+01 -0.18490587845E+03  0.18618531651E+03  0.00000000000E+00 0. -1.
        -12    1    6    6    0    0 -0.57111610003E+02  0.12294962252E+03 -0.70914202542E+03  0.72198390418E+03  0.00000000000E+00 0.  1.
</event>
<event>
12    1  0.8416569E-002  0.1851438E+03  0.7818608E-02  0.1162959E+00
         21   -1    0    0  503  502  0.00000000000E+00  0.00000000000E+00  0.84541773392E+03  0.84541773392E+03  0.00000000000E+00 0. -1.
         21   -1    0    0  501  503 -0.00000000000E+00 -0.00000000000E+00 -0.14577051115E+03  0.14577051115E+03  0.00000000000E+00 0. -1.
          6    2    1    2  501    0 -0.58063038574E+02  0.76116456093E+01 -0.71373188104E+02  0.19825023177E+03  0.17544163936E+03 0.  0.
         24    2    3    3    0    0 -0.76102949502E+02 -0.26143465091E+01 -0.10953908887E+03  0.15456115668E+03  0.78050275041E+02 0.  0.
         -6    2    1    2    0  502  0.58063038574E+02 -0.76116456093E+01  0.77102041087E+03  0.79293801330E+03  0.17563873537E+03 0.  0.
        -24    2    5    5    0    0  0.53694087760E+02  0.54021381857E+02  0.61937662723E+03  0.62912212603E+03  0.79786454632E+02 0.  0.
          5    1    3    3  501    0  0.18039910928E+02  0.10225992118E+02  0.38165900766E+02  0.43689075092E+02  0.47000000000E+01 0. -1.
        -13    1    4    4    0    0  0.11898050175E+02  0.11293253091E+02 -0.48770574370E+01  0.17113937378E+02  0.00000000000E+00 0.  1.
         14    1    4    4    0    0 -0.88000999677E+02 -0.13907599600E+02 -0.10466203143E+03  0.13744721930E+03  0.00000000000E+00 0. -1.
         -5    1    5    5    0  502  0.43689508141E+01 -0.61633027466E+02  0.15164378364E+03  0.16381588727E+03  0.47000000000E+01 0.  1.
         11    1    6    6    0    0 -0.64244444531E+00  0.53477379328E+02  0.37372156678E+03  0.37752887613E+03  0.00000000000E+00 0. -1.
        -12    1    6    6    0    0  0.54336532205E+02  0.54400252948E+00  0.24565506045E+03  0.25159324990E+03  0.00000000000E+00 0.  1.
</event>
<event>
12    1  0.8416569E-002  0.2575865E+03  0.7818608E-02  0.1108695E+00
         21   -1    0    0  503  502  0.00000000000E+00  0.00000000000E+00  0.67236829954E+03  0.67236829954E+03  0.00000000000E+00 0.  1.
         21   -1    0    0  501  503 -0.00000000000E+00 -0.00000000000E+00 -0.98519964311E+02  0.98519964311E+02  0.00000000000E+00 0.  1.
          6    2    1    2  501    0  0.18618992411E+03  0.42954572947E+02  0.29763422368E+03  0.39362026577E+03  0.17273968663E+03 0.  0.
         24    2    3    3    0    0  0.55443366354E+02  0.56675381867E+02  0.75228462565E+02  0.13522263508E+03  0.79622695739E+02 0.  0.
         -6    2    1    2    0  502 -0.18618992411E+03 -0.42954572947E+02  0.27621411154E+03  0.37726799808E+03  0.17182876297E+03 0.  0.
        -24    2    5    5    0    0 -0.57317108187E+02 -0.39136663743E+02  0.20472741618E+03  0.22977150074E+03  0.77876172708E+02 0.  0.
          5    1    3    3  501    0  0.13074655776E+03 -0.13720808921E+02  0.22240576112E+03  0.25839763068E+03  0.47000000000E+01 0. -1.
        -11    1    4    4    0    0  0.44770396169E+00 -0.12428304816E+02  0.36914712345E+02  0.38953294944E+02  0.00000000000E+00 0.  1.
         12    1    4    4    0    0  0.54995662392E+02  0.69103686684E+02  0.38313750220E+02  0.96269340141E+02  0.00000000000E+00 0. -1.
         -5    1    5    5    0  502 -0.12887281593E+03 -0.38179092038E+01  0.71486695364E+02  0.14749649735E+03  0.47000000000E+01 0.  1.
         13    1    6    6    0    0  0.17700766867E+02 -0.18707383082E+02  0.39342933316E+02  0.47022863921E+02  0.00000000000E+00 0. -1.
        -14    1    6    6    0    0 -0.75017875055E+02 -0.20429280660E+02  0.16538448287E+03  0.18274863682E+03  0.00000000000E+00 0.  1.
</event>
<event>
12    1  0.8416569E-002  0.2597774E+03  0.7818608E-02  0.1107562E+00
         21   -1    0    0  503  502  0.00000000000E+00  0.00000000000E+00  0.12971621282E+03  0.12971621282E+03  0.00000000000E+00 0.  1.
         21   -1    0    0  501  503 -0.00000000000E+00 -0.00000000000E+00 -0.84405248187E+03  0.84405248187E+03  0.00000000000E+00 0.  1.
          6    2    1    2  501    0  0.51309496688E+02  0.18766788212E+03 -0.65968996361E+03  0.70830587267E+03  0.16927629111E+03 0.  0.
         24    2    3    3    0    0  0.70675463965E+01  0.90102662780E+02 -0.17498740044E+03  0.21188368648E+03  0.78138762670E+02 0.  0.
         -6    2    1    2    0  502 -0.51309496688E+02 -0.18766788212E+03 -0.54646305442E+02  0.26546282202E+03  0.17214061911E+03 0.  0.
        -24    2    5    5    0    0 -0.40710742527E+02 -0.16696363903E+03  0.16514791067E+02  0.19044955035E+03  0.80399450159E+02 0.  0.
          5    1    3    3  501    0  0.44241950292E+02  0.97565219336E+02 -0.48470256318E+03  0.49642218619E+03  0.47000000000E+01 0. -1.
        -13    1    4    4    0    0  0.55744253292E+01  0.96641950334E+02 -0.17940289245E+03  0.20385322809E+03  0.00000000000E+00 0.  1.
         14    1    4    4    0    0  0.14931210673E+01 -0.65392875541E+01  0.44154920135E+01  0.80304583903E+01  0.00000000000E+00 0. -1.
         -5    1    5    5    0  502 -0.10598754161E+02 -0.20704243082E+02 -0.71161096509E+02  0.75013271677E+02  0.47000000000E+01 0.  1.
         11    1    6    6    0    0 -0.80267189778E+01  0.53749364847E+01  0.11430013672E+02  0.14965405852E+02  0.00000000000E+00 0. -1.
        -12    1    6    6    0    0 -0.32684023550E+02 -0.17233857552E+03  0.50847773952E+01  0.17548414449E+03  0.00000000000E+00 0.  1.
</event>
<event>
12    1  0.8416569E-002  0.1826423E+03  0.7818608E-02  0.1165477E+00
         21   -1    0    0  503  502  0.00000000000E+00  0.00000000000E+00  0.19495340998E+03  0.19495340998E+03  0.00000000000E+00 0. -1.
         21   -1    0    0  501  503 -0.00000000000E+00 -0.00000000000E+00 -0.17127460927E+03  0.17127460927E+03  0.00000000000E+00 0. -1.
          6    2    1    2  501    0 -0.41286706709E+02  0.41573606854E+02  0.25655090851E+02  0.18357501493E+03  0.17207162893E+03 0.  0.
         24    2    3    3    0    0 -0.37966678366E+02  0.20728250808E+02  0.83097371349E+02  0.12219702991E+03  0.78458982567E+02 0.  0.
         -6    2    1    2    0  502  0.41286706709E+02 -0.41573606854E+02 -0.19762901482E+01  0.18265300432E+03  0.17298918268E+03 0.  0.
        -24    2    5    5    0    0 -0.33045769552E+02 -0.25386426559E+02  0.36383148075E+02  0.97324941327E+02  0.80074447870E+02 0.  0.
          5    1    3    3  501    0 -0.33200283429E+01  0.20845356046E+02 -0.57442280498E+02  0.61377985025E+02  0.47000000000E+01 0. -1.
        -13    1    4    4    0    0 -0.19416454116E+02 -0.17773465137E+02  0.73945036799E+02  0.78490529496E+02  0.00000000000E+00 0.  1.
         14    1    4    4    0    0 -0.18550224250E+02  0.38501715946E+02  0.91523345503E+01  0.43706500411E+02  0.00000000000E+00 0. -1.
         -5    1    5    5    0  502  0.74332476261E+02 -0.16187180295E+02 -0.38359438223E+02  0.85328062991E+02  0.47000000000E+01 0.  1.
         11    1    6    6    0    0  0.18466531046E+02  0.13513585258E+02  0.20792674682E+02  0.30918684898E+02  0.00000000000E+00 0. -1.
        -12    1    6    6    0    0 -0.51512300598E+02 -0.38900011817E+02  0.15590473393E+02  0.66406256429E+02  0.00000000000E+00 0.  1.
</event>
<event>
12    1  0.8416569E-002  0.1770724E+03  0.7818608E-02  0.1170720E+00
         21   -1    0    0  503  502  0.00000000000E+00  0.00000000000E+00  0.25360976322E+03  0.25360976322E+03  0.00000000000E+00 0. -1.
         21   -1    0    0  501  503 -0.00000000000E+00 -0.00000000000E+00 -0.27189559619E+03  0.27189559619E+03  0.00000000000E+00 0. -1.
          6    2    1    2  501    0  0.18462818080E+02 -0.34758268159E+02 -0.20326553948E+03  0.26943478757E+03  0.17242161221E+03 0.  0.
         24    2    3    3    0    0  0.58245478725E+02 -0.58855807459E+02 -0.87112412982E+02  0.14422699914E+03  0.79726488211E+02 0.  0.
         -6    2    1    2    0  502 -0.18462818080E+02  0.34758268159E+02  0.18497970651E+03  0.25607057184E+03  0.17264308005E+03 0.  0.
        -24    2    5    5    0    0 -0.47017847461E+02  0.60035882160E+02  0.60004001859E+02  0.12532133007E+03  0.79309333656E+02 0.  0.
          5    1    3    3  501    0 -0.39782660645E+02  0.24097539301E+02 -0.11615312649E+03  0.12520778843E+03  0.47000000000E+01 0. -1.
        -11    1    4    4    0    0  0.44997366742E+02 -0.13821513676E+01 -0.82818940485E+01  0.45774044230E+02  0.00000000000E+00 0.  1.
         12    1    4    4    0    0  0.13248111983E+02 -0.57473656092E+02 -0.78830518933E+02  0.98452954912E+02  0.00000000000E+00 0. -1.
         -5    1    5    5    0  502  0.28555029381E+02 -0.25277614001E+02  0.12497570465E+03  0.13074924177E+03  0.47000000000E+01 0.  1.
         13    1    6    6    0    0 -0.19431684863E+02  0.19625056100E+02  0.70115518825E+02  0.75358603913E+02  0.00000000000E+00 0. -1.
        -14    1    6    6    0    0 -0.27586162598E+02  0.40410826060E+02 -0.10111516966E+02  0.49962726158E+02  0.00000000000E+00 0.  1.
</event>
<event>
12    1  0.8416569E-002  0.2620763E+03  0.7818608E-02  0.1105957E+00
         21   -1    0    0  501  502  0.00000000000E+00  0.00000000000E+00  0.42136322113E+03  0.42136322113E+03  0.00000000000E+00 0.  1.
         21   -1    0    0  502  503 -0.00000000000E+00 -0.00000000000E+00 -0.22653900633E+03  0.22653900633E+03  0.00000000000E+00 0.  1.
         -6    2    1    2    0  503  0.50204392607E+02  0.19113272345E+03  0.26923225613E+03  0.37546777094E+03  0.17157459094E+03 0.  0.
        -24    2    3    3    0    0 -0.33646848212E+02  0.13741499936E+03  0.16389783452E+03  0.23043655069E+03  0.78889234317E+02 0.  0.
          6    2    1    2  501    0 -0.50204392607E+02 -0.19113272345E+03 -0.74408041338E+02  0.27243445653E+03  0.17213883198E+03 0.  0.
         24    2    5    5    0    0 -0.81654048864E+02 -0.19508470235E+03 -0.82710670602E+02  0.23933275463E+03  0.75588938468E+02 0.  0.
          5    1    5    5  501    0  0.31449656257E+02  0.39519789024E+01  0.83026292636E+01  0.33101701899E+02  0.47000000000E+01 0. -1.
        -11    1    6    6    0    0 -0.90461199805E+01 -0.91722916898E+02 -0.78524493456E+01  0.92501820154E+02  0.00000000000E+00 0.  1.
         12    1    6    6    0    0 -0.72607928883E+02 -0.10336178546E+03 -0.74858221257E+02  0.14683093448E+03  0.00000000000E+00 0. -1.
         -5    1    3    3    0  503  0.83851240819E+02  0.53717724094E+02  0.10533442162E+03  0.14503122025E+03  0.47000000000E+01 0.  1.
         11    1    4    4    0    0  0.11283253749E+02  0.58062022677E+02  0.24855309759E+02  0.64158372140E+02  0.00000000000E+00 0. -1.
        -12    1    4    4    0    0 -0.44930101961E+02  0.79352976680E+02  0.13904252476E+03  0.16627817855E+03  0.00000000000E+00 0.  1.
</event>
<event>
12    1  0.8416569E-002  0.1806506E+03  0.7818608E-02  0.1167219E+00
         21   -1    0    0  501  502  0.00000000000E+00  0.00000000000E+00  0.41168721444E+03  0.41168721444E+03  0.00000000000E+00 0.  1.
         21   -1    0    0  502  503 -0.00000000000E+00 -0.00000000000E+00 -0.11453063022E+03  0.11453063022E+03  0.00000000000E+00 0.  1.
         -6    2    1    2    0  503 -0.44451616223E+02  0.32607609670E+02  0.29478312656E+03  0.34573362170E+03  0.17203326155E+03 0.  0.
        -24    2    3    3    0    0 -0.46398210318E+02  0.43331550254E+02  0.31002377490E+03  0.32641628514E+03  0.80015205011E+02 0.  0.
          6    2    1    2  501    0  0.44451616223E+02 -0.32607609670E+02  0.23734576613E+01  0.18048422296E+03  0.17184213407E+03 0.  0.
         24    2    5    5    0    0  0.86333485508E+02  0.41684356806E+01  0.24222197467E+02  0.12043402797E+03  0.80291927788E+02 0.  0.
          5    1    5    5  501    0 -0.41881869285E+02 -0.36776045351E+02 -0.21848739806E+02  0.60050194984E+02  0.47000000000E+01 0. -1.
        -13    1    6    6    0    0 -0.38964828643E+01  0.17738930542E+02  0.22837426777E+02  0.29178764492E+02  0.00000000000E+00 0.  1.
         14    1    6    6    0    0  0.90229968372E+02 -0.13570494862E+02  0.13847706903E+01  0.91255263482E+02  0.00000000000E+00 0. -1.
         -5    1    3    3    0  503  0.19465940958E+01 -0.10723940584E+02 -0.15240648340E+02  0.19317336567E+02  0.47000000000E+01 0.  1.
         13    1    4    4    0    0  0.31974663528E+01  0.27566891578E+02  0.22518086508E+03  0.22688450652E+03  0.00000000000E+00 0. -1.
        -14    1    4    4    0    0 -0.49595676671E+02  0.15764658675E+02  0.84842909817E+02  0.99531778613E+02  0.00000000000E+00 0.  1.
</event>
<event>
12    1  0.8416569E-002  0.1933796E+03  0.7818608E-02  0.1156722E+00
         21   -1    0    0  501  502  0.00000000000E+00  0.00000000000E+00  0.30712130002E+03  0.30712130002E+03  0.00000000000E+00 0.  1.
         21   -1    0    0  502  503 -0.00000000000E+00 -0.00000000000E+00 -0.14125543416E+03  0.14125543416E+03  0.00000000000E+00 0.  1.
         -6    2    1    2    0  503 -0.58875504935E+02  0.66309243825E+02 -0.65822737399E+01  0.19349161994E+03  0.17185005022E+03 0.  0.
        -24    2    3    3    0    0  0.10201706219E+02  0.75984891100E+02 -0.36485410626E+02  0.11745500477E+03  0.81158576082E+02 0.  0.
          6    2    1    2  501    0  0.58875504935E+02 -0.66309243825E+02  0.17244813961E+03  0.25488511424E+03  0.16542315348E+03 0.  0.
         24    2    5    5    0    0  0.56498390075E+02  0.65423057130E+01  0.38944546059E+02  0.10270660578E+03  0.76138685033E+02 0.  0.
          5    1    5    5  501    0  0.23771148598E+01 -0.72851549538E+02  0.13350359355E+03  0.15217850845E+03  0.47000000000E+01 0. -1.
        -13    1    6    6    0    0  0.67490749680E+02 -0.15364436499E+02  0.36002229153E+02  0.78020687675E+02  0.00000000000E+00 0.  1.
         14    1    6    6    0    0 -0.10992359605E+02  0.21906742212E+02  0.29423169053E+01  0.24685918107E+02  0.00000000000E+00 0. -1.
         -5    1    3    3    0  503 -0.69077211154E+02 -0.96756472747E+01  0.29903136886E+02  0.76036615171E+02  0.47000000000E+01 0.  1.
         13    1    4    4    0    0  0.35334368547E+02  0.53847677234E+02  0.44561633677E+01  0.64559641698E+02  0.00000000000E+00 0. -1.
        -14    1    4    4    0    0 -0.25132662328E+02  0.22137213866E+02 -0.40941573993E+02  0.52895363072E+02  0.00000000000E+00 0.  1.
</event>
<event>
12    1  0.8416569E-002  0.1906662E+03  0.7818608E-02  0.1158682E+00
         21   -1    0    0  503  502  0.00000000000E+00  0.00000000000E+00  0.15365056373E+04  0.15365056373E+04  0.00000000000E+00 0.  1.
         21   -1    0    0  501  503 -0.00000000000E+00 -0.00000000000E+00 -0.45011840785E+02  0.45011840785E+02  0.00000000000E+00 0. -1.
          6    2    1    2  501    0  0.62999320855E+02  0.53707084361E+02  0.19914873613E+03  0.27570601557E+03  0.17175628834E+03 0.  0.
         24    2    3    3    0    0  0.22138691898E+02  0.36169866018E+02  0.21955329590E+02  0.92958270456E+02  0.79754765765E+02 0.  0.
         -6    2    1    2    0  502 -0.62999320855E+02 -0.53707084361E+02  0.12923450604E+04  0.13058114625E+04  0.16773328582E+03 0.  0.
        -24    2    5    5    0    0 -0.81464970167E+02 -0.75327711057E+02  0.72789146633E+03  0.74062266083E+03  0.79907030701E+02 0.  0.
          5    1    3    3  501    0  0.40860628958E+02  0.17537218343E+02  0.17719340654E+03  0.18274774512E+03  0.47000000000E+01 0. -1.
        -13    1    4    4    0    0 -0.22047939326E+02 -0.72825268109E+01  0.20491742850E+02  0.30968667235E+02  0.00000000000E+00 0.  1.
         14    1    4    4    0    0  0.44186631224E+02  0.43452392829E+02  0.14635867396E+01  0.61989603221E+02  0.00000000000E+00 0. -1.
         -5    1    5    5    0  502  0.18465649311E+02  0.21620626697E+02  0.56445359406E+03  0.56518880168E+03  0.47000000000E+01 0.  1.
         11    1    6    6    0    0 -0.15223003722E+02 -0.54507435993E+02  0.18944668952E+03  0.19771911539E+03  0.00000000000E+00 0. -1.
        -12    1    6    6    0    0 -0.66241966445E+02 -0.20820275064E+02  0.53844477681E+03  0.54290354543E+03  0.00000000000E+00 0.  1.
</event>
<event>
12    1  0.8416569E-002  0.2186274E+03  0.7818608E-02  0.1136902E+00
         21   -1    0    0  503  502  0.00000000000E+00  0.00000000000E+00  0.67006754232E+02  0.67006754232E+02  0.00000000000E+00 0. -1.
         21   -1    0    0  501  503 -0.00000000000E+00 -0.00000000000E+00 -0.10888536354E+04  0.10888536354E+04  0.00000000000E+00 0. -1.
          6    2    1    2  501    0  0.97265370223E+02  0.81481371182E+02 -0.85726428544E+03  0.88220846384E+03  0.16519670843E+03 0.  0.
         24    2    3    3    0    0  0.35331114652E+02  0.10717165736E+03 -0.51679308134E+03  0.53516585314E+03  0.81199443610E+02 0.  0.
         -6    2    1    2    0  502 -0.97265370223E+02 -0.81481371182E+02 -0.16458259570E+03  0.27365192577E+03  0.17803982581E+03 0.  0.
        -24    2    5    5    0    0 -0.11595664238E+03 -0.90130609879E+02 -0.78382160871E+02  0.18490071198E+03  0.80467635716E+02 0.  0.
          5    1    3    3  501    0  0.61934255571E+02 -0.25690286176E+02 -0.34047120410E+03  0.34704261070E+03  0.47000000000E+01 0. -1.
        -11    1    4    4    0    0 -0.28038340492E+01  0.13844976131E+02 -0.75070468894E+01  0.15996893525E+02  0.00000000000E+00 0.  1.
         12    1    4    4    0    0  0.38134948701E+02  0.93326681227E+02 -0.50928603445E+03  0.51916895961E+03  0.00000000000E+00 0. -1.
         -5    1    5    5    0  502  0.18691272156E+02  0.86492386967E+01 -0.86200434830E+02  0.88751213793E+02  0.47000000000E+01 0.  1.
         11    1    6    6    0    0 -0.42170160630E+02 -0.36513365361E+02 -0.75206786487E+02  0.93635511592E+02  0.00000000000E+00 0. -1.
        -12    1    6    6    0    0 -0.73786481750E+02 -0.53617244518E+02 -0.31753743844E+01  0.91265200385E+02  0.00000000000E+00 0.  1.
</event>
<event>
12    1  0.8416569E-002  0.1825052E+03  0.7818608E-02  0.1165874E+00
         21   -1    0    0  501  502  0.00000000000E+00  0.00000000000E+00  0.65262229931E+02  0.65262229931E+02  0.00000000000E+00 0.  1.
         21   -1    0    0  502  503 -0.00000000000E+00 -0.00000000000E+00 -0.88157350363E+03  0.88157350363E+03  0.00000000000E+00 0.  1.
         -6    2    1    2    0  503  0.52048412816E+02 -0.22587233860E+02 -0.97401965190E+02  0.20512235754E+03  0.17137333028E+03 0.  0.
        -24    2    3    3    0    0 -0.26888819707E+02  0.20448452005E+02 -0.22771218831E+02  0.88182222265E+02  0.78207596191E+02 0.  0.
          6    2    1    2  501    0 -0.52048412816E+02  0.22587233860E+02 -0.71890930850E+03  0.74171337602E+03  0.17346157470E+03 0.  0.
         24    2    5    5    0    0  0.13688739063E+02 -0.85121744198E+01 -0.56969946161E+03  0.57565852140E+03  0.81027267053E+02 0.  0.
          5    1    5    5  501    0 -0.65737151879E+02  0.31099408280E+02 -0.14920984689E+03  0.16605485462E+03  0.47000000000E+01 0. -1.
        -13    1    6    6    0    0  0.43459268690E+02  0.13334238465E+02 -0.33553295295E+03  0.33859839407E+03  0.00000000000E+00 0.  1.
         14    1    6    6    0    0 -0.29770529628E+02 -0.21846412885E+02 -0.23416650866E+03  0.23706012733E+03  0.00000000000E+00 0. -1.
         -5    1    3    3    0  503  0.78937232524E+02 -0.43035685865E+02 -0.74630746359E+02  0.11694013528E+03  0.47000000000E+01 0.  1.
         11    1    4    4    0    0 -0.80095011537E+01  0.49642202307E+02 -0.10964625392E+02  0.51465749471E+02  0.00000000000E+00 0. -1.
        -12    1    4    4    0    0 -0.18879318554E+02 -0.29193750303E+02 -0.11806593439E+02  0.36716472794E+02  0.00000000000E+00 0.  1.
</event>
<event>
12    1  0.8416569E-002  0.1889179E+03  0.7818608E-02  0.1159656E+00
         21   -1    0    0  503  502  0.00000000000E+00  0.00000000000E+00  0.18002160759E+03  0.18002160759E+03  0.00000000000E+00 0. -1.
         21   -1    0    0  501  503 -0.00000000000E+00 -0.00000000000E+00 -0.20111051549E+03  0.20111051549E+03  0.00000000000E+00 0. -1.
          6    2    1    2  501    0  0.68640122696E+01  0.78372613615E+02  0.15831589634E+02  0.18864031054E+03  0.17071949596E+03 0.  0.
         24    2    3    3    0    0  0.13890529754E+02  0.92088212983E+02  0.61081200000E+02  0.14060795840E+03  0.85828312255E+02 0.  0.
         -6    2    1    2    0  502 -0.68640122696E+01 -0.78372613615E+02 -0.36920497528E+02  0.19249181254E+03  0.17175736819E+03 0.  0.
        -24    2    5    5    0    0  0.46280821124E+02 -0.78959164167E+02  0.98679559453E+01  0.12152726691E+03  0.79341263152E+02 0.  0.
          5    1    3    3  501    0 -0.70265174847E+01 -0.13715599369E+02 -0.45249610366E+02  0.48032352142E+02  0.47000000000E+01 0. -1.
        -11    1    4    4    0    0 -0.50433182296E+01  0.19228902280E+02  0.62221558196E+02  0.65320043218E+02  0.00000000000E+00 0.  1.
         12    1    4    4    0    0  0.18933847984E+02  0.72859310703E+02 -0.11403581955E+01  0.75287915182E+02  0.00000000000E+00 0. -1.
         -5    1    5    5    0  502 -0.53144833394E+02  0.58655055242E+00 -0.46788453473E+02  0.70964545630E+02  0.47000000000E+01 0.  1.
         13    1    6    6    0    0  0.50144192559E+01 -0.54315124654E+02 -0.27083715724E+02  0.60899957505E+02  0.00000000000E+00 0. -1.
        -14    1    6    6    0    0  0.41266401868E+02 -0.24644039513E+02  0.36951671670E+02  0.60627309406E+02  0.00000000000E+00 0.  1.
</event>
<event>
12    1  0.8416569E-002  0.1981153E+03  0.7818608E-02  0.1151616E+00
         21   -1    0    0  503  502  0.00000000000E+00  0.00000000000E+00  0.19131969677E+04  0.19131969677E+04  0.00000000000E+00 0. -1.
         21   -1    0    0  501  503 -0.00000000000E+00 -0.00000000000E+00 -0.46958401406E+02  0.46958401406E+02  0.00000000000E+00 0. -1.
          6    2    1    2  501    0 -0.49934080915E+02  0.82459521201E+02  0.19447449280E+03  0.27669322954E+03  0.17159787251E+03 0.  0.
         24    2    3    3    0    0 -0.12110620262E+02  0.11619416743E+03  0.13282232564E+03  0.19674499474E+03  0.86134029853E+02 0.  0.
         -6    2    1    2    0  502  0.49934080915E+02 -0.82459521201E+02  0.16717640735E+04  0.16834621396E+04  0.17307996088E+03 0.  0.
        -24    2    5    5    0    0  0.61941533004E+02 -0.37849412082E+02  0.15362722234E+04  0.15402337479E+04  0.83176452462E+02 0.  0.
          5    1    3    3  501    0 -0.37823460653E+02 -0.33734646228E+02  0.61652167158E+02  0.79948234797E+02  0.47000000000E+01 0. -1.
        -13    1    4    4    0    0 -0.45730398236E+02  0.83010596015E+02  0.10689785825E+03  0.14286070304E+03  0.00000000000E+00 0.  1.
         14    1    4    4    0    0  0.33619777974E+02  0.33183571415E+02  0.25924467389E+02  0.53884291702E+02  0.00000000000E+00 0. -1.
         -5    1    5    5    0  502 -0.12007452089E+02 -0.44610109120E+02  0.13549185016E+03  0.14322839175E+03  0.47000000000E+01 0.  1.
         11    1    6    6    0    0  0.67581357618E+02 -0.54747296429E+01  0.68989983940E+03  0.69322362984E+03  0.00000000000E+00 0. -1.
        -12    1    6    6    0    0 -0.56398246135E+01 -0.32374682439E+02  0.84637238398E+03  0.84701011803E+03  0.00000000000E+00 0.  1.
</event>
<event>
12    1  0.8416569E-002  0.1763763E+03  0.7818608E-02  0.1171770E+00
         21   -1    0    0  501  502  0.00000000000E+00  0.00000000000E+00  0.34649404427E+02  0.34649404427E+02  0.00000000000E+00 0. -1.
         21   -1    0    0  502  503 -0.00000000000E+00 -0.00000000000E+00 -0.89022388658E+03  0.89022388658E+03  0.00000000000E+00 0. -1.
         -6    2    1    2    0  503  0.29638118769E+02 -0.47410130842E+01 -0.44376439771E+03  0.47753055230E+03  0.17380360301E+03 0.  0.
        -24    2    3    3    0    0 -0.20988205280E+02 -0.37739536143E+02 -0.12923088687E+03  0.15720985886E+03  0.78419004400E+02 0.  0.
          6    2    1    2  501    0 -0.29638118769E+02  0.47410130842E+01 -0.41181008444E+03  0.44734273870E+03  0.17212520132E+03 0.  0.
         24    2    5    5    0    0 -0.49394254454E+02 -0.47779220892E+02 -0.34192127474E+03  0.35759188580E+03  0.78988305150E+02 0.  0.
          5    1    5    5  501    0  0.19756135685E+02  0.52520233976E+02 -0.69888809703E+02  0.89750852897E+02  0.47000000000E+01 0. -1.
        -11    1    6    6    0    0  0.19957043763E+02 -0.16340113287E+02 -0.55148372132E+02  0.60882065067E+02  0.00000000000E+00 0.  1.
         12    1    6    6    0    0 -0.69351298217E+02 -0.31439107605E+02 -0.28677290260E+03  0.29670982073E+03  0.00000000000E+00 0. -1.
         -5    1    3    3    0  503  0.50626324049E+02  0.32998523059E+02 -0.31453351084E+03  0.32032069345E+03  0.47000000000E+01 0.  1.
         13    1    4    4    0    0  0.20105971331E+02 -0.17312145009E+02 -0.98423223527E+02  0.10193670280E+03  0.00000000000E+00 0. -1.
        -14    1    4    4    0    0 -0.41094176611E+02 -0.20427391134E+02 -0.30807663344E+02  0.55273156058E+02  0.00000000000E+00 0.  1.
</event>
<event>
12    1  0.8416569E-002  0.1763757E+03  0.7818608E-02  0.1171498E+00
         21   -1    0    0  503  502  0.00000000000E+00  0.00000000000E+00  0.68560342092E+03  0.68560342092E+03  0.00000000000E+00 0. -1.
         21   -1    0    0  501  503 -0.00000000000E+00 -0.00000000000E+00 -0.87024930452E+02  0.87024930452E+02  0.00000000000E+00 0. -1.
          6    2    1    2  501    0  0.83969234679E+01 -0.42302196754E+02  0.31316161806E+02  0.17857875447E+03  0.17043968254E+03 0.  0.
         24    2    3    3    0    0  0.12459185780E+02  0.43339852998E+02  0.19431583513E+02  0.91893139389E+02  0.77673602085E+02 0.  0.
         -6    2    1    2    0  502 -0.83969234679E+01  0.42302196754E+02  0.56726232867E+03  0.59404959691E+03  0.17102160649E+03 0.  0.
        -24    2    5    5    0    0  0.40070224443E+02  0.18399532400E+02  0.49729732407E+03  0.50551941190E+03  0.79379352454E+02 0.  0.
          5    1    3    3  501    0 -0.40622623124E+01 -0.85642049752E+02  0.11884578293E+02  0.86685615081E+02  0.47000000000E+01 0. -1.
        -13    1    4    4    0    0 -0.87345614669E+01 -0.17759360918E+02  0.18685391044E+02  0.27218216376E+02  0.00000000000E+00 0.  1.
         14    1    4    4    0    0  0.21193747247E+02  0.61099213916E+02  0.74619246894E+00  0.64674923013E+02  0.00000000000E+00 0. -1.
         -5    1    5    5    0  502 -0.48467147911E+02  0.23902664353E+02  0.69965004592E+02  0.88530185007E+02  0.47000000000E+01 0.  1.
         13    1    6    6    0    0 -0.22601308176E+02 -0.65892327499E+00  0.18846161474E+03  0.18981315429E+03  0.00000000000E+00 0. -1.
        -14    1    6    6    0    0  0.62671532619E+02  0.19058455675E+02  0.30883570934E+03  0.31570625761E+03  0.00000000000E+00 0.  1.
</event>
<event>
12    1  0.8416569E-002  0.2120969E+03  0.7818608E-02  0.1139935E+00
         21   -1    0    0  501  502  0.00000000000E+00  0.00000000000E+00  0.11526969974E+04  0.11526969974E+04  0.00000000000E+00 0.  1.
         21   -1    0    0  502  503 -0.00000000000E+00 -0.00000000000E+00 -0.48565521730E+02  0.48565521730E+02  0.00000000000E+00 0.  1.
         -6    2    1    2    0  503  0.12432635118E+03 -0.18483738981E+01  0.28552104106E+03  0.35562183926E+03  0.17170955008E+03 0.  0.
        -24    2    3    3    0    0  0.45615295774E+02 -0.14861551208E+02  0.25288574302E+03  0.26929730216E+03  0.79172072208E+02 0.  0.
          6    2    1    2  501    0 -0.12432635118E+03  0.18483738981E+01  0.81861043460E+03  0.84564067986E+03  0.17182740676E+03 0.  0.
         24    2    5    5    0    0 -0.14291988632E+03 -0.25831089169E+02  0.76204227419E+03  0.77980817271E+03  0.79366362565E+02 0.  0.
          5    1    5    5  501    0  0.18593535144E+02  0.27679463067E+02  0.56568160414E+02  0.65832507148E+02  0.47000000000E+01 0. -1.
        -13    1    6    6    0    0 -0.12837503431E+02 -0.32686875278E+02  0.17459635230E+03  0.17809300813E+03  0.00000000000E+00 0.  1.
         14    1    6    6    0    0 -0.13008238289E+03  0.68557861085E+01  0.58744592189E+03  0.60171516458E+03  0.00000000000E+00 0. -1.
         -5    1    3    3    0  503  0.78711055404E+02  0.13013177310E+02  0.32635298041E+02  0.86324537095E+02  0.47000000000E+01 0.  1.
         11    1    4    4    0    0 -0.23959872693E+01  0.28060914155E+02  0.75138493878E+02  0.80243061510E+02  0.00000000000E+00 0. -1.
        -12    1    4    4    0    0  0.48011283043E+02 -0.42922465363E+02  0.17774724914E+03  0.18905424065E+03  0.00000000000E+00 0.  1.
</event>
<event>
12    1  0.8416569E-002  0.1926222E+03  0.7818608E-02  0.1156118E+00
         21   -1    0    0  503  502  0.00000000000E+00  0.00000000000E+00  0.10613853591E+03  0.10613853591E+03  0.00000000000E+00 0.  1.
         21   -1    0    0  501  503 -0.00000000000E+00 -0.00000000000E+00 -0.44538777317E+03  0.44538777317E+03  0.00000000000E+00 0.  1.
          6    2    1    2  501    0  0.57489101911E+01 -0.86997602224E+02 -0.41714911038E+02  0.19708311329E+03  0.17175560247E+03 0.  0.
         24    2    3    3    0    0 -0.89281427930E+01 -0.98059564460E+02 -0.84352933565E+02  0.15041541721E+03  0.76249527325E+02 0.  0.
         -6    2    1    2    0  502 -0.57489101911E+01  0.86997602224E+02 -0.29753432623E+03  0.35444319579E+03  0.17176050478E+03 0.  0.
        -24    2    5    5    0    0 -0.43763101246E+02 -0.10370571697E+02 -0.17810448867E+03  0.19566279362E+03  0.67379241141E+02 0.  0.
          5    1    3    3  501    0  0.14677052984E+02  0.11061962236E+02  0.42638022527E+02  0.46667696084E+02  0.47000000000E+01 0. -1.
        -11    1    4    4    0    0 -0.37830338134E+02 -0.37627775075E+02 -0.18483276793E+02  0.56467826782E+02  0.00000000000E+00 0.  1.
         12    1    4    4    0    0  0.28902195341E+02 -0.60431789385E+02 -0.65869656772E+02  0.93947590427E+02  0.00000000000E+00 0. -1.
         -5    1    5    5    0  502  0.38014191055E+02  0.97368173921E+02 -0.11942983756E+03  0.15878040217E+03  0.47000000000E+01 0.  1.
         13    1    6    6    0    0 -0.85181281033E+01 -0.34402947544E+02 -0.10728683948E+03  0.11298932353E+03  0.00000000000E+00 0. -1.
        -14    1    6    6    0    0 -0.35244973143E+02  0.24032375847E+02 -0.70817649186E+02  0.82673470091E+02  0.00000000000E+00 0.  1.
</event>
<event>
12    1  0.8416569E-002  0.3096728E+03  0.7818608E-02  0.1080578E+00
         21   -1    0    0  501  502  0.00000000000E+00  0.00000000000E+00  0.18752207876E+03  0.18752207876E+03  0.00000000000E+00 0. -1.
         21   -1    0    0  502  503 -0.00000000000E+00 -0.00000000000E+00 -0.51616473526E+03  0.51616473526E+03  0.00000000000E+00 0. -1.
         -6    2    1    2    0  503  0.14416967045E+03 -0.21205312564E+03 -0.12718647113E+03  0.33477404951E+03  0.17362558515E+03 0.  0.
        -24    2    3    3    0    0  0.15457027982E+03 -0.22959836333E+03 -0.11896805764E+03  0.31228760113E+03  0.82236045821E+02 0.  0.
          6    2    1    2  501    0 -0.14416967045E+03  0.21205312564E+03 -0.20145618537E+03  0.36891276451E+03  0.17251264077E+03 0.  0.
         24    2    5    5    0    0 -0.10508090494E+03  0.49896811033E+02 -0.10665414315E+03  0.17699580548E+03  0.80129398924E+02 0.  0.
          5    1    5    5  501    0 -0.39088765512E+02  0.16215631461E+03 -0.94802042218E+02  0.19191695903E+03  0.47000000000E+01 0. -1.
        -11    1    6    6    0    0 -0.11077869410E+03  0.58725214265E+02 -0.80991855863E+02  0.14926570461E+03  0.00000000000E+00 0.  1.
         12    1    6    6    0    0  0.56977891679E+01 -0.88284032320E+01 -0.25662287288E+02  0.27730100864E+02  0.00000000000E+00 0. -1.
         -5    1    3    3    0  503 -0.10400609371E+02  0.17545237688E+02 -0.82184134871E+01  0.22486448387E+02  0.47000000000E+01 0.  1.
         11    1    4    4    0    0  0.52715747345E+02 -0.14326333093E+03 -0.84102450200E+02  0.17428870915E+03  0.00000000000E+00 0. -1.
        -12    1    4    4    0    0  0.10185453247E+03 -0.86335032397E+02 -0.34865607442E+02  0.13799889198E+03  0.00000000000E+00 0.  1.
</event>
<event>
12    1  0.8416569E-002  0.2301009E+03  0.7818608E-02  0.1128146E+00
         21   -1    0    0  503  502  0.00000000000E+00  0.00000000000E+00  0.45833299447E+02  0.45833299447E+02  0.00000000000E+00 0.  1.
         21   -1    0    0  501  503 -0.00000000000E+00 -0.00000000000E+00 -0.11558452839E+04  0.11558452839E+04  0.00000000000E+00 0. -1.
          6    2    1    2  501    0  0.61941053096E+02  0.14025325634E+03 -0.44774368542E+03  0.50340921997E+03  0.17157728562E+03 0.  0.
         24    2    3    3    0    0  0.46510649808E+02  0.35352958953E+01 -0.19069233422E+03  0.21181466376E+03  0.79537076840E+02 0.  0.
         -6    2    1    2    0  502 -0.61941053096E+02 -0.14025325634E+03 -0.66226829902E+03  0.69826936337E+03  0.15960305122E+03 0.  0.
        -24    2    5    5    0    0 -0.10431769137E+01 -0.74867701430E+02 -0.50986953992E+03  0.52154558486E+03  0.80228351694E+02 0.  0.
          5    1    3    3  501    0  0.15430403288E+02  0.13671796044E+03 -0.25705135121E+03  0.29159455621E+03  0.47000000000E+01 0. -1.
        -13    1    4    4    0    0  0.13356779731E+02 -0.19141996426E+02 -0.78710367165E+01  0.24632758898E+02  0.00000000000E+00 0.  1.
         14    1    4    4    0    0  0.33153870077E+02  0.22677292321E+02 -0.18282129750E+03  0.18718190486E+03  0.00000000000E+00 0. -1.
         -5    1    5    5    0  502 -0.60897876182E+02 -0.65385554909E+02 -0.15239875910E+03  0.17672377851E+03  0.47000000000E+01 0.  1.
         11    1    6    6    0    0 -0.37085265912E+02 -0.19201062670E+02 -0.15468011342E+03  0.16021839858E+03  0.00000000000E+00 0. -1.
        -12    1    6    6    0    0  0.36042088999E+02 -0.55666638760E+02 -0.35518942650E+03  0.36132718629E+03  0.00000000000E+00 0.  1.
</event>
<event>
12    1  0.8416569E-002  0.1989862E+03  0.7818608E-02  0.1150661E+00
         21   -1    0    0  501  502  0.00000000000E+00  0.00000000000E+00  0.28659378742E+03  0.28659378742E+03  0.00000000000E+00 0.  1.
         21   -1    0    0  502  503 -0.00000000000E+00 -0.00000000000E+00 -0.15823011905E+03  0.15823011905E+03  0.00000000000E+00 0.  1.
         -6    2    1    2    0  503  0.99089685794E+02 -0.37264708085E+01 -0.15398089435E+02  0.19958111908E+03  0.17251918595E+03 0.  0.
        -24    2    3    3    0    0  0.11480075293E+02 -0.30694148694E+02  0.37237032628E+02  0.93773531559E+02  0.79579870126E+02 0.  0.
          6    2    1    2  501    0 -0.99089685794E+02  0.37264708085E+01  0.14376175780E+03  0.24524278739E+03  0.17217412508E+03 0.  0.
         24    2    5    5    0    0  0.62728671034E+01 -0.22228269222E+02  0.31507686069E+02  0.89044251217E+02  0.80016870590E+02 0.  0.
          5    1    5    5  501    0 -0.10536255290E+03  0.25954740030E+02  0.11225407173E+03  0.15619853617E+03  0.47000000000E+01 0. -1.
        -13    1    6    6    0    0 -0.23676321403E+02 -0.29406023136E+02  0.42032770557E+02  0.56498107867E+02  0.00000000000E+00 0.  1.
         14    1    6    6    0    0  0.29949188506E+02  0.71777539141E+01 -0.10525084488E+02  0.32546143350E+02  0.00000000000E+00 0. -1.
         -5    1    3    3    0  503  0.87609610501E+02  0.26967677886E+02 -0.52635122063E+02  0.10580758752E+03  0.47000000000E+01 0.  1.
         11    1    4    4    0    0  0.22198619064E+02  0.13266873865E+02  0.40885515603E+02  0.48377825671E+02  0.00000000000E+00 0. -1.
        -12    1    4    4    0    0 -0.10718543771E+02 -0.43961022559E+02 -0.36484829758E+01  0.45395705888E+02  0.00000000000E+00 0.  1.
</event>
<event>
12    1  0.8416569E-002  0.2396267E+03  0.7818608E-02  0.1120133E+00
         21   -1    0    0  501  502  0.00000000000E+00  0.00000000000E+00  0.64658684538E+02  0.64658684538E+02  0.00000000000E+00 0. -1.
         21   -1    0    0  502  503 -0.00000000000E+00 -0.00000000000E+00 -0.12749510753E+04  0.12749510753E+04  0.00000000000E+00 0. -1.
         -6    2    1    2    0  503 -0.11600599382E+03  0.11975848614E+03 -0.97460237770E+03  0.10034985862E+04  0.17134798609E+03 0.  0.
        -24    2    3    3    0    0 -0.46067898658E+02 -0.45175750453E+01 -0.47741587723E+03  0.48624392672E+03  0.79778296949E+02 0.  0.
          6    2    1    2  501    0  0.11600599382E+03 -0.11975848614E+03 -0.23569001301E+03  0.33611117356E+03  0.17210884101E+03 0.  0.
         24    2    5    5    0    0  0.73392318291E+02 -0.10666396305E+03 -0.77230062778E+02  0.17143258447E+03  0.81615041652E+02 0.  0.
          5    1    5    5  501    0  0.42613675527E+02 -0.13094523092E+02 -0.15845995023E+03  0.16467858909E+03  0.47000000000E+01 0. -1.
        -13    1    6    6    0    0  0.18021110688E+02 -0.23380159679E+01 -0.45709536925E+02  0.49189313016E+02  0.00000000000E+00 0.  1.
         14    1    6    6    0    0  0.55371207603E+02 -0.10432594708E+03 -0.31520525853E+02  0.12224327145E+03  0.00000000000E+00 0. -1.
         -5    1    3    3    0  503 -0.69938095161E+02  0.12427606119E+03 -0.49718650047E+03  0.51725465951E+03  0.47000000000E+01 0.  1.
         11    1    4    4    0    0 -0.46870073518E+02 -0.68925360050E+01 -0.48018063991E+03  0.48251192502E+03  0.00000000000E+00 0. -1.
        -12    1    4    4    0    0  0.80217486001E+00  0.23749609596E+01  0.27647626713E+01  0.37320017007E+01  0.00000000000E+00 0.  1.
</event>
<event>
12    1  0.8416569E-002  0.1795913E+03  0.7818608E-02  0.1169302E+00
         21   -1    0    0  501  502  0.00000000000E+00  0.00000000000E+00  0.12472258344E+03  0.12472258344E+03  0.00000000000E+00 0.  1.
         21   -1    0    0  502  503 -0.00000000000E+00 -0.00000000000E+00 -0.14476592822E+04  0.14476592822E+04  0.00000000000E+00 0.  1.
         -6    2    1    2    0  503  0.58181412518E+02 -0.15475733383E+02 -0.13744412068E+04  0.13855510822E+04  0.16443416677E+03 0.  0.
        -24    2    3    3    0    0  0.96062453435E+02 -0.33342008938E+02 -0.11507416481E+04  0.11579159363E+04  0.78887833922E+02 0.  0.
          6    2    1    2  501    0 -0.58181412518E+02  0.15475733383E+02  0.51504508048E+02  0.18683078348E+03  0.16919944510E+03 0.  0.
         24    2    5    5    0    0 -0.95436780939E+02  0.23153003977E+02 -0.22688010322E+01  0.12079623397E+03  0.70301791825E+02 0.  0.
          5    1    5    5  501    0  0.37255368421E+02 -0.76772705930E+01  0.53773309080E+02  0.66034549513E+02  0.47000000000E+01 0. -1.
        -11    1    6    6    0    0 -0.44504544308E+02  0.36081402180E+02  0.23917807051E+02  0.62085292473E+02  0.00000000000E+00 0.  1.
         12    1    6    6    0    0 -0.50932236631E+02 -0.12928398204E+02 -0.26186608083E+02  0.58710941495E+02  0.00000000000E+00 0. -1.
         -5    1    3    3    0  503 -0.37881040917E+02  0.17866275554E+02 -0.22369955872E+03  0.22763514587E+03  0.47000000000E+01 0.  1.
         11    1    4    4    0    0  0.69751614550E+02  0.14254121628E+02 -0.52307872364E+03  0.52790133438E+03  0.00000000000E+00 0. -1.
        -12    1    4    4    0    0  0.26310838885E+02 -0.47596130565E+02 -0.62766292448E+03  0.63001460193E+03  0.00000000000E+00 0.  1.
</event>
<event>
12    1  0.8416569E-002  0.1762442E+03  0.7818608E-02  0.1171959E+00
         21   -1    0    0  503  502  0.00000000000E+00  0.00000000000E+00  0.29098388991E+03  0.29098388991E+03  0.00000000000E+00 0.  1.
         21   -1    0    0  501  503 -0.00000000000E+00 -0.00000000000E+00 -0.17123886846E+03  0.17123886846E+03  0.00000000000E+00 0.  1.
          6    2    1    2  501    0  0.27761872030E+02  0.24694925041E+02 -0.83399955761E+02  0.19328059998E+03  0.17035632317E+03 0.  0.
         24    2    3    3    0    0 -0.22558454828E+02  0.23086433249E+02  0.79998799305E+01  0.88826100287E+02  0.82366320356E+02 0.  0.
         -6    2    1    2    0  502 -0.27761872030E+02 -0.24694925041E+02  0.20314497721E+03  0.26894215840E+03  0.17228302857E+03 0.  0.
        -24    2    5    5    0    0  0.37838758028E+02 -0.48041851885E+02  0.14719168534E+03  0.17949171106E+03  0.82535392190E+02 0.  0.
          5    1    3    3  501    0  0.50320326858E+02  0.16084917912E+01 -0.91399835691E+02  0.10445449969E+03  0.47000000000E+01 0. -1.
        -11    1    4    4    0    0 -0.13288883868E+02  0.35383038556E+02 -0.29721592055E+02  0.48082500831E+02  0.00000000000E+00 0.  1.
         12    1    4    4    0    0 -0.92695709603E+01 -0.12296605306E+02  0.37721471986E+02  0.40743599456E+02  0.00000000000E+00 0. -1.
         -5    1    5    5    0  502 -0.65600630058E+02  0.23346926844E+02  0.55953291870E+02  0.89450447334E+02  0.47000000000E+01 0.  1.
         13    1    6    6    0    0  0.14891291832E+02  0.18843313080E+02  0.73659398066E+02  0.77475983012E+02  0.00000000000E+00 0. -1.
        -14    1    6    6    0    0  0.22947466196E+02 -0.66885164965E+02  0.73532287277E+02  0.10201572805E+03  0.00000000000E+00 0.  1.
</event>
<event>
12    1  0.8416569E-002  0.2258864E+03  0.7818608E-02  0.1130401E+00
         21   -1    0    0  503  502  0.00000000000E+00  0.00000000000E+00  0.11723708637E+04  0.11723708637E+04  0.00000000000E+00 0. -1.
         21   -1    0    0  501  503 -0.00000000000E+00 -0.00000000000E+00 -0.47801806059E+02  0.47801806059E+02  0.00000000000E+00 0. -1.
          6    2    1    2  501    0 -0.11722552198E+03  0.79356536041E+02  0.36707673994E+03  0.43101044750E+03  0.17602667422E+03 0.  0.
         24    2    3    3    0    0 -0.13614687314E+02  0.76146220093E+02  0.12519617436E+03  0.16781126590E+03  0.80640761066E+02 0.  0.
         -6    2    1    2    0  502  0.11722552198E+03 -0.79356536041E+02  0.75749231775E+03  0.78916222231E+03  0.17012677288E+03 0.  0.
        -24    2    5    5    0    0  0.13153535693E+03 -0.36704984367E+02  0.69027147055E+03  0.70813964190E+03  0.79613085480E+02 0.  0.
          5    1    3    3  501    0 -0.10361083466E+03  0.32103159477E+01  0.24188056558E+03  0.26319918159E+03  0.47000000000E+01 0. -1.
        -11    1    4    4    0    0  0.70526604897E+01 -0.46660655359E+01 -0.73489623576E+01  0.11203545658E+02  0.00000000000E+00 0.  1.
         12    1    4    4    0    0 -0.20667347804E+02  0.80812285629E+02  0.13254513672E+03  0.15660772025E+03  0.00000000000E+00 0. -1.
         -5    1    5    5    0  502 -0.14309834958E+02 -0.42651551674E+02  0.67220847203E+02  0.81022580405E+02  0.47000000000E+01 0.  1.
         13    1    6    6    0    0  0.55687354876E+02 -0.54740236527E+02  0.40187133241E+03  0.40938752155E+03  0.00000000000E+00 0. -1.
        -14    1    6    6    0    0  0.75848002058E+02  0.18035252161E+02  0.28840013814E+03  0.29875212036E+03  0.00000000000E+00 0.  1.
</event>
<event>
12    1  0.8416569E-002  0.2216574E+03  0.7818608E-02  0.1132730E+00
         21   -1    0    0  501  502  0.00000000000E+00  0.00000000000E+00  0.25787418010E+03  0.25787418010E+03  0.00000000000E+00 0. -1.
         21   -1    0    0  502  503 -0.00000000000E+00 -0.00000000000E+00 -0.35511331375E+03  0.35511331375E+03  0.00000000000E+00 0. -1.
         -6    2    1    2    0  503 -0.86723044858E+01 -0.13793648826E+03 -0.25752680111E+03  0.33978238257E+03  0.17329261541E+03 0.  0.
        -24    2    3    3    0    0 -0.12991869774E+02 -0.15862644989E+03 -0.26176428460E+03  0.31771930430E+03  0.84225152685E+02 0.  0.
          6    2    1    2  501    0  0.86723044858E+01  0.13793648826E+03  0.16028766745E+03  0.27320511129E+03  0.17276345921E+03 0.  0.
         24    2    5    5    0    0  0.67720493328E+01  0.35329480003E+02  0.14522878558E+03  0.16937511063E+03  0.79388255621E+02 0.  0.
          5    1    5    5  501    0  0.19002551529E+01  0.10260700826E+03  0.15058881873E+02  0.10383000066E+03  0.47000000000E+01 0. -1.
        -11    1    6    6    0    0 -0.27269736752E+02  0.69200374761E+01  0.10761252923E+03  0.11122941116E+03  0.00000000000E+00 0.  1.
         12    1    6    6    0    0  0.34041786084E+02  0.28409442527E+02  0.37616256355E+02  0.58145699468E+02  0.00000000000E+00 0. -1.
         -5    1    3    3    0  503  0.43195652886E+01  0.20689961626E+02  0.42374834969E+01  0.22063078270E+02  0.47000000000E+01 0.  1.
         13    1    4    4    0    0 -0.11091836169E+02 -0.14616526122E+03 -0.16736547282E+03  0.22248261485E+03  0.00000000000E+00 0. -1.
        -14    1    4    4    0    0 -0.19000336055E+01 -0.12461188661E+02 -0.94398811781E+02  0.95236689443E+02  0.00000000000E+00 0.  1.
</event>
<event>
12    1  0.8416569E-002  0.2111868E+03  0.7818608E-02  0.1141422E+00
         21   -1    0    0  501  502  0.00000000000E+00  0.00000000000E+00  0.10383514877E+03  0.10383514877E+03  0.00000000000E+00 0. -1.
         21   -1    0    0  502  503 -0.00000000000E+00 -0.00000000000E+00 -0.80235658840E+03  0.80235658840E+03  0.00000000000E+00 0. -1.
         -6    2    1    2    0  503 -0.49078877914E+02  0.10608386701E+03 -0.65969292005E+03  0.69146514307E+03  0.17107534074E+03 0.  0.
        -24    2    3    3    0    0 -0.79199716743E+02  0.53458816172E+02 -0.56734625692E+03  0.58089092772E+03  0.80137722146E+02 0.  0.
          6    2    1    2  501    0  0.49078877914E+02 -0.10608386701E+03 -0.38828519585E+02  0.21472659410E+03  0.17589011680E+03 0.  0.
         24    2    5    5    0    0 -0.10909964907E+02  0.81790956156E+01  0.15280862500E+01  0.79429027517E+02  0.78234969325E+02 0.  0.
          5    1    5    5  501    0  0.59988842821E+02 -0.11426296262E+03 -0.40356605835E+02  0.13529756659E+03  0.47000000000E+01 0. -1.
        -11    1    6    6    0    0  0.19658696059E+01  0.39961275626E+02 -0.13168616164E+02  0.42121023785E+02  0.00000000000E+00 0.  1.
         12    1    6    6    0    0 -0.12875834513E+02 -0.31782180011E+02  0.14696702414E+02  0.37308003732E+02  0.00000000000E+00 0. -1.
         -5    1    3    3    0  503  0.30120838828E+02  0.52625050834E+02 -0.92346663135E+02  0.11057421535E+03  0.47000000000E+01 0.  1.
         11    1    4    4    0    0 -0.59794464767E+02 -0.78854985361E+01 -0.28329399907E+03  0.28964296817E+03  0.00000000000E+00 0. -1.
        -12    1    4    4    0    0 -0.19405251976E+02  0.61344314708E+02 -0.28405225785E+03  0.29124795955E+03  0.00000000000E+00 0.  1.
</event>
<event>
12    1  0.8416569E-002  0.1901101E+03  0.7818608E-02  0.1158462E+00
         21   -1    0    0  501  502  0.00000000000E+00  0.00000000000E+00  0.33144223920E+03  0.33144223920E+03  0.00000000000E+00 0.  1.
         21   -1    0    0  502  503 -0.00000000000E+00 -0.00000000000E+00 -0.11342863800E+03  0.11342863800E+03  0.00000000000E+00 0. -1.
         -6    2    1    2    0  503 -0.17238276575E+02 -0.79445774110E+02  0.63900105744E+02  0.20014075872E+03  0.17136017794E+03 0.  0.
        -24    2    3    3    0    0  0.93244992656E+01 -0.41778605287E+02 -0.29038988521E+02  0.96293939264E+02  0.81221067085E+02 0.  0.
          6    2    1    2  501    0  0.17238276575E+02  0.79445774110E+02  0.15411349546E+03  0.24473011848E+03  0.17185189032E+03 0.  0.
         24    2    5    5    0    0 -0.49970386517E+02  0.41916642252E+02  0.12402923935E+03  0.16194973072E+03  0.81181393432E+02 0.  0.
          5    1    5    5  501    0  0.67208663092E+02  0.37529131858E+02  0.30084256106E+02  0.82780387762E+02  0.47000000000E+01 0. -1.
        -13    1    6    6    0    0  0.95157991572E+01 -0.82728276890E+00  0.70700657825E+02  0.71342959340E+02  0.00000000000E+00 0.  1.
         14    1    6    6    0    0 -0.59486185674E+02  0.42743925021E+02  0.53328581526E+02  0.90606771380E+02  0.00000000000E+00 0. -1.
         -5    1    3    3    0  503 -0.26562775841E+02 -0.37667168823E+02  0.92939094266E+02  0.10384681945E+03  0.47000000000E+01 0.  1.
         11    1    4    4    0    0 -0.35869046004E+02 -0.14378748242E+02 -0.83343852442E+01  0.39532250627E+02  0.00000000000E+00 0. -1.
        -12    1    4    4    0    0  0.45193545270E+02 -0.27399857045E+02 -0.20704603277E+02  0.56761688637E+02  0.00000000000E+00 0.  1.
</event>
<event>
12    1  0.8416569E-002  0.2040149E+03  0.7818608E-02  0.1146571E+00
         21   -1    0    0  503  502  0.00000000000E+00  0.00000000000E+00  0.54911622811E+03  0.54911622811E+03  0.00000000000E+00 0.  1.
         21   -1    0    0  501  503 -0.00000000000E+00 -0.00000000000E+00 -0.83034349151E+02  0.83034349151E+02  0.00000000000E+00 0. -1.
          6    2    1    2  501    0 -0.72437298039E+01 -0.10873936729E+03  0.13726598544E+03  0.24518549770E+03  0.17145627985E+03 0.  0.
         24    2    3    3    0    0 -0.44733971534E+02 -0.12706238523E+02  0.10160257575E+03  0.13599827849E+03  0.77523361948E+02 0.  0.
         -6    2    1    2    0  502  0.72437298039E+01  0.10873936729E+03  0.32881589351E+03  0.38696507956E+03  0.17246843002E+03 0.  0.
        -24    2    5    5    0    0 -0.46342398661E+02  0.11401025822E+03  0.26866821590E+03  0.30610044837E+03  0.79805497098E+02 0.  0.
          5    1    3    3  501    0  0.37490241730E+02 -0.96033128771E+02  0.35663409698E+02  0.10918721921E+03  0.47000000000E+01 0. -1.
        -11    1    4    4    0    0  0.13008097051E+02 -0.12371596977E+02  0.65459541356E+02  0.67876494865E+02  0.00000000000E+00 0.  1.
         12    1    4    4    0    0 -0.57742068585E+02 -0.33464154618E+00  0.36143034390E+02  0.68121783626E+02  0.00000000000E+00 0. -1.
         -5    1    5    5    0  502  0.53586128465E+02 -0.52708909245E+01  0.60147677618E+02  0.80864631193E+02  0.47000000000E+01 0.  1.
         13    1    6    6    0    0 -0.18034453621E+02  0.26132479459E+02  0.13064977136E+02  0.34334263173E+02  0.00000000000E+00 0. -1.
        -14    1    6    6    0    0 -0.28307945041E+02  0.87877778760E+02  0.25560323876E+03  0.27176618520E+03  0.00000000000E+00 0.  1.
</event>
<event>
12    1  0.8416569E-002  0.2093206E+03  0.7818608E-02  0.1142264E+00
         21   -1    0    0  501  502  0.00000000000E+00  0.00000000000E+00  0.22373859198E+04  0.22373859198E+04  0.00000000000E+00 0.  1.
         21   -1    0    0  502  503 -0.00000000000E+00 -0.00000000000E+00 -0.19858822857E+02  0.19858822857E+02  0.00000000000E+00 0.  1.
         -6    2    1    2    0  503 -0.11417511988E+03  0.32956288687E+02  0.12607329404E+04  0.12779916481E+04  0.17231665825E+03 0.  0.
        -24    2    3    3    0    0 -0.10667359132E+03 -0.34314178005E+02  0.95149978447E+03  0.96140228737E+03  0.79911203292E+02 0.  0.
          6    2    1    2  501    0  0.11417511988E+03 -0.32956288687E+02  0.95679415653E+03  0.97925309451E+03  0.17134611226E+03 0.  0.
         24    2    5    5    0    0  0.37573914793E+01 -0.29588218593E+02  0.57803179581E+03  0.58468189113E+03  0.82719865700E+02 0.  0.
          5    1    5    5  501    0  0.11041772840E+03 -0.33680700939E+01  0.37876236072E+03  0.39457120338E+03  0.47000000000E+01 0. -1.
        -13    1    6    6    0    0 -0.49341842837E+01  0.18393900126E+02  0.38517013126E+02  0.42967918690E+02  0.00000000000E+00 0.  1.
         14    1    6    6    0    0  0.86915757631E+01 -0.47982118718E+02  0.53951478268E+03  0.54171397244E+03  0.00000000000E+00 0. -1.
         -5    1    3    3    0  503 -0.75015285601E+01  0.67270466692E+02  0.30923315591E+03  0.31658936074E+03  0.47000000000E+01 0.  1.
         11    1    4    4    0    0 -0.49911340121E+01  0.28632308870E+01  0.25455239248E+01  0.62919950644E+01  0.00000000000E+00 0. -1.
        -12    1    4    4    0    0 -0.10168245731E+03 -0.37177408892E+02  0.94895426055E+03  0.95511029231E+03  0.00000000000E+00 0.  1.
</event>
<event>
12    1  0.8416569E-002  0.1968565E+03  0.7818608E-02  0.1152480E+00
         21   -1    0    0  503  502  0.00000000000E+00  0.00000000000E+00  0.10658016187E+04  0.10658016187E+04  0.00000000000E+00 0. -1.
         21   -1    0    0  501  503 -0.00000000000E+00 -0.00000000000E+00 -0.77192823808E+02  0.77192823808E+02  0.00000000000E+00 0. -1.
          6    2    1    2  501    0 -0.49882045436E+02 -0.81802872344E+02  0.78215081200E+02  0.21156049506E+03  0.17164007621E+03 0.  0.
         24    2    3    3    0    0 -0.62271410150E+02 -0.49540850497E+02 -0.14485250577E+02  0.11251618213E+03  0.78217928682E+02 0.  0.
         -6    2    1    2    0  502  0.49882045436E+02  0.81802872344E+02  0.91039371372E+03  0.93143394748E+03  0.17196672977E+03 0.  0.
        -24    2    5    5    0    0  0.71632155604E+02  0.10239131635E+03  0.53989770943E+03  0.55969972721E+03  0.78479937658E+02 0.  0.
          5    1    3    3  501    0  0.12389364715E+02 -0.32262021847E+02  0.92700331777E+02  0.99044312927E+02  0.47000000000E+01 0. -1.
        -11    1    4    4    0    0 -0.63986633537E+01 -0.93986328790E+01  0.28985094289E+02  0.31135395993E+02  0.00000000000E+00 0.  1.
         12    1    4    4    0    0 -0.55872746797E+02 -0.40142217618E+02 -0.43470344866E+02  0.81380786139E+02  0.00000000000E+00 0. -1.
         -5    1    5    5    0  502 -0.21750110169E+02 -0.20588444007E+02  0.37049600429E+03  0.37173422027E+03  0.47000000000E+01 0.  1.
         13    1    6    6    0    0  0.66018834598E+02  0.98412026616E+02  0.34696596153E+03  0.36664532176E+03  0.00000000000E+00 0. -1.
        -14    1    6    6    0    0  0.56133210069E+01  0.39792897360E+01  0.19293174789E+03  0.19305440545E+03  0.00000000000E+00 0.  1.
</event>
<event>
12    1  0.8416569E-002  0.2645986E+03  0.7818608E-02  0.1105247E+00
         21   -1    0    0  501  502  0.00000000000E+00  0.00000000000E+00  0.30834501871E+03  0.30834501871E+03  0.00000000000E+00 0.  1.
         21   -1    0    0  502  503 -0.00000000000E+00 -0.00000000000E+00 -0.33581647249E+03  0.33581647249E+03  0.00000000000E+00 0. -1.
         -6    2    1    2    0  503  0.15832055546E+03 -0.12325436262E+03 -0.20111992617E+03  0.33235771363E+03  0.17249750410E+03 0.  0.
        -24    2    3    3    0    0  0.14192507888E+03 -0.11673816759E+03 -0.88466855549E+02  0.21823463634E+03  0.77649495679E+02 0.  0.
          6    2    1    2  501    0 -0.15832055546E+03  0.12325436262E+03  0.17364847239E+03  0.31180377757E+03  0.16373993880E+03 0.  0.
         24    2    5    5    0    0 -0.11264233710E+03  0.14828620145E+03  0.16105890713E+03  0.25801084364E+03  0.77152642358E+02 0.  0.
          5    1    5    5  501    0 -0.45678218356E+02 -0.25031838826E+02  0.12589565258E+02  0.53792933928E+02  0.47000000000E+01 0. -1.
        -13    1    6    6    0    0 -0.52728878865E+02  0.14223949871E+02  0.39861430616E+02  0.67613527249E+02  0.00000000000E+00 0.  1.
         14    1    6    6    0    0 -0.59913458235E+02  0.13406225158E+03  0.12119747651E+03  0.19039731639E+03  0.00000000000E+00 0. -1.
         -5    1    3    3    0  503  0.16395476574E+02 -0.65161950392E+01 -0.11265307063E+03  0.11412307729E+03  0.47000000000E+01 0.  1.
         13    1    4    4    0    0  0.11188096583E+03 -0.10467569787E+03 -0.10101068253E+03  0.18351433248E+03  0.00000000000E+00 0. -1.
        -14    1    4    4    0    0  0.30044113048E+02 -0.12062469710E+02  0.12543826981E+02  0.34720303853E+02  0.00000000000E+00 0.  1.
</event>
<event>
12    1  0.8416569E-002  0.1834352E+03  0.7818608E-02  0.1164576E+00
         21   -1    0    0  503  502  0.00000000000E+00  0.00000000000E+00  0.98110144731E+02  0.98110144731E+02  0.00000000000E+00 0.  1.
         21   -1    0    0  501  503 -0.00000000000E+00 -0.00000000000E+00 -0.46461936223E+03  0.46461936223E+03  0.00000000000E+00 0.  1.
          6    2    1    2  501    0 -0.14189999924E+02 -0.42830812489E+02 -0.32758159625E+03  0.37544395944E+03  0.17779940911E+03 0.  0.
         24    2    3    3    0    0  0.50391629272E+02 -0.13957256440E+02 -0.14912219222E+03  0.18341709165E+03  0.93114338242E+02 0.  0.
         -6    2    1    2    0  502  0.14189999924E+02  0.42830812489E+02 -0.38927621254E+02  0.18728554753E+03  0.17755191359E+03 0.  0.
        -24    2    5    5    0    0  0.53505848144E+02 -0.10204244175E+02  0.21179708556E+02  0.97879539601E+02  0.78516379394E+02 0.  0.
          5    1    3    3  501    0 -0.64581629196E+02 -0.28873556049E+02 -0.17845940403E+03  0.19202686779E+03  0.47000000000E+01 0. -1.
        -13    1    4    4    0    0  0.33527160208E+02  0.27196538610E+02 -0.12620536033E+03  0.13338483857E+03  0.00000000000E+00 0.  1.
         14    1    4    4    0    0  0.16864469064E+02 -0.41153795050E+02 -0.22916831891E+02  0.50032253075E+02  0.00000000000E+00 0. -1.
         -5    1    5    5    0  502 -0.39315848220E+02  0.53035056664E+02 -0.60107329810E+02  0.89406007927E+02  0.47000000000E+01 0.  1.
         13    1    6    6    0    0  0.65580279652E+02  0.15151365182E+01 -0.60437368926E+01  0.65875606058E+02  0.00000000000E+00 0. -1.
        -14    1    6    6    0    0 -0.12074431509E+02 -0.11719380694E+02  0.27223445448E+02  0.32003933542E+02  0.00000000000E+00 0.  1.
</event>
<event>
12    1  0.8416569E-002  0.2039074E+03  0.7818608E-02  0.1148595E+00
         21   -1    0    0  501  502  0.00000000000E+00  0.00000000000E+00  0.13401740396E+03  0.13401740396E+03  0.00000000000E+00 0. -1.
         21   -1    0    0  502  503 -0.00000000000E+00 -0.00000000000E+00 -0.43867397039E+03  0.43867397039E+03  0.00000000000E+00 0. -1.
         -6    2    1    2    0  503 -0.81637873787E+02 -0.35947124682E+02 -0.31346145080E+03  0.36859400946E+03  0.17218166122E+03 0.  0.
        -24    2    3    3    0    0 -0.90837363656E+02 -0.21664392424E+02 -0.11068663994E+03  0.16505447773E+03  0.79187598929E+02 0.  0.
          6    2    1    2  501    0  0.81637873787E+02  0.35947124682E+02  0.88048843809E+01  0.20409736489E+03  0.18336103773E+03 0.  0.
         24    2    5    5    0    0  0.87832791100E+02  0.88130595458E+02 -0.71949232749E+01  0.14896501987E+03  0.81591722462E+02 0.  0.
          5    1    5    5  501    0 -0.61949173134E+01 -0.52183470776E+02  0.15999807656E+02  0.55132345023E+02  0.47000000000E+01 0. -1.
        -13    1    6    6    0    0  0.21035759825E+02 -0.11074640782E+02  0.13875207834E+02  0.27525846986E+02  0.00000000000E+00 0.  1.
         14    1    6    6    0    0  0.66797031275E+02  0.99205236241E+02 -0.21070131109E+02  0.12143917288E+03  0.00000000000E+00 0. -1.
         -5    1    3    3    0  503  0.91994898691E+01 -0.14282732258E+02 -0.20277481087E+03  0.20353953173E+03  0.47000000000E+01 0.  1.
         13    1    4    4    0    0 -0.32734104597E+02 -0.39482035585E+02 -0.84570949546E+02  0.98907018177E+02  0.00000000000E+00 0. -1.
        -14    1    4    4    0    0 -0.58103259059E+02  0.17817643160E+02 -0.26115690392E+02  0.66147459556E+02  0.00000000000E+00 0.  1.
</event>
<event>
12    1  0.8416569E-002  0.1792268E+03  0.7818608E-02  0.1170794E+00
         21   -1    0    0  503  502  0.00000000000E+00  0.00000000000E+00  0.43331484323E+03  0.43331484323E+03  0.00000000000E+00 0.  1.
         21   -1    0    0  501  503 -0.00000000000E+00 -0.00000000000E+00 -0.18004492730E+03  0.18004492730E+03  0.00000000000E+00 0.  1.
          6    2    1    2  501    0  0.26604385197E+02  0.29089219087E+02 -0.11130991546E+03  0.21097902505E+03  0.17483785560E+03 0.  0.
         24    2    3    3    0    0  0.61051016270E+02 -0.31073124655E+02 -0.41301938547E+02  0.11234188788E+03  0.78880187513E+02 0.  0.
         -6    2    1    2    0  502 -0.26604385197E+02 -0.29089219087E+02  0.36457983139E+03  0.40238074549E+03  0.16564369865E+03 0.  0.
        -24    2    5    5    0    0  0.38632760429E+02  0.17802445410E+02  0.20215664747E+03  0.22111272833E+03  0.78829634478E+02 0.  0.
          5    1    3    3  501    0 -0.34446631073E+02  0.60162343742E+02 -0.70007976916E+02  0.98637137168E+02  0.47000000000E+01 0. -1.
        -13    1    4    4    0    0  0.13203191531E+02 -0.37103855835E+02 -0.49676468788E+02  0.63393784677E+02  0.00000000000E+00 0.  1.
         14    1    4    4    0    0  0.47847824739E+02  0.60307311793E+01  0.83745302409E+01  0.48948103207E+02  0.00000000000E+00 0. -1.
         -5    1    5    5    0  502 -0.65237145626E+02 -0.46891664497E+02  0.16242318392E+03  0.18126801715E+03  0.47000000000E+01 0.  1.
         13    1    6    6    0    0 -0.34863880593E+01 -0.11537905500E+02  0.13992282125E+03  0.14044099854E+03  0.00000000000E+00 0. -1.
        -14    1    6    6    0    0  0.42119148489E+02  0.29340350910E+02  0.62233826225E+02  0.80671729792E+02  0.00000000000E+00 0.  1.
</event>
<event>
12    1  0.8416569E-002  0.1945610E+03  0.7818608E-02  0.1154499E+00
         21   -1    0    0  503  502  0.00000000000E+00  0.00000000000E+00  0.11518134919E+03  0.11518134919E+03  0.00000000000E+00 0.  1.
         21   -1    0    0  501  503 -0.00000000000E+00 -0.00000000000E+00 -0.35475988055E+03  0.35475988055E+03  0.00000000000E+00 0. -1.
          6    2    1    2  501    0 -0.71237529244E+02  0.58908863970E+02 -0.18424791054E+03  0.26766549147E+03  0.17074098207E+03 0.  0.
         24    2    3    3    0    0  0.81339746356E+01 -0.10892855564E+02 -0.11596780413E+03  0.14174337820E+03  0.80360673367E+02 0.  0.
         -6    2    1    2    0  502  0.71237529244E+02 -0.58908863970E+02 -0.55330620816E+02  0.20227573827E+03  0.17119858897E+03 0.  0.
        -24    2    5    5    0    0  0.73555391574E+02  0.18977961873E+02 -0.25753725549E+01  0.10805824337E+03  0.76807504522E+02 0.  0.
          5    1    3    3  501    0 -0.79371503880E+02  0.69801719534E+02 -0.68280106412E+02  0.12592211327E+03  0.47000000000E+01 0. -1.
        -13    1    4    4    0    0 -0.50468171771E+01 -0.35701602551E+02 -0.18935662969E+02  0.40726332027E+02  0.00000000000E+00 0.  1.
         14    1    4    4    0    0  0.13180791813E+02  0.24808746987E+02 -0.97032141162E+02  0.10101704618E+03  0.00000000000E+00 0. -1.
         -5    1    5    5    0  502 -0.23178623297E+01 -0.77886825844E+02 -0.52755248261E+02  0.94217494898E+02  0.47000000000E+01 0.  1.
         11    1    6    6    0    0  0.16392230570E+02  0.21117597846E+01 -0.36080990911E+02  0.39686303148E+02  0.00000000000E+00 0. -1.
        -12    1    6    6    0    0  0.57163161004E+02  0.16866202089E+02  0.33505618356E+02  0.68371940226E+02  0.00000000000E+00 0.  1.
</event>
<event>
12    1  0.8416569E-002  0.1858267E+03  0.7818608E-02  0.1162679E+00
         21   -1    0    0  501  502  0.00000000000E+00  0.00000000000E+00  0.22214164068E+04  0.22214164068E+04  0.00000000000E+00 0. -1.
         21   -1    0    0  502  503 -0.00000000000E+00 -0.00000000000E+00 -0.41730897062E+02  0.41730897062E+02  0.00000000000E+00 0.  1.
         -6    2    1    2    0  503 -0.52635003139E+02 -0.47994191234E+02  0.18917147511E+03  0.26397805217E+03  0.16977832336E+03 0.  0.
        -24    2    3    3    0    0 -0.53493844339E+02 -0.44610266317E+02  0.21000132093E+03  0.24234102296E+03  0.98878457598E+02 0.  0.
          6    2    1    2  501    0  0.52635003139E+02  0.47994191234E+02  0.19905140346E+04  0.19991692517E+04  0.17163242390E+03 0.  0.
         24    2    5    5    0    0  0.62479624386E+02 -0.34049294411E+01  0.65304159381E+03  0.66066508430E+03  0.78100789810E+02 0.  0.
          5    1    5    5  501    0 -0.98446212469E+01  0.51399120675E+02  0.13374724408E+04  0.13385041674E+04  0.47000000000E+01 0. -1.
        -11    1    6    6    0    0  0.35948439958E+01 -0.22270797907E+01 -0.69090300887E+00  0.42848727771E+01  0.00000000000E+00 0.  1.
         12    1    6    6    0    0  0.58884780390E+02 -0.11778496504E+01  0.65373249682E+03  0.65638021153E+03  0.00000000000E+00 0. -1.
         -5    1    3    3    0  503  0.85884120048E+00 -0.33839249168E+01 -0.20829845815E+02  0.21637029203E+02  0.47000000000E+01 0.  1.
         13    1    4    4    0    0  0.29313495853E+02 -0.97015451547E+01  0.60063024304E+02  0.67534938410E+02  0.00000000000E+00 0. -1.
        -14    1    4    4    0    0 -0.82807340192E+02 -0.34908721163E+02  0.14993829662E+03  0.17480608455E+03  0.00000000000E+00 0.  1.
</event>
<event>
12    1  0.8416569E-002  0.4555282E+03  0.7818608E-02  0.1026244E+00
         21   -1    0    0  501  502  0.00000000000E+00  0.00000000000E+00  0.56053510224E+03  0.56053510224E+03  0.00000000000E+00 0. -1.
         21   -1    0    0  502  503 -0.00000000000E+00 -0.00000000000E+00 -0.37737760820E+03  0.37737760820E+03  0.00000000000E+00 0.  1.
         -6    2    1    2    0  503 -0.10607107918E+03 -0.40578420817E+03  0.16389712386E+03  0.48411588046E+03  0.17774707047E+03 0.  0.
        -24    2    3    3    0    0 -0.76750441698E+02 -0.40891095888E+03  0.14111104887E+03  0.44655564130E+03  0.80005062773E+02 0.  0.
          6    2    1    2  501    0  0.10607107918E+03  0.40578420817E+03  0.19260370172E+02  0.45379682998E+03  0.17218798912E+03 0.  0.
         24    2    5    5    0    0  0.62322426819E+02  0.17214899629E+03 -0.51152753715E+02  0.20584632115E+03  0.78973045452E+02 0.  0.
          5    1    5    5  501    0  0.43748652357E+02  0.23363521188E+03  0.70413123887E+02  0.24795050883E+03  0.47000000000E+01 0. -1.
        -13    1    6    6    0    0  0.75175412515E+02  0.16983332156E+03 -0.43661948180E+02  0.19079063258E+03  0.00000000000E+00 0.  1.
         14    1    6    6    0    0 -0.12852985696E+02  0.23156747289E+01 -0.74908055351E+01  0.15055688570E+02  0.00000000000E+00 0. -1.
         -5    1    3    3    0  503 -0.29320637478E+02  0.31267507086E+01  0.22786074993E+02  0.37560239159E+02  0.47000000000E+01 0.  1.
         13    1    4    4    0    0  0.15612727028E+02 -0.62865590382E+02  0.12272928418E+02  0.65927721569E+02  0.00000000000E+00 0. -1.
        -14    1    4    4    0    0 -0.92363168726E+02 -0.34604536850E+03  0.12883812045E+03  0.38062791973E+03  0.00000000000E+00 0.  1.
</event>
<event>
12    1  0.8416569E-002  0.2111639E+03  0.7818608E-02  0.1140709E+00
         21   -1    0    0  503  502  0.00000000000E+00  0.00000000000E+00  0.58325083160E+03  0.58325083160E+03  0.00000000000E+00 0.  1.
         21   -1    0    0  501  503 -0.00000000000E+00 -0.00000000000E+00 -0.18898846031E+03  0.18898846031E+03  0.00000000000E+00 0. -1.
          6    2    1    2  501    0  0.10797446801E+03 -0.56202678688E+02 -0.10091550230E+03  0.23403876595E+03  0.17254848168E+03 0.  0.
         24    2    3    3    0    0  0.49115474257E+02 -0.21142149643E+02 -0.12833957915E+03  0.16009424733E+03  0.79371280381E+02 0.  0.
         -6    2    1    2    0  502 -0.10797446801E+03  0.56202678688E+02  0.49517787359E+03  0.53820052595E+03  0.17216693296E+03 0.  0.
        -24    2    5    5    0    0 -0.68690272332E+02 -0.34093430023E+02  0.29606516884E+03  0.31601908102E+03  0.79578639624E+02 0.  0.
          5    1    3    3  501    0  0.58858993753E+02 -0.35060529045E+02  0.27424076854E+02  0.73944518619E+02  0.47000000000E+01 0. -1.
        -13    1    4    4    0    0 -0.17128082093E+02  0.95009720176E+01 -0.46381108409E+02  0.50347262912E+02  0.00000000000E+00 0.  1.
         14    1    4    4    0    0  0.66243556350E+02 -0.30643121661E+02 -0.81958470744E+02  0.10974698442E+03  0.00000000000E+00 0. -1.
         -5    1    5    5    0  502 -0.39284195678E+02  0.90296108712E+02  0.19911270475E+03  0.22218144493E+03  0.47000000000E+01 0.  1.
         13    1    6    6    0    0 -0.10300273988E+02  0.33261446705E+00  0.18913104822E+03  0.18941161442E+03  0.00000000000E+00 0. -1.
        -14    1    6    6    0    0 -0.58389998344E+02 -0.34426044490E+02  0.10693412062E+03  0.12660746660E+03  0.00000000000E+00 0.  1.
</event>
<event>
12    1  0.8416569E-002  0.2371279E+03  0.7818608E-02  0.1122604E+00
         21   -1    0    0  501  502  0.00000000000E+00  0.00000000000E+00  0.14110385790E+03  0.14110385790E+03  0.00000000000E+00 0. -1.
         21   -1    0    0  502  503 -0.00000000000E+00 -0.00000000000E+00 -0.41737735179E+03  0.41737735179E+03  0.00000000000E+00 0.  1.
         -6    2    1    2    0  503  0.15576352439E+03 -0.56423380865E+01 -0.21123670704E+03  0.31756982943E+03  0.17870517242E+03 0.  0.
        -24    2    3    3    0    0  0.33236458920E+02 -0.53703348800E+02 -0.12075664437E+03  0.15778411584E+03  0.79529542811E+02 0.  0.
          6    2    1    2  501    0 -0.15576352439E+03  0.56423380865E+01 -0.65036786850E+02  0.24091138026E+03  0.17179754942E+03 0.  0.
         24    2    5    5    0    0 -0.25628900266E+02 -0.26413540006E+02 -0.59881251625E+02  0.10670531013E+03  0.80285386528E+02 0.  0.
          5    1    5    5  501    0 -0.13013462412E+03  0.32055878093E+02 -0.51555352251E+01  0.13420607013E+03  0.47000000000E+01 0. -1.
        -11    1    6    6    0    0  0.12793196559E+02 -0.91087984140E+01  0.14397818105E+02  0.21305709397E+02  0.00000000000E+00 0.  1.
         12    1    6    6    0    0 -0.38422096824E+02 -0.17304741592E+02 -0.74279069729E+02  0.85399600736E+02  0.00000000000E+00 0. -1.
         -5    1    3    3    0  503  0.12252706547E+03  0.48061010714E+02 -0.90480062675E+02  0.15978571358E+03  0.47000000000E+01 0.  1.
         11    1    4    4    0    0 -0.24050769614E+02 -0.32504483531E+02 -0.50208075048E+02  0.64465741046E+02  0.00000000000E+00 0. -1.
        -12    1    4    4    0    0  0.57287228533E+02 -0.21198865269E+02 -0.70548569318E+02  0.93318374796E+02  0.00000000000E+00 0.  1.
</event>
<event>
12    1  0.8416569E-002  0.2094034E+03  0.7818608E-02  0.1142196E+00
         21   -1    0    0  503  502  0.00000000000E+00  0.00000000000E+00  0.15880228347E+03  0.15880228347E+03  0.00000000000E+00 0.  1.
         21   -1    0    0  501  503 -0.00000000000E+00 -0.00000000000E+00 -0.71760846885E+03  0.71760846885E+03  0.00000000000E+00 0.  1.
          6    2    1    2  501    0  0.22125719142E+02 -0.11478361641E+03 -0.62371636199E+03  0.65793000315E+03  0.17373820186E+03 0.  0.
         24    2    3    3    0    0 -0.28025373356E+02 -0.18041281692E+01 -0.29913223478E+03  0.31057364078E+03  0.78658858575E+02 0.  0.
         -6    2    1    2    0  502 -0.22125719142E+02  0.11478361641E+03  0.64910176614E+02  0.21848074916E+03  0.17278796452E+03 0.  0.
        -24    2    5    5    0    0  0.46513380672E+02  0.56347775708E+02  0.82316214665E+00  0.10777705038E+03  0.79225302671E+02 0.  0.
          5    1    3    3  501    0  0.50151092498E+02 -0.11297948824E+03 -0.32458412721E+03  0.34735636237E+03  0.47000000000E+01 0. -1.
        -13    1    4    4    0    0  0.31073549038E+01 -0.35690184077E+01 -0.26217929445E+03  0.26222199753E+03  0.00000000000E+00 0.  1.
         14    1    4    4    0    0 -0.31132728260E+02  0.17648902386E+01 -0.36952940327E+02  0.48351643254E+02  0.00000000000E+00 0. -1.
         -5    1    5    5    0  502 -0.68639099813E+02  0.58435840698E+02  0.64087014467E+02  0.11070369878E+03  0.47000000000E+01 0.  1.
         11    1    6    6    0    0  0.30526035189E+02  0.33802801194E+02  0.39466905447E+02  0.60266946318E+02  0.00000000000E+00 0. -1.
        -12    1    6    6    0    0  0.15987345482E+02  0.22544974515E+02 -0.38643743301E+02  0.47510104059E+02  0.00000000000E+00 0.  1.
</event>
<event>
12    1  0.8416569E-002  0.2110475E+03  0.7818608E-02  0.1141181E+00
         21   -1    0    0  503  502  0.00000000000E+00  0.00000000000E+00  0.15937844289E+04  0.15937844289E+04  0.00000000000E+00 0.  1.
         21   -1    0    0  501  503 -0.00000000000E+00 -0.00000000000E+00 -0.99710127873E+02  0.99710127873E+02  0.00000000000E+00 0.  1.
          6    2    1    2  501    0  0.11246667318E+03 -0.36164571302E+02  0.28317620509E+02  0.21293880988E+03  0.17488401964E+03 0.  0.
         24    2    3    3    0    0  0.14859111355E+03 -0.25280376067E+02  0.10366806353E+02  0.17089404056E+03  0.79867928379E+02 0.  0.
         -6    2    1    2    0  502 -0.11246667318E+03  0.36164571302E+02  0.14657566806E+04  0.14805557469E+04  0.17218026715E+03 0.  0.
        -24    2    5    5    0    0 -0.33018596417E+02  0.53982130222E+02  0.11456706127E+04  0.11502427996E+04  0.80579446865E+02 0.  0.
          5    1    3    3  501    0 -0.36124440372E+02 -0.10884195235E+02  0.17950814155E+02  0.42044769317E+02  0.47000000000E+01 0. -1.
        -13    1    4    4    0    0  0.89991173773E+02 -0.50041955397E+01  0.44059544692E+02  0.10032296252E+03  0.00000000000E+00 0.  1.
         14    1    4    4    0    0  0.58599939780E+02 -0.20276180528E+02 -0.33692738338E+02  0.70571078040E+02  0.00000000000E+00 0. -1.
         -5    1    5    5    0  502 -0.79448076765E+02 -0.17817558920E+02  0.32008606789E+03  0.33031294732E+03  0.47000000000E+01 0.  1.
         11    1    6    6    0    0 -0.11807416833E+01 -0.80550706480E+01  0.12429094093E+02  0.14858017837E+02  0.00000000000E+00 0. -1.
        -12    1    6    6    0    0 -0.31837854733E+02  0.62037200870E+02  0.11332415186E+04  0.11353847818E+04  0.00000000000E+00 0.  1.
</event>
<event>
12    1  0.8416569E-002  0.1922601E+03  0.7818608E-02  0.1157093E+00
         21   -1    0    0  503  502  0.00000000000E+00  0.00000000000E+00  0.59906452315E+03  0.59906452315E+03  0.00000000000E+00 0. -1.
         21   -1    0    0  501  503 -0.00000000000E+00 -0.00000000000E+00 -0.10928922687E+03  0.10928922687E+03  0.00000000000E+00 0. -1.
          6    2    1    2  501    0  0.25209583652E+02 -0.70100980474E+02  0.99436748772E+01  0.19251707305E+03  0.17724072944E+03 0.  0.
         24    2    3    3    0    0  0.41380929681E+02  0.95239072745E+01  0.42229112206E+02  0.10496095022E+03  0.86199866600E+02 0.  0.
         -6    2    1    2    0  502 -0.25209583652E+02  0.70100980474E+02  0.47983162140E+03  0.51583667697E+03  0.17406729115E+03 0.  0.
        -24    2    5    5    0    0  0.51452510077E+02  0.47211342909E+02  0.29395177653E+03  0.31341528766E+03  0.83338010078E+02 0.  0.
          5    1    3    3  501    0 -0.16171346028E+02 -0.79624887749E+02 -0.32285437329E+02  0.87556122829E+02  0.47000000000E+01 0. -1.
        -13    1    4    4    0    0 -0.48954161394E+01  0.36668654192E+02  0.34816725423E+02  0.50801177827E+02  0.00000000000E+00 0.  1.
         14    1    4    4    0    0  0.46276345820E+02 -0.27144746917E+02  0.74123867831E+01  0.54159772391E+02  0.00000000000E+00 0. -1.
         -5    1    5    5    0  502 -0.76662093730E+02  0.22889637565E+02  0.18587984487E+03  0.20242138931E+03  0.47000000000E+01 0.  1.
         13    1    6    6    0    0  0.33268128925E+02  0.70234632349E+02  0.23588940139E+03  0.24836159460E+03  0.00000000000E+00 0. -1.
        -14    1    6    6    0    0  0.18184381152E+02 -0.23023289440E+02  0.58062375140E+02  0.65053693065E+02  0.00000000000E+00 0.  1.
</event>
<event>
12    1  0.8416569E-002  0.2073964E+03  0.7818608E-02  0.1143766E+00
         21   -1    0    0  503  502  0.00000000000E+00  0.00000000000E+00  0.66004064853E+03  0.66004064853E+03  0.00000000000E+00 0.  1.
         21   -1    0    0  501  503 -0.00000000000E+00 -0.00000000000E+00 -0.14365306282E+03  0.14365306282E+03  0.00000000000E+00 0.  1.
          6    2    1    2  501    0  0.10955081065E+03  0.35506532185E+02 -0.39360710344E+02  0.21050786042E+03  0.17176204423E+03 0.  0.
         24    2    3    3    0    0  0.97816620329E+01 -0.10789158138E+02  0.23008561704E+02  0.83980432350E+02  0.79443264413E+02 0.  0.
         -6    2    1    2    0  502 -0.10955081065E+03 -0.35506532185E+02  0.55574829605E+03  0.59318585092E+03  0.17248533627E+03 0.  0.
        -24    2    5    5    0    0 -0.68239604214E+02  0.27363598919E+02  0.18308591980E+03  0.21297721631E+03  0.80208668534E+02 0.  0.
          5    1    3    3  501    0  0.99769148621E+02  0.46295690322E+02 -0.62369272048E+02  0.12652742807E+03  0.47000000000E+01 0. -1.
        -13    1    4    4    0    0 -0.56593062715E+01  0.18766924073E+02 -0.21025067633E+02  0.28745063152E+02  0.00000000000E+00 0.  1.
         14    1    4    4    0    0  0.15440968304E+02 -0.29556082211E+02  0.44033629337E+02  0.55235369198E+02  0.00000000000E+00 0. -1.
         -5    1    5    5    0  502 -0.41311206440E+02 -0.62870131104E+02  0.37266237625E+03  0.38020863461E+03  0.47000000000E+01 0.  1.
         11    1    6    6    0    0  0.10623263011E+02 -0.10335890537E+02  0.70051436991E+01  0.16393791155E+02  0.00000000000E+00 0. -1.
        -12    1    6    6    0    0 -0.78862867224E+02  0.37699489457E+02  0.17608077611E+03  0.19658342516E+03  0.00000000000E+00 0.  1.
</event>
<event>
12    1  0.8416569E-002  0.2703773E+03  0.7818608E-02  0.1102003E+00
         21   -1    0    0  503  502  0.00000000000E+00  0.00000000000E+00  0.15861998358E+03  0.15861998358E+03  0.00000000000E+00 0. -1.
         21   -1    0    0  501  503 -0.00000000000E+00 -0.00000000000E+00 -0.84136923542E+03  0.84136923542E+03  0.00000000000E+00 0.  1.
          6    2    1    2  501    0  0.16311966721E+03 -0.12916414456E+03  0.18928775162E+01  0.26389225803E+03  0.16230877607E+03 0.  0.
         24    2    3    3    0    0  0.16369297421E+03 -0.15132872533E+03 -0.11763298106E+02  0.23743137266E+03  0.80867228382E+02 0.  0.
         -6    2    1    2    0  502 -0.16311966721E+03  0.12916414456E+03 -0.68464212935E+03  0.73609696097E+03  0.17266293349E+03 0.  0.
        -24    2    5    5    0    0 -0.20896295779E+02  0.22616643354E+02 -0.31154742411E+03  0.32281545101E+03  0.78739127570E+02 0.  0.
          5    1    3    3  501    0 -0.57330700024E+00  0.22164580769E+02  0.13656175623E+02  0.26460885363E+02  0.47000000000E+01 0. -1.
        -11    1    4    4    0    0  0.12981148852E+03 -0.10164963518E+03 -0.41977402086E+02  0.17013457370E+03  0.00000000000E+00 0.  1.
         12    1    4    4    0    0  0.33881485693E+02 -0.49679090152E+02  0.30214103979E+02  0.67296798961E+02  0.00000000000E+00 0. -1.
         -5    1    5    5    0  502 -0.14222337143E+03  0.10654750121E+03 -0.37309470525E+03  0.41328150996E+03  0.47000000000E+01 0.  1.
         11    1    6    6    0    0 -0.14556129283E+02  0.52250932649E+02 -0.19937600550E+03  0.20662243932E+03  0.00000000000E+00 0. -1.
        -12    1    6    6    0    0 -0.63401664958E+01 -0.29634289295E+02 -0.11217141861E+03  0.11619301169E+03  0.00000000000E+00 0.  1.
</event>
<event>
12    1  0.8416569E-002  0.1911472E+03  0.7818608E-02  0.1158227E+00
         21   -1    0    0  501  502  0.00000000000E+00  0.00000000000E+00  0.24407257292E+03  0.24407257292E+03  0.00000000000E+00 0. -1.
         21   -1    0    0  502  503 -0.00000000000E+00 -0.00000000000E+00 -0.61711861874E+03  0.61711861874E+03  0.00000000000E+00 0. -1.
         -6    2    1    2    0  503  0.62924135216E+02 -0.52639910533E+02 -0.56195296111E+03  0.59244768889E+03  0.16873863398E+03 0.  0.
        -24    2    3    3    0    0  0.63640327987E+02 -0.20831189444E+02 -0.54710890581E+03  0.55702532805E+03  0.80405419437E+02 0.  0.
          6    2    1    2  501    0 -0.62924135216E+02  0.52639910533E+02  0.18890691529E+03  0.26874350278E+03  0.17264657733E+03 0.  0.
         24    2    5    5    0    0  0.31011863018E+02  0.46290328973E+02  0.98653359183E+02  0.13823647867E+03  0.79197907503E+02 0.  0.
          5    1    5    5  501    0 -0.93935998234E+02  0.63495815604E+01  0.90253556111E+02  0.13050702411E+03  0.47000000000E+01 0. -1.
        -13    1    6    6    0    0  0.38691229759E+02  0.20502562477E+02  0.90934565892E+01  0.44721999968E+02  0.00000000000E+00 0.  1.
         14    1    6    6    0    0 -0.76793667410E+01  0.25787766496E+02  0.89559902594E+02  0.93514478702E+02  0.00000000000E+00 0. -1.
         -5    1    3    3    0  503 -0.71619277123E+00 -0.31808721090E+02 -0.14844055298E+02  0.35422360835E+02  0.47000000000E+01 0.  1.
         11    1    4    4    0    0  0.17098158874E+02 -0.39167796948E+02 -0.12810267015E+03  0.13504353911E+03  0.00000000000E+00 0. -1.
        -12    1    4    4    0    0  0.46542169113E+02  0.18336607504E+02 -0.41900623566E+03  0.42198178894E+03  0.00000000000E+00 0.  1.
</event>
<event>
12    1  0.8416569E-002  0.1933018E+03  0.7818608E-02  0.1156538E+00
         21   -1    0    0  501  502  0.00000000000E+00  0.00000000000E+00  0.47257978739E+03  0.47257978739E+03  0.00000000000E+00 0. -1.
         21   -1    0    0  502  503 -0.00000000000E+00 -0.00000000000E+00 -0.12405906821E+03  0.12405906821E+03  0.00000000000E+00 0.  1.
         -6    2    1    2    0  503 -0.36481066331E+02  0.69297387389E+02 -0.10356429649E+02  0.18901354788E+03  0.17171450011E+03 0.  0.
        -24    2    3    3    0    0 -0.82293048698E+02  0.18023330422E+02 -0.22318385504E+02  0.11906395864E+03  0.81124161708E+02 0.  0.
          6    2    1    2  501    0  0.36481066331E+02 -0.69297387389E+02  0.35887714883E+03  0.40762530773E+03  0.17672743829E+03 0.  0.
         24    2    5    5    0    0  0.46113374289E+02  0.27299889872E+02  0.17934703113E+03  0.20347592983E+03  0.79783263732E+02 0.  0.
          5    1    5    5  501    0 -0.96323079579E+01 -0.96597277261E+02  0.17953011771E+03  0.20414937789E+03  0.47000000000E+01 0. -1.
        -11    1    6    6    0    0  0.50462138348E+02  0.24430173741E+02  0.53416337637E+02  0.77437496875E+02  0.00000000000E+00 0.  1.
         12    1    6    6    0    0 -0.43487640593E+01  0.28697161309E+01  0.12593069349E+03  0.12603843296E+03  0.00000000000E+00 0. -1.
         -5    1    3    3    0  503  0.45811982367E+02  0.51274056967E+02  0.11961955855E+02  0.69949589235E+02  0.47000000000E+01 0.  1.
         13    1    4    4    0    0 -0.99747206575E+01  0.37245894350E+02  0.60646391114E+01  0.39032442221E+02  0.00000000000E+00 0. -1.
        -14    1    4    4    0    0 -0.72318328041E+02 -0.19222563928E+02 -0.28383024615E+02  0.80031516423E+02  0.00000000000E+00 0.  1.
</event>
<event>
12    1  0.8416569E-002  0.1739060E+03  0.7818608E-02  0.1173978E+00
         21   -1    0    0  501  502  0.00000000000E+00  0.00000000000E+00  0.12282669917E+03  0.12282669917E+03  0.00000000000E+00 0. -1.
         21   -1    0    0  502  503 -0.00000000000E+00 -0.00000000000E+00 -0.25650816849E+03  0.25650816849E+03  0.00000000000E+00 0. -1.
         -6    2    1    2    0  503 -0.10511992595E+02 -0.17197291838E+02 -0.27527699083E+02  0.17607119802E+03  0.17273402595E+03 0.  0.
        -24    2    3    3    0    0 -0.27479196629E+02 -0.39422767524E+02  0.41040343349E+02  0.10187197818E+03  0.79901998152E+02 0.  0.
          6    2    1    2  501    0  0.10511992595E+02  0.17197291838E+02 -0.10615377024E+03  0.20326366964E+03  0.17216633708E+03 0.  0.
         24    2    5    5    0    0  0.14393120025E+02  0.79755293915E+02 -0.52867788598E+02  0.12086189409E+03  0.72419096658E+02 0.  0.
          5    1    5    5  501    0 -0.38811274296E+01 -0.62558002077E+02 -0.53285981645E+02  0.82401775550E+02  0.47000000000E+01 0. -1.
        -11    1    6    6    0    0 -0.23920551753E+02  0.45879917887E+02 -0.46053417338E+02  0.69268152206E+02  0.00000000000E+00 0.  1.
         12    1    6    6    0    0  0.38313671778E+02  0.33875376027E+02 -0.68143712601E+01  0.51593741886E+02  0.00000000000E+00 0. -1.
         -5    1    3    3    0  503  0.16967204033E+02  0.22225475687E+02 -0.68568042431E+02  0.74199219841E+02  0.47000000000E+01 0.  1.
         13    1    4    4    0    0 -0.10412198064E+02  0.22438099008E+02 -0.16597032154E+01  0.24791869038E+02  0.00000000000E+00 0. -1.
        -14    1    4    4    0    0 -0.17066998565E+02 -0.61860866532E+02  0.42700046564E+02  0.77080109138E+02  0.00000000000E+00 0.  1.
</event>
<event>
12    1  0.8416569E-002  0.1735889E+03  0.7818608E-02  0.1174222E+00
         21   -1    0    0  501  502  0.00000000000E+00  0.00000000000E+00  0.35791356035E+02  0.35791356035E+02  0.00000000000E+00 0.  1.
         21   -1    0    0  502  503 -0.00000000000E+00 -0.00000000000E+00 -0.10625366268E+04  0.10625366268E+04  0.00000000000E+00 0.  1.
         -6    2    1    2    0  503  0.21352107163E+02 -0.35161016891E+01 -0.76463283779E+03  0.78408958750E+03  0.17223480820E+03 0.  0.
        -24    2    3    3    0    0  0.65978399484E+02  0.28609673578E+02 -0.62764814266E+03  0.63640591169E+03  0.76802544396E+02 0.  0.
          6    2    1    2  501    0 -0.21352107163E+02  0.35161016891E+01 -0.26211243302E+03  0.31423839537E+03  0.17197257378E+03 0.  0.
         24    2    5    5    0    0  0.49825305941E+02  0.28476854918E+02 -0.16568206960E+03  0.19172240325E+03  0.77546368976E+02 0.  0.
          5    1    5    5  501    0 -0.71177413104E+02 -0.24960753229E+02 -0.96430363417E+02  0.12251599213E+03  0.47000000000E+01 0. -1.
        -11    1    6    6    0    0  0.49365625482E+02 -0.16063298291E+02 -0.90941159166E+02  0.10471527568E+03  0.00000000000E+00 0.  1.
         12    1    6    6    0    0  0.45968045937E+00  0.44540153209E+02 -0.74740910434E+02  0.87007127562E+02  0.00000000000E+00 0. -1.
         -5    1    3    3    0  503 -0.44626292321E+02 -0.32125775268E+02 -0.13698469513E+03  0.14768367582E+03  0.47000000000E+01 0.  1.
         11    1    4    4    0    0  0.18176250843E+02  0.14803246041E+01 -0.23418660862E+02  0.29681663232E+02  0.00000000000E+00 0. -1.
        -12    1    4    4    0    0  0.47802148641E+02  0.27129348974E+02 -0.60422948180E+03  0.60672424845E+03  0.00000000000E+00 0.  1.
</event>
<event>
12    1  0.8416569E-002  0.1744444E+03  0.7818608E-02  0.1174401E+00
         21   -1    0    0  503  502  0.00000000000E+00  0.00000000000E+00  0.40990764991E+02  0.40990764991E+02  0.00000000000E+00 0.  1.
         21   -1    0    0  501  503 -0.00000000000E+00 -0.00000000000E+00 -0.77408696093E+03  0.77408696093E+03  0.00000000000E+00 0.  1.
          6    2    1    2  501    0  0.77110476918E+01 -0.24092190508E+02 -0.46587632843E+03  0.49595814236E+03  0.16820770401E+03 0.  0.
         24    2    3    3    0    0  0.13300047660E+02 -0.79700797767E+02 -0.33359188247E+03  0.35227509268E+03  0.79278549719E+02 0.  0.
         -6    2    1    2    0  502 -0.77110476918E+01  0.24092190508E+02 -0.26721986751E+03  0.31911958355E+03  0.17260057102E+03 0.  0.
        -24    2    5    5    0    0 -0.48289004130E+02  0.51583478111E+02 -0.21384956267E+03  0.24650539154E+03  0.10020274184E+03 0.  0.
          5    1    3    3  501    0 -0.55889999677E+01  0.55608607259E+02 -0.13228444596E+03  0.14368304968E+03  0.47000000000E+01 0. -1.
        -11    1    4    4    0    0  0.25901143440E+02 -0.67111383800E+02 -0.32430422203E+03  0.33218674792E+03  0.00000000000E+00 0.  1.
         12    1    4    4    0    0 -0.12601095780E+02 -0.12589413967E+02 -0.92876604324E+01  0.20088344760E+02  0.00000000000E+00 0. -1.
         -5    1    5    5    0  502  0.40577956438E+02 -0.27491287603E+02 -0.53370304844E+02  0.72614192014E+02  0.47000000000E+01 0.  1.
         13    1    6    6    0    0 -0.71027035748E+01 -0.29047222843E+02 -0.34929683251E+02  0.45981217089E+02  0.00000000000E+00 0. -1.
        -14    1    6    6    0    0 -0.41186300555E+02  0.80630700954E+02 -0.17891987941E+03  0.20052417445E+03  0.00000000000E+00 0.  1.
</event>
<event>
12    1  0.8416569E-002  0.1804572E+03  0.7818608E-02  0.1167361E+00
         21   -1    0    0  501  502  0.00000000000E+00  0.00000000000E+00  0.10875041463E+03  0.10875041463E+03  0.00000000000E+00 0. -1.
         21   -1    0    0  502  503 -0.00000000000E+00 -0.00000000000E+00 -0.46454450550E+03  0.46454450550E+03  0.00000000000E+00 0. -1.
         -6    2    1    2    0  503  0.20459425772E+02 -0.52459416182E+02 -0.34878386713E+03  0.39270216610E+03  0.17144744629E+03 0.  0.
        -24    2    3    3    0    0  0.57096562228E+02 -0.79949741060E+02 -0.19689999954E+03  0.23399237760E+03  0.79566603828E+02 0.  0.
          6    2    1    2  501    0 -0.20459425772E+02  0.52459416182E+02 -0.70102237452E+01  0.18059275403E+03  0.17144684635E+03 0.  0.
         24    2    5    5    0    0  0.90509258446E+01  0.25117854594E+02  0.59301660247E+02  0.10288961509E+03  0.79729292656E+02 0.  0.
          5    1    5    5  501    0 -0.29510351617E+02  0.27341561588E+02 -0.66311883993E+02  0.77703138941E+02  0.47000000000E+01 0. -1.
        -11    1    6    6    0    0  0.71837128039E+00 -0.26010423304E+02  0.26984999359E+01  0.26159894489E+02  0.00000000000E+00 0.  1.
         12    1    6    6    0    0  0.83325545642E+01  0.51128277898E+02  0.56603160312E+02  0.76729720602E+02  0.00000000000E+00 0. -1.
         -5    1    3    3    0  503 -0.36637136456E+02  0.27490324878E+02 -0.15188386759E+03  0.15870978850E+03  0.47000000000E+01 0.  1.
         11    1    4    4    0    0 -0.17067900666E+02 -0.43807081229E+01 -0.49204166120E+02  0.52264268868E+02  0.00000000000E+00 0. -1.
        -12    1    4    4    0    0  0.74164462894E+02 -0.75569032937E+02 -0.14769583342E+03  0.18172810874E+03  0.00000000000E+00 0.  1.
</event>
<event>
12    1  0.8416569E-002  0.2028923E+03  0.7818608E-02  0.1147424E+00
         21   -1    0    0  501  502  0.00000000000E+00  0.00000000000E+00  0.56137297776E+03  0.56137297776E+03  0.00000000000E+00 0. -1.
         21   -1    0    0  502  503 -0.00000000000E+00 -0.00000000000E+00 -0.14018699298E+03  0.14018699298E+03  0.00000000000E+00 0. -1.
         -6    2    1    2    0  503 -0.85209161220E+02 -0.67301672188E+02 -0.31842408809E+02  0.20537583255E+03  0.17139188243E+03 0.  0.
        -24    2    3    3    0    0  0.19021765214E+02 -0.57717479560E+02 -0.11242581930E+02  0.98593878828E+02  0.76819413531E+02 0.  0.
          6    2    1    2  501    0  0.85209161220E+02  0.67301672188E+02  0.45302839359E+03  0.49618413819E+03  0.17080356366E+03 0.  0.
         24    2    5    5    0    0  0.10523920139E+03  0.49792262832E+02  0.21631090704E+03  0.25792998742E+03  0.78631488323E+02 0.  0.
          5    1    5    5  501    0 -0.20030040169E+02  0.17509409356E+02  0.23671748655E+03  0.23825415078E+03  0.47000000000E+01 0. -1.
        -13    1    6    6    0    0 -0.66751792279E+01 -0.88618382836E+00 -0.23398551636E+01  0.71286928457E+01  0.00000000000E+00 0.  1.
         14    1    6    6    0    0  0.11191438062E+03  0.50678446660E+02  0.21865076221E+03  0.25080129457E+03  0.00000000000E+00 0. -1.
         -5    1    3    3    0  503 -0.10423092643E+03 -0.95841926278E+01 -0.20599826878E+02  0.10678195372E+03  0.47000000000E+01 0.  1.
         11    1    4    4    0    0  0.76741399062E+01 -0.55576645412E+02 -0.39135522982E+02  0.68405007841E+02  0.00000000000E+00 0. -1.
        -12    1    4    4    0    0  0.11347625308E+02 -0.21408341482E+01  0.27892941052E+02  0.30188870988E+02  0.00000000000E+00 0.  1.
</event>
<event>
12    1  0.8416569E-002  0.1770833E+03  0.7818608E-02  0.1170673E+00
         21   -1    0    0  503  502  0.00000000000E+00  0.00000000000E+00  0.43042916682E+03  0.43042916682E+03  0.00000000000E+00 0.  1.
         21   -1    0    0  501  503 -0.00000000000E+00 -0.00000000000E+00 -0.21046758668E+03  0.21046758668E+03  0.00000000000E+00 0.  1.
          6    2    1    2  501    0 -0.33284677885E+02 -0.18513923734E+02 -0.14916952995E+03  0.23148707556E+03  0.17287013141E+03 0.  0.
         24    2    3    3    0    0  0.35909545482E+02 -0.99814414185E+01 -0.29154566878E+02  0.92611861204E+02  0.79610573647E+02 0.  0.
         -6    2    1    2    0  502  0.33284677885E+02  0.18513923734E+02  0.36913111009E+03  0.40940967794E+03  0.17293892794E+03 0.  0.
        -24    2    5    5    0    0  0.28954815456E+02 -0.14862600286E+02  0.73296475763E+02  0.11162962331E+03  0.77649991736E+02 0.  0.
          5    1    3    3  501    0 -0.69194223367E+02 -0.85324823159E+01 -0.12001496307E+03  0.13887521436E+03  0.47000000000E+01 0. -1.
        -13    1    4    4    0    0  0.25614516991E+02 -0.44729902494E+02 -0.14760785021E+02  0.53616680542E+02  0.00000000000E+00 0.  1.
         14    1    4    4    0    0  0.10295028490E+02  0.34748461076E+02 -0.14393781858E+02  0.38995180663E+02  0.00000000000E+00 0. -1.
         -5    1    5    5    0  502  0.43298624288E+01  0.33376524020E+02  0.29583463433E+03  0.29778005462E+03  0.47000000000E+01 0.  1.
         13    1    6    6    0    0  0.14446687383E+02 -0.30537207433E+02  0.81907618293E+02  0.88600709639E+02  0.00000000000E+00 0. -1.
        -14    1    6    6    0    0  0.14508128073E+02  0.15674607147E+02 -0.86111425294E+01  0.23028913675E+02  0.00000000000E+00 0.  1.
</event>
<event>
12    1  0.8416569E-002  0.2823601E+03  0.7818608E-02  0.1094460E+00
         21   -1    0    0  501  502  0.00000000000E+00  0.00000000000E+00  0.76085803304E+03  0.76085803304E+03  0.00000000000E+00 0.  1.
         21   -1    0    0  502  503 -0.00000000000E+00 -0.00000000000E+00 -0.10508274003E+03  0.10508274003E+03  0.00000000000E+00 0. -1.
         -6    2    1    2    0  503 -0.12397715864E+03 -0.18602768605E+03  0.35621975630E+03  0.45455444673E+03  0.17248360622E+03 0.  0.
        -24    2    3    3    0    0 -0.11252950489E+03 -0.10461697712E+03  0.14033273259E+03  0.22349590584E+03  0.81544728348E+02 0.  0.
          6    2    1    2  501    0  0.12397715864E+03  0.18602768605E+03  0.29955553670E+03  0.41138632634E+03  0.17183874443E+03 0.  0.
         24    2    5    5    0    0  0.85656860302E+02  0.78887265799E+02  0.25013497891E+03  0.28724126422E+03  0.79873260690E+02 0.  0.
          5    1    5    5  501    0  0.38320298333E+02  0.10714042025E+03  0.49420557794E+02  0.12414506212E+03  0.47000000000E+01 0. -1.
        -13    1    6    6    0    0  0.76843983320E+02  0.69456537059E+02  0.12908809784E+03  0.16550814275E+03  0.00000000000E+00 0.  1.
         14    1    6    6    0    0  0.88128769822E+01  0.94307287394E+01  0.12104688107E+03  0.12173312147E+03  0.00000000000E+00 0. -1.
         -5    1    3    3    0  503 -0.11447653744E+02 -0.81410708936E+02  0.21588702371E+03  0.23105854088E+03  0.47000000000E+01 0.  1.
         13    1    4    4    0    0 -0.34924137180E+02 -0.54701510143E+01  0.53028801338E+00  0.35353912305E+02  0.00000000000E+00 0. -1.
        -14    1    4    4    0    0 -0.77605367711E+02 -0.99146826102E+02  0.13980244458E+03  0.18814199354E+03  0.00000000000E+00 0.  1.
</event>
<event>
12    1  0.8416569E-002  0.1832036E+03  0.7818608E-02  0.1164909E+00
         21   -1    0    0  501  502  0.00000000000E+00  0.00000000000E+00  0.18453826725E+03  0.18453826725E+03  0.00000000000E+00 0. -1.
         21   -1    0    0  502  503 -0.00000000000E+00 -0.00000000000E+00 -0.43497480299E+03  0.43497480299E+03  0.00000000000E+00 0. -1.
         -6    2    1    2    0  503  0.62368323097E+02  0.14369813675E+02 -0.36173127557E+03  0.40515336134E+03  0.17089011443E+03 0.  0.
        -24    2    3    3    0    0  0.79770420442E+02  0.53467627861E+02 -0.31568136832E+03  0.34211245380E+03  0.90355395698E+02 0.  0.
          6    2    1    2  501    0 -0.62368323097E+02 -0.14369813675E+02  0.11129473983E+03  0.21435970890E+03  0.17166032277E+03 0.  0.
         24    2    5    5    0    0 -0.40456718543E+02 -0.27113889373E+02 -0.62670185676E+01  0.94004455930E+02  0.80160171785E+02 0.  0.
          5    1    5    5  501    0 -0.21911604554E+02  0.12744075697E+02  0.11756175840E+03  0.12035525297E+03  0.47000000000E+01 0. -1.
        -13    1    6    6    0    0 -0.29084904469E+02  0.23081439209E+01 -0.38895183911E+02  0.48621955204E+02  0.00000000000E+00 0.  1.
         14    1    6    6    0    0 -0.11371814074E+02 -0.29422033294E+02  0.32628165343E+02  0.45382500726E+02  0.00000000000E+00 0. -1.
         -5    1    3    3    0  503 -0.17402097345E+02 -0.39097814186E+02 -0.46049907249E+02  0.63040907542E+02  0.47000000000E+01 0.  1.
         13    1    4    4    0    0  0.20147590034E+02 -0.79726580063E+01 -0.18253198545E+03  0.18381353153E+03  0.00000000000E+00 0. -1.
        -14    1    4    4    0    0  0.59622830408E+02  0.61440285867E+02 -0.13314938287E+03  0.15829892227E+03  0.00000000000E+00 0.  1.
</event>
<event>
12    1  0.8416569E-002  0.1923489E+03  0.7818608E-02  0.1158375E+00
         21   -1    0    0  501  502  0.00000000000E+00  0.00000000000E+00  0.14300265600E+03  0.14300265600E+03  0.00000000000E+00 0. -1.
         21   -1    0    0  502  503 -0.00000000000E+00 -0.00000000000E+00 -0.59445373383E+03  0.59445373383E+03  0.00000000000E+00 0. -1.
         -6    2    1    2    0  503 -0.49513419882E+02 -0.42190204637E+02 -0.50540417906E+03  0.53768393192E+03  0.17157807063E+03 0.  0.
        -24    2    3    3    0    0  0.21347578459E+02 -0.44575358194E+01 -0.37737596692E+03  0.38649415553E+03  0.80557576419E+02 0.  0.
          6    2    1    2  501    0  0.49513419882E+02  0.42190204637E+02  0.53953101227E+02  0.19977245791E+03  0.18101520845E+03 0.  0.
         24    2    5    5    0    0  0.97815219387E+02  0.29065000826E+02  0.42668376243E+01  0.12908901146E+03  0.78950462701E+02 0.  0.
          5    1    5    5  501    0 -0.48301799505E+02  0.13125203811E+02  0.49686263603E+02  0.70683446445E+02  0.47000000000E+01 0. -1.
        -13    1    6    6    0    0  0.11668709454E+02 -0.19227583039E+02 -0.16842954750E+02  0.28098823010E+02  0.00000000000E+00 0.  1.
         14    1    6    6    0    0  0.86146509933E+02  0.48292583865E+02  0.21109792374E+02  0.10099018845E+03  0.00000000000E+00 0. -1.
         -5    1    3    3    0  503 -0.70860998341E+02 -0.37732668818E+02 -0.12802821214E+03  0.15118977639E+03  0.47000000000E+01 0.  1.
         13    1    4    4    0    0 -0.17830411904E+02  0.19061912065E+01 -0.28967573505E+03  0.29023023383E+03  0.00000000000E+00 0. -1.
        -14    1    4    4    0    0  0.39177990363E+02 -0.63637270259E+01 -0.87700231868E+02  0.96263921696E+02  0.00000000000E+00 0.  1.
</event>
<event>
12    1  0.8416569E-002  0.1937444E+03  0.7818608E-02  0.1155166E+00
         21   -1    0    0  501  502  0.00000000000E+00  0.00000000000E+00  0.31530619119E+03  0.31530619119E+03  0.00000000000E+00 0.  1.
         21   -1    0    0  502  503 -0.00000000000E+00 -0.00000000000E+00 -0.11977484010E+03  0.11977484010E+03  0.00000000000E+00 0.  1.
         -6    2    1    2    0  503 -0.26949453703E+02 -0.84879484176E+02  0.79570657222E+02  0.20928520274E+03  0.17186624656E+03 0.  0.
        -24    2    3    3    0    0 -0.51044582040E+02  0.59056087012E+01  0.62579869537E+02  0.11371698017E+03  0.79842882831E+02 0.  0.
          6    2    1    2  501    0  0.26949453703E+02  0.84879484176E+02  0.11596069387E+03  0.22579582855E+03  0.17206415600E+03 0.  0.
         24    2    5    5    0    0  0.62176799936E+02  0.10200038920E+03  0.11782806191E+03  0.18630319158E+03  0.80965382563E+02 0.  0.
          5    1    5    5  501    0 -0.35227346233E+02 -0.17120905025E+02 -0.18673680325E+01  0.39492636970E+02  0.47000000000E+01 0. -1.
        -11    1    6    6    0    0  0.24693613504E+02  0.74212472307E+02  0.24499012697E+02  0.81960156277E+02  0.00000000000E+00 0.  1.
         12    1    6    6    0    0  0.37483186432E+02  0.27787916894E+02  0.93329049208E+02  0.10434303530E+03  0.00000000000E+00 0. -1.
         -5    1    3    3    0  503  0.24095128337E+02 -0.90785092877E+02  0.16990787686E+02  0.95568222566E+02  0.47000000000E+01 0.  1.
         11    1    4    4    0    0 -0.40950546204E+02  0.14680395557E+02 -0.59380839933E+01  0.43905832068E+02  0.00000000000E+00 0. -1.
        -12    1    4    4    0    0 -0.10094035836E+02 -0.87747868562E+01  0.68517953530E+02  0.69811148105E+02  0.00000000000E+00 0.  1.
</event>
<event>
12    1  0.8416569E-002  0.2087006E+03  0.7818608E-02  0.1143394E+00
         21   -1    0    0  503  502  0.00000000000E+00  0.00000000000E+00  0.84802915468E+02  0.84802915468E+02  0.00000000000E+00 0.  1.
         21   -1    0    0  501  503 -0.00000000000E+00 -0.00000000000E+00 -0.75503553054E+03  0.75503553054E+03  0.00000000000E+00 0.  1.
          6    2    1    2  501    0  0.10223818709E+03  0.41277024469E+02 -0.57512797352E+03  0.61048972988E+03  0.17253719807E+03 0.  0.
         24    2    3    3    0    0  0.12874051121E+03 -0.95555501072E+00 -0.38216407252E+03  0.41113296164E+03  0.80036875967E+02 0.  0.
         -6    2    1    2    0  502 -0.10223818709E+03 -0.41277024469E+02 -0.95104641551E+02  0.22934871612E+03  0.17719904372E+03 0.  0.
        -24    2    5    5    0    0 -0.12358369038E+02 -0.16826920835E+02  0.16955828463E+02  0.83554929558E+02  0.79107847806E+02 0.  0.
          5    1    3    3  501    0 -0.26502324114E+02  0.42232579480E+02 -0.19296390100E+03  0.19935676824E+03  0.47000000000E+01 0. -1.
        -13    1    4    4    0    0  0.56493373265E+02  0.11913450144E+02 -0.27663920850E+03  0.28259986411E+03  0.00000000000E+00 0.  1.
         14    1    4    4    0    0  0.72247137944E+02 -0.12869005155E+02 -0.10552486402E+03  0.12853309753E+03  0.00000000000E+00 0. -1.
         -5    1    5    5    0  502 -0.89879818057E+02 -0.24450103634E+02 -0.11206047001E+03  0.14579378657E+03  0.47000000000E+01 0.  1.
         13    1    6    6    0    0  0.31960814332E+02 -0.22405290516E+01 -0.42211169912E+01  0.32316117524E+02  0.00000000000E+00 0. -1.
        -14    1    6    6    0    0 -0.44319183370E+02 -0.14586391784E+02  0.21176945454E+02  0.51238812033E+02  0.00000000000E+00 0.  1.
</event>
<event>
12    1  0.8416569E-002  0.1788853E+03  0.7818608E-02  0.1169936E+00
         21   -1    0    0  501  502  0.00000000000E+00  0.00000000000E+00  0.14600187663E+03  0.14600187663E+03  0.00000000000E+00 0.  1.
         21   -1    0    0  502  503 -0.00000000000E+00 -0.00000000000E+00 -0.31141243783E+03  0.31141243783E+03  0.00000000000E+00 0.  1.
         -6    2    1    2    0  503  0.26614232507E+02 -0.38704105017E+02  0.45883900649E+02  0.18056544551E+03  0.16820292107E+03 0.  0.
        -24    2    3    3    0    0  0.10082191684E+02 -0.79170916438E+02  0.66807377443E+02  0.13187506574E+03  0.80982236852E+02 0.  0.
          6    2    1    2  501    0 -0.26614232507E+02  0.38704105017E+02 -0.21129446185E+03  0.27684886896E+03  0.17260828925E+03 0.  0.
         24    2    5    5    0    0 -0.71503246869E+02 -0.45656295435E+01 -0.17264043769E+03  0.20334024958E+03  0.80056087123E+02 0.  0.
          5    1    5    5  501    0  0.44889014362E+02  0.43269734561E+02 -0.38654024156E+02  0.73508619377E+02  0.47000000000E+01 0. -1.
        -11    1    6    6    0    0 -0.51322880033E+01  0.31485147273E+02 -0.50318159040E+02  0.59578284702E+02  0.00000000000E+00 0.  1.
         12    1    6    6    0    0 -0.66370958866E+02 -0.36050776816E+02 -0.12232227865E+03  0.14376196488E+03  0.00000000000E+00 0. -1.
         -5    1    3    3    0  503  0.16532040823E+02  0.40466811420E+02 -0.20923476794E+02  0.48690379763E+02  0.47000000000E+01 0.  1.
         13    1    4    4    0    0 -0.32373655549E+02 -0.33044066461E+02  0.10117312591E+02  0.47353182744E+02  0.00000000000E+00 0. -1.
        -14    1    4    4    0    0  0.42455847233E+02 -0.46126849977E+02  0.56690064852E+02  0.84521883000E+02  0.00000000000E+00 0.  1.
</event>
<event>
12    1  0.8416569E-002  0.1884674E+03  0.7818608E-02  0.1163218E+00
         21   -1    0    0  503  502  0.00000000000E+00  0.00000000000E+00  0.12004218897E+03  0.12004218897E+03  0.00000000000E+00 0.  1.
         21   -1    0    0  501  503 -0.00000000000E+00 -0.00000000000E+00 -0.30914405635E+03  0.30914405635E+03  0.00000000000E+00 0. -1.
          6    2    1    2  501    0 -0.26172749748E+02  0.52800416495E+01 -0.19035394731E+02  0.17533081154E+03  0.17223720723E+03 0.  0.
         24    2    3    3    0    0  0.10748013015E+02  0.64029046068E+02  0.18887875277E+01  0.10270506097E+03  0.79558302558E+02 0.  0.
         -6    2    1    2    0  502  0.26172749748E+02 -0.52800416495E+01 -0.17006647265E+03  0.25385543377E+03  0.18656656846E+03 0.  0.
        -24    2    5    5    0    0 -0.54416813310E+02  0.45985856338E+01 -0.57195125080E+02  0.11473571535E+03  0.83130412508E+02 0.  0.
          5    1    3    3  501    0 -0.36920762762E+02 -0.58749004419E+02 -0.20924182259E+02  0.72625750574E+02  0.47000000000E+01 0. -1.
        -13    1    4    4    0    0 -0.22802967827E+02  0.52360241603E+02 -0.20543505324E+02  0.60692716643E+02  0.00000000000E+00 0.  1.
         14    1    4    4    0    0  0.33550980842E+02  0.11668804465E+02  0.22432292852E+02  0.42012344325E+02  0.00000000000E+00 0. -1.
         -5    1    5    5    0  502  0.80589563057E+02 -0.98786272833E+01 -0.11287134757E+03  0.13911971842E+03  0.47000000000E+01 0.  1.
         11    1    6    6    0    0  0.75873932919E+01 -0.81666833038E-01 -0.51765336278E+02  0.52318498128E+02  0.00000000000E+00 0. -1.
        -12    1    6    6    0    0 -0.62004206602E+02  0.46802524669E+01 -0.54297888018E+01  0.62417217223E+02  0.00000000000E+00 0.  1.
</event>
<event>
12    1  0.8416569E-002  0.1836770E+03  0.7818608E-02  0.1166795E+00
         21   -1    0    0  503  502  0.00000000000E+00  0.00000000000E+00  0.92254733671E+02  0.92254733671E+02  0.00000000000E+00 0.  1.
         21   -1    0    0  501  503 -0.00000000000E+00 -0.00000000000E+00 -0.35394211701E+03  0.35394211701E+03  0.00000000000E+00 0.  1.
          6    2    1    2  501    0  0.39221810122E+02  0.23383419847E+02 -0.16901980572E+03  0.24960956583E+03  0.17791038731E+03 0.  0.
         24    2    3    3    0    0 -0.18681120389E+02 -0.11809234786E+02 -0.19522377871E+02  0.85405901935E+02  0.80153618523E+02 0.  0.
         -6    2    1    2    0  502 -0.39221810122E+02 -0.23383419847E+02 -0.92667577612E+02  0.19658728485E+03  0.16725473360E+03 0.  0.
        -24    2    5    5    0    0 -0.47315278797E+02 -0.62423162402E+02 -0.10622262138E+03  0.15421471181E+03  0.79771832340E+02 0.  0.
          5    1    3    3  501    0  0.57902930511E+02  0.35192654632E+02 -0.14949742785E+03  0.16420366390E+03  0.47000000000E+01 0. -1.
        -13    1    4    4    0    0  0.30497055506E+02 -0.14432838507E+01  0.22919993372E+01  0.30617098552E+02  0.00000000000E+00 0.  1.
         14    1    4    4    0    0 -0.49178175895E+02 -0.10365950935E+02 -0.21814377208E+02  0.54788803383E+02  0.00000000000E+00 0. -1.
         -5    1    5    5    0  502  0.80934686755E+01  0.39039742556E+02  0.13555043769E+02  0.42372573035E+02  0.47000000000E+01 0.  1.
         11    1    6    6    0    0  0.19085556201E+01  0.10327953431E+02 -0.47279230514E+02  0.48431754507E+02  0.00000000000E+00 0. -1.
        -12    1    6    6    0    0 -0.49223834417E+02 -0.72751115833E+02 -0.58943390867E+02  0.10578295731E+03  0.00000000000E+00 0.  1.
</event>
<event>
12    1  0.8416569E-002  0.1928621E+03  0.7818608E-02  0.1156598E+00
         21   -1    0    0  503  502  0.00000000000E+00  0.00000000000E+00  0.58438883332E+02  0.58438883332E+02  0.00000000000E+00 0. -1.
         21   -1    0    0  501  503 -0.00000000000E+00 -0.00000000000E+00 -0.73635596177E+03  0.73635596177E+03  0.00000000000E+00 0. -1.
          6    2    1    2  501    0 -0.83373707332E+02 -0.66105817142E+01 -0.18296863608E+03  0.26359832578E+03  0.17032815592E+03 0.  0.
         24    2    3    3    0    0 -0.10220062710E+03 -0.27304970354E+02 -0.19274401392E+03  0.23359234902E+03  0.78896140813E+02 0.  0.
         -6    2    1    2    0  502  0.83373707332E+02  0.66105817142E+01 -0.49494844236E+03  0.53119651933E+03  0.17378408064E+03 0.  0.
        -24    2    5    5    0    0  0.11017761911E+03  0.85082949154E+01 -0.48191339359E+03  0.50096320164E+03  0.80697655727E+02 0.  0.
          5    1    3    3  501    0  0.18826919768E+02  0.20694388640E+02  0.97753778383E+01  0.30005976755E+02  0.47000000000E+01 0. -1.
        -13    1    4    4    0    0 -0.20271235121E+02  0.16399981438E+02 -0.96071786610E+02  0.99547328175E+02  0.00000000000E+00 0.  1.
         14    1    4    4    0    0 -0.81929391979E+02 -0.43704951792E+02 -0.96672227308E+02  0.13404502085E+03  0.00000000000E+00 0. -1.
         -5    1    5    5    0  502 -0.26803911778E+02 -0.18977132012E+01 -0.13035048772E+02  0.30233317689E+02  0.47000000000E+01 0.  1.
         13    1    6    6    0    0  0.48474149043E+02  0.73499706954E+01 -0.36936847275E+03  0.37260815055E+03  0.00000000000E+00 0. -1.
        -14    1    6    6    0    0  0.61703470066E+02  0.11583242200E+01 -0.11254492084E+03  0.12835505109E+03  0.00000000000E+00 0.  1.
</event>
<event>
12    1  0.8416569E-002  0.2229082E+03  0.7818608E-02  0.1132126E+00
         21   -1    0    0  503  502  0.00000000000E+00  0.00000000000E+00  0.27412250349E+03  0.27412250349E+03  0.00000000000E+00 0.  1.
         21   -1    0    0  501  503 -0.00000000000E+00 -0.00000000000E+00 -0.18814977764E+03  0.18814977764E+03  0.00000000000E+00 0.  1.
          6    2    1    2  501    0 -0.10007836703E+03  0.97713668370E+02 -0.66820057182E+01  0.22087430232E+03  0.17081325385E+03 0.  0.
         24    2    3    3    0    0 -0.45689016992E+02  0.12266194886E+03 -0.30731724697E+02  0.15621289900E+03  0.79527296816E+02 0.  0.
         -6    2    1    2    0  502  0.10007836703E+03 -0.97713668370E+02  0.92654731573E+02  0.24139797881E+03  0.17356394890E+03 0.  0.
        -24    2    5    5    0    0  0.29740227364E+02  0.97225221449E+00  0.83552739247E+02  0.11977848581E+03  0.80500925640E+02 0.  0.
          5    1    3    3  501    0 -0.54389350035E+02 -0.24948280489E+02  0.24049718979E+02  0.64661403322E+02  0.47000000000E+01 0. -1.
        -11    1    4    4    0    0 -0.13764130712E+02  0.11362824964E+03 -0.56091853748E+01  0.11459621884E+03  0.00000000000E+00 0.  1.
         12    1    4    4    0    0 -0.31924886280E+02  0.90336992152E+01 -0.25122539323E+02  0.41616680160E+02  0.00000000000E+00 0. -1.
         -5    1    5    5    0  502  0.70338139663E+02 -0.98685920584E+02  0.91019923253E+01  0.12161949300E+03  0.47000000000E+01 0.  1.
         11    1    6    6    0    0  0.55042007790E+02 -0.58105965953E+01  0.72827804116E+02  0.91472808564E+02  0.00000000000E+00 0. -1.
        -12    1    6    6    0    0 -0.25301780426E+02  0.67828488098E+01  0.10724935131E+02  0.28305677244E+02  0.00000000000E+00 0.  1.
</event>
<event>
12    1  0.8416569E-002  0.2049505E+03  0.7818608E-02  0.1145647E+00
         21   -1    0    0  501  502  0.00000000000E+00  0.00000000000E+00  0.21066946138E+04  0.21066946138E+04  0.00000000000E+00 0.  1.
         21   -1    0    0  502  503 -0.00000000000E+00 -0.00000000000E+00 -0.20122267748E+02  0.20122267748E+02  0.00000000000E+00 0.  1.
         -6    2    1    2    0  503 -0.60869092514E+02  0.90864190914E+02  0.11474914287E+04  0.11656505766E+04  0.17333014782E+03 0.  0.
        -24    2    3    3    0    0  0.17012861391E+02  0.97103441274E+02  0.67214853683E+03  0.68390636869E+03  0.78903420797E+02 0.  0.
          6    2    1    2  501    0  0.60869092514E+02 -0.90864190914E+02  0.93908091734E+03  0.96116630495E+03  0.17322340733E+03 0.  0.
         24    2    5    5    0    0  0.26373794114E+02 -0.82124571893E+02  0.90130577771E+03  0.90905721049E+03  0.81196580413E+02 0.  0.
          5    1    5    5  501    0  0.34495298400E+02 -0.87396190211E+01  0.37775139631E+02  0.52109094470E+02  0.47000000000E+01 0. -1.
        -11    1    6    6    0    0  0.19518239542E+02  0.76447824299E+01  0.33350154890E+03  0.33415967364E+03  0.00000000000E+00 0.  1.
         12    1    6    6    0    0  0.68555545723E+01 -0.89769354323E+02  0.56780422882E+03  0.57489753684E+03  0.00000000000E+00 0. -1.
         -5    1    3    3    0  503 -0.77881953905E+02 -0.62392503602E+01  0.47534289191E+03  0.48174420794E+03  0.47000000000E+01 0.  1.
         11    1    4    4    0    0  0.41363105995E+02  0.64183384151E+02  0.54510684385E+03  0.55042881879E+03  0.00000000000E+00 0. -1.
        -12    1    4    4    0    0 -0.24350244603E+02  0.32920057123E+02  0.12704169297E+03  0.13347754990E+03  0.00000000000E+00 0.  1.
</event>
<event>
12    1  0.8416569E-002  0.2166162E+03  0.7818608E-02  0.1136541E+00
         21   -1    0    0  501  502  0.00000000000E+00  0.00000000000E+00  0.17246437868E+03  0.17246437868E+03  0.00000000000E+00 0. -1.
         21   -1    0    0  502  503 -0.00000000000E+00 -0.00000000000E+00 -0.32600999395E+03  0.32600999395E+03  0.00000000000E+00 0. -1.
         -6    2    1    2    0  503 -0.10350982871E+03 -0.80134764696E+02  0.25365534155E+02  0.21752637017E+03  0.17186752527E+03 0.  0.
        -24    2    3    3    0    0 -0.13850249629E+03 -0.43708236136E+02  0.18475217534E+02  0.16633120213E+03  0.78939114224E+02 0.  0.
          6    2    1    2  501    0  0.10350982871E+03  0.80134764696E+02 -0.17891114943E+03  0.28094800247E+03  0.17258828335E+03 0.  0.
         24    2    5    5    0    0  0.44222961989E+00  0.80780276906E+02 -0.10137705495E+03  0.15188610850E+03  0.79160810895E+02 0.  0.
          5    1    5    5  501    0  0.10306759909E+03 -0.64551221049E+00 -0.77534094476E+02  0.12906189396E+03  0.47000000000E+01 0. -1.
        -11    1    6    6    0    0 -0.38823138812E+02  0.40202552928E+02 -0.59155539177E+02  0.81380950993E+02  0.00000000000E+00 0.  1.
         12    1    6    6    0    0  0.39265368432E+02  0.40577723978E+02 -0.42221515774E+02  0.70505157511E+02  0.00000000000E+00 0. -1.
         -5    1    3    3    0  503  0.34992667581E+02 -0.36426528560E+02  0.68903166206E+01  0.51195168038E+02  0.47000000000E+01 0.  1.
         11    1    4    4    0    0 -0.11880647790E+02  0.15783322204E+02 -0.12047890287E+02  0.23139030059E+02  0.00000000000E+00 0. -1.
        -12    1    4    4    0    0 -0.12662184850E+03 -0.59491558341E+02  0.30523107821E+02  0.14319217207E+03  0.00000000000E+00 0.  1.
</event>
<event>
12    1  0.8416569E-002  0.2544654E+03  0.7818608E-02  0.1110727E+00
         21   -1    0    0  501  502  0.00000000000E+00  0.00000000000E+00  0.18361042892E+03  0.18361042892E+03  0.00000000000E+00 0. -1.
         21   -1    0    0  502  503 -0.00000000000E+00 -0.00000000000E+00 -0.51879123124E+03  0.51879123124E+03  0.00000000000E+00 0. -1.
         -6    2    1    2    0  503 -0.18499495436E+03  0.32343590873E+02 -0.36715381565E+03  0.44593546824E+03  0.16966813632E+03 0.  0.
        -24    2    3    3    0    0 -0.10920307632E+03  0.84278370021E+02 -0.25381714478E+03  0.29995971332E+03  0.80774569629E+02 0.  0.
          6    2    1    2  501    0  0.18499495436E+03 -0.32343590873E+02  0.31973013328E+02  0.25646619191E+03  0.17170728873E+03 0.  0.
         24    2    5    5    0    0  0.14199709640E+03 -0.81126142080E+02  0.51759376404E+02  0.18833291623E+03  0.77753636417E+02 0.  0.
          5    1    5    5  501    0  0.42997857960E+02  0.48782551207E+02 -0.19786363076E+02  0.68133275682E+02  0.47000000000E+01 0. -1.
        -13    1    6    6    0    0  0.17634896310E+02 -0.42774305894E+02 -0.46339012108E+01  0.46498428501E+02  0.00000000000E+00 0.  1.
         14    1    6    6    0    0  0.12436220009E+03 -0.38351836185E+02  0.56393277614E+02  0.14183448773E+03  0.00000000000E+00 0. -1.
         -5    1    3    3    0  503 -0.75791878041E+02 -0.51934779147E+02 -0.11333667087E+03  0.14597575492E+03  0.47000000000E+01 0.  1.
         13    1    4    4    0    0 -0.88187813813E+02  0.21198837144E+02 -0.17276290285E+03  0.19512432396E+03  0.00000000000E+00 0. -1.
        -14    1    4    4    0    0 -0.21015262504E+02  0.63079532876E+02 -0.81054241933E+02  0.10483538936E+03  0.00000000000E+00 0.  1.
</event>
<event>
12    1  0.8416569E-002  0.2191047E+03  0.7818608E-02  0.1134874E+00
         21   -1    0    0  503  502  0.00000000000E+00  0.00000000000E+00  0.13944912867E+04  0.13944912867E+04  0.00000000000E+00 0.  1.
         21   -1    0    0  501  503 -0.00000000000E+00 -0.00000000000E+00 -0.14168190928E+03  0.14168190928E+03  0.00000000000E+00 0.  1.
          6    2    1    2  501    0 -0.35189905683E+02  0.12732538892E+03 -0.43307336806E+02  0.22166742392E+03  0.17265815151E+03 0.  0.
         24    2    3    3    0    0 -0.77177393367E+02  0.80657439579E+02 -0.69073686597E+02  0.15364653449E+03  0.79838028371E+02 0.  0.
         -6    2    1    2    0  502  0.35189905683E+02 -0.12732538892E+03  0.12961167142E+04  0.13145057720E+04  0.17480504503E+03 0.  0.
        -24    2    5    5    0    0 -0.22048130985E+02 -0.58832702317E+01  0.39448312178E+03  0.40291945906E+03  0.78780861699E+02 0.  0.
          5    1    3    3  501    0  0.41987487684E+02  0.46667949342E+02  0.25766349791E+02  0.68020889433E+02  0.47000000000E+01 0. -1.
        -11    1    4    4    0    0  0.24276878762E+01  0.38155418272E+02  0.27222636575E+01  0.38329366436E+02  0.00000000000E+00 0.  1.
         12    1    4    4    0    0 -0.79605081243E+02  0.42502021306E+02 -0.71795950254E+02  0.11531716805E+03  0.00000000000E+00 0. -1.
         -5    1    5    5    0  502  0.57238036668E+02 -0.12144211869E+03  0.90163359242E+03  0.91158631298E+03  0.47000000000E+01 0.  1.
         11    1    6    6    0    0  0.13833044262E+02 -0.16419937511E+02  0.32139605809E+02  0.38651283587E+02  0.00000000000E+00 0. -1.
        -12    1    6    6    0    0 -0.35881175248E+02  0.10536667279E+02  0.36234351597E+03  0.36426817547E+03  0.00000000000E+00 0.  1.
</event>
<event>
12    1  0.8416569E-002  0.3188190E+03  0.7818608E-02  0.1076273E+00
         21   -1    0    0  503  502  0.00000000000E+00  0.00000000000E+00  0.75055548012E+03  0.75055548012E+03  0.00000000000E+00 0.  1.
         21   -1    0    0  501  503 -0.00000000000E+00 -0.00000000000E+00 -0.25033952469E+03  0.25033952469E+03  0.00000000000E+00 0. -1.
          6    2    1    2  501    0 -0.26330814898E+03 -0.52532743071E+02 -0.89525072360E+02  0.33049211544E+03  0.17064416009E+03 0.  0.
         24    2    3    3    0    0 -0.10258746993E+03  0.59394045843E+01  0.14176641598E+02  0.13042646571E+03  0.79060864375E+02 0.  0.
         -6    2    1    2    0  502  0.26330814898E+03  0.52532743071E+02  0.58974102779E+03  0.67040288938E+03  0.17191475742E+03 0.  0.
        -24    2    5    5    0    0  0.19933738466E+03 -0.26299883718E+02  0.42441470203E+03  0.47633659730E+03  0.79634400974E+02 0.  0.
          5    1    3    3  501    0 -0.16072067904E+03 -0.58472147655E+02 -0.10370171396E+03  0.20006564973E+03  0.47000000000E+01 0. -1.
        -13    1    4    4    0    0 -0.10585979975E+03  0.75696827216E+01  0.33085315320E+02  0.11116760045E+03  0.00000000000E+00 0.  1.
         14    1    4    4    0    0  0.32723298143E+01 -0.16302781373E+01 -0.18908673722E+02  0.19258865261E+02  0.00000000000E+00 0. -1.
         -5    1    5    5    0  502  0.63970764317E+02  0.78832626789E+02  0.16532632575E+03  0.19406629208E+03  0.47000000000E+01 0.  1.
         11    1    6    6    0    0  0.41760784409E+02  0.20362427372E+02  0.54873166680E+02  0.71900319780E+02  0.00000000000E+00 0. -1.
        -12    1    6    6    0    0  0.15757660025E+03 -0.46662311090E+02  0.36954153535E+03  0.40443627752E+03  0.00000000000E+00 0.  1.
</event>
<event>
12    1  0.8416569E-002  0.1807941E+03  0.7818608E-02  0.1167354E+00
         21   -1    0    0  503  502  0.00000000000E+00  0.00000000000E+00  0.32873874572E+03  0.32873874572E+03  0.00000000000E+00 0.  1.
         21   -1    0    0  501  503 -0.00000000000E+00 -0.00000000000E+00 -0.98738856686E+02  0.98738856686E+02  0.00000000000E+00 0.  1.
          6    2    1    2  501    0 -0.24169816588E+02  0.48064296528E+02  0.11167042488E+03  0.21250124765E+03  0.17260399713E+03 0.  0.
         24    2    3    3    0    0 -0.75213822872E+01 -0.12339947534E+02 -0.48605814500E+01  0.80110128230E+02  0.78645800246E+02 0.  0.
         -6    2    1    2    0  502  0.24169816588E+02 -0.48064296528E+02  0.11832946416E+03  0.21497635476E+03  0.17122679225E+03 0.  0.
        -24    2    5    5    0    0  0.41503817354E+02 -0.50049497019E+02  0.79946636237E+01  0.10317176267E+03  0.79705576711E+02 0.  0.
          5    1    3    3  501    0 -0.16648434301E+02  0.60404244062E+02  0.11653100633E+03  0.13239111942E+03  0.47000000000E+01 0. -1.
        -11    1    4    4    0    0  0.20374833085E+02 -0.37271504527E+02 -0.42782259978E+01  0.42691944095E+02  0.00000000000E+00 0.  1.
         12    1    4    4    0    0 -0.27896215372E+02  0.24931556992E+02 -0.58235545224E+00  0.37418184136E+02  0.00000000000E+00 0. -1.
         -5    1    5    5    0  502 -0.17334000766E+02  0.19852004910E+01  0.11033480053E+03  0.11180459209E+03  0.47000000000E+01 0.  1.
         11    1    6    6    0    0  0.55817327031E+02 -0.47840626247E+02  0.27835433296E+02  0.78607320673E+02  0.00000000000E+00 0. -1.
        -12    1    6    6    0    0 -0.14313509677E+02 -0.22088707713E+01 -0.19840769672E+02  0.24564441995E+02  0.00000000000E+00 0.  1.
</event>
<event>
12    1  0.8416569E-002  0.1922496E+03  0.7818608E-02  0.1156899E+00
         21   -1    0    0  501  502  0.00000000000E+00  0.00000000000E+00  0.53342748674E+03  0.53342748674E+03  0.00000000000E+00 0.  1.
         21   -1    0    0  502  503 -0.00000000000E+00 -0.00000000000E+00 -0.17412292034E+03  0.17412292034E+03  0.00000000000E+00 0.  1.
         -6    2    1    2    0  503 -0.63192180455E+02 -0.54454228174E+02 -0.95428996331E+02  0.21463132210E+03  0.17320911191E+03 0.  0.
        -24    2    3    3    0    0 -0.20379279549E+01 -0.39516347071E+01 -0.10873930291E+03  0.13407321384E+03  0.78304674850E+02 0.  0.
          6    2    1    2  501    0  0.63192180455E+02  0.54454228174E+02  0.45473356273E+03  0.49291908498E+03  0.17096226668E+03 0.  0.
         24    2    5    5    0    0  0.39807538680E+02 -0.34450487610E+02  0.27778456597E+03  0.29345999791E+03  0.78632239259E+02 0.  0.
          5    1    5    5  501    0  0.23384641775E+02  0.88904715784E+02  0.17694899676E+03  0.19945908707E+03  0.47000000000E+01 0. -1.
        -11    1    6    6    0    0  0.62656680146E+02 -0.18745807323E+02  0.21719654822E+03  0.22682946329E+03  0.00000000000E+00 0.  1.
         12    1    6    6    0    0 -0.22849141466E+02 -0.15704680287E+02  0.60588017744E+02  0.66630534613E+02  0.00000000000E+00 0. -1.
         -5    1    3    3    0  503 -0.61154252500E+02 -0.50502593467E+02  0.13310306581E+02  0.80558108263E+02  0.47000000000E+01 0.  1.
         11    1    4    4    0    0  0.15661968186E+02  0.33024088338E+02 -0.41285335499E+02  0.55139519270E+02  0.00000000000E+00 0. -1.
        -12    1    4    4    0    0 -0.17699896141E+02 -0.36975723045E+02 -0.67453967412E+02  0.78933694566E+02  0.00000000000E+00 0.  1.
</event>
<event>
12    1  0.8416569E-002  0.3652835E+03  0.7818608E-02  0.1056581E+00
         21   -1    0    0  503  502  0.00000000000E+00  0.00000000000E+00  0.85095635088E+03  0.85095635088E+03  0.00000000000E+00 0.  1.
         21   -1    0    0  501  503 -0.00000000000E+00 -0.00000000000E+00 -0.22861898872E+03  0.22861898872E+03  0.00000000000E+00 0. -1.
          6    2    1    2  501    0 -0.31679526697E+03 -0.56414228497E+02  0.77728652712E+01  0.36464766745E+03  0.17136422495E+03 0.  0.
         24    2    3    3    0    0 -0.55612622787E+02  0.79127217020E+01  0.17871126327E+01  0.95552425243E+02  0.77276757309E+02 0.  0.
         -6    2    1    2    0  502  0.31679526697E+03  0.56414228497E+02  0.61456449689E+03  0.71492767215E+03  0.17288796723E+03 0.  0.
        -24    2    5    5    0    0  0.10863166080E+03 -0.32825115296E+02  0.23870416471E+03  0.27607823701E+03  0.79757060991E+02 0.  0.
          5    1    3    3  501    0 -0.26118264418E+03 -0.64326950199E+02  0.59857526385E+01  0.26909524221E+03  0.47000000000E+01 0. -1.
        -11    1    4    4    0    0 -0.43059793075E+02 -0.12094222590E+01  0.37182705123E+02  0.56904850778E+02  0.00000000000E+00 0.  1.
         12    1    4    4    0    0 -0.12552829712E+02  0.91221439610E+01 -0.35395592490E+02  0.38647574464E+02  0.00000000000E+00 0. -1.
         -5    1    5    5    0  502  0.20816360617E+03  0.89239343794E+02  0.37586033219E+03  0.43884943515E+03  0.47000000000E+01 0.  1.
         13    1    6    6    0    0  0.33301096918E+02 -0.16412764595E+02  0.16601994313E+03  0.17012043797E+03  0.00000000000E+00 0. -1.
        -14    1    6    6    0    0  0.75330563884E+02 -0.16412350702E+02  0.72684221571E+02  0.10595779903E+03  0.00000000000E+00 0.  1.
</event>
<event>
12    1  0.8416569E-002  0.2112567E+03  0.7818608E-02  0.1140989E+00
         21   -1    0    0  503  502  0.00000000000E+00  0.00000000000E+00  0.43586759174E+02  0.43586759174E+02  0.00000000000E+00 0.  1.
         21   -1    0    0  501  503 -0.00000000000E+00 -0.00000000000E+00 -0.26046595458E+04  0.26046595458E+04  0.00000000000E+00 0.  1.
          6    2    1    2  501    0  0.11402286702E+03  0.39099657685E+02 -0.23128804502E+04  0.23223186337E+04  0.17093233221E+03 0.  0.
         24    2    3    3    0    0  0.79286717978E+02 -0.27768523878E+02 -0.18179860610E+04  0.18216985180E+04  0.80341135872E+02 0.  0.
         -6    2    1    2    0  502 -0.11402286702E+03 -0.39099657685E+02 -0.24819233639E+03  0.32592767121E+03  0.17349182570E+03 0.  0.
        -24    2    5    5    0    0 -0.15611440714E+01 -0.49833551536E+02 -0.10250249542E+03  0.14150837893E+03  0.83857257943E+02 0.  0.
          5    1    3    3  501    0  0.34736149039E+02  0.66868181563E+02 -0.49489438922E+03  0.50062011570E+03  0.47000000000E+01 0. -1.
        -13    1    4    4    0    0 -0.77769915298E+01  0.51409791168E+00 -0.67739025745E+03  0.67743509415E+03  0.00000000000E+00 0.  1.
         14    1    4    4    0    0  0.87063709508E+02 -0.28282621789E+02 -0.11405958035E+04  0.11442634239E+04  0.00000000000E+00 0. -1.
         -5    1    5    5    0  502 -0.11246172295E+03  0.10733893851E+02 -0.14568984096E+03  0.18441929228E+03  0.47000000000E+01 0.  1.
         13    1    6    6    0    0 -0.18023995807E+02 -0.82621461546E+01  0.87009505325E+01  0.21652575461E+02  0.00000000000E+00 0. -1.
        -14    1    6    6    0    0  0.16462851735E+02 -0.41571405382E+02 -0.11120344595E+03  0.11985580347E+03  0.00000000000E+00 0.  1.
</event>
<event>
12    1  0.8416569E-002  0.2433916E+03  0.7818608E-02  0.1117851E+00
         21   -1    0    0  501  502  0.00000000000E+00  0.00000000000E+00  0.48222505040E+03  0.48222505040E+03  0.00000000000E+00 0.  1.
         21   -1    0    0  502  503 -0.00000000000E+00 -0.00000000000E+00 -0.13586593973E+03  0.13586593973E+03  0.00000000000E+00 0.  1.
         -6    2    1    2    0  503  0.58206206100E+02  0.16162633126E+03  0.73638879873E+02  0.25255605768E+03  0.16985536275E+03 0.  0.
        -24    2    3    3    0    0 -0.54833105661E+01  0.19360992721E+02  0.73145760820E+01  0.83095783997E+02  0.80290046463E+02 0.  0.
          6    2    1    2  501    0 -0.58206206100E+02 -0.16162633126E+03  0.27272023080E+03  0.36553493245E+03  0.17241934106E+03 0.  0.
         24    2    5    5    0    0 -0.79290386117E+02 -0.37999404197E+02  0.13380520226E+03  0.17832479678E+03  0.78517392644E+02 0.  0.
          5    1    5    5  501    0  0.21084180017E+02 -0.12362692706E+03  0.13891502855E+03  0.18721013567E+03  0.47000000000E+01 0. -1.
        -13    1    6    6    0    0 -0.34376470479E+02 -0.51068752926E+02  0.10948018133E+03  0.12560123149E+03  0.00000000000E+00 0.  1.
         14    1    6    6    0    0 -0.44913915638E+02  0.13069348729E+02  0.24325020924E+02  0.52723565292E+02  0.00000000000E+00 0. -1.
         -5    1    3    3    0  503  0.63689516666E+02  0.14226533854E+03  0.66324303791E+02  0.16946027368E+03  0.47000000000E+01 0.  1.
         13    1    4    4    0    0  0.30902196364E+02 -0.75436543358E+01  0.18068764062E+02  0.36583229704E+02  0.00000000000E+00 0. -1.
        -14    1    4    4    0    0 -0.36385506930E+02  0.26904647057E+02 -0.10754187980E+02  0.46512554293E+02  0.00000000000E+00 0.  1.
</event>
<event>
12    1  0.8416569E-002  0.1886917E+03  0.7818608E-02  0.1159747E+00
         21   -1    0    0  503  502  0.00000000000E+00  0.00000000000E+00  0.24731281741E+03  0.24731281741E+03  0.00000000000E+00 0.  1.
         21   -1    0    0  501  503 -0.00000000000E+00 -0.00000000000E+00 -0.23757513357E+03  0.23757513357E+03  0.00000000000E+00 0. -1.
          6    2    1    2  501    0 -0.49939132001E+02 -0.58853448329E+02 -0.14758476091E+03  0.23955334855E+03  0.17218275136E+03 0.  0.
         24    2    3    3    0    0 -0.31852749643E+02 -0.35787100014E+02 -0.17560482785E+03  0.19873193502E+03  0.79762223163E+02 0.  0.
         -6    2    1    2    0  502  0.49939132001E+02  0.58853448329E+02  0.15732244476E+03  0.24533460242E+03  0.17170052486E+03 0.  0.
        -24    2    5    5    0    0  0.60833213482E+02 -0.22332597581E+02  0.60349437240E+02  0.11830819081E+03  0.78456030100E+02 0.  0.
          5    1    3    3  501    0 -0.18086382358E+02 -0.23066348315E+02  0.28020066944E+02  0.40821413534E+02  0.47000000000E+01 0. -1.
        -11    1    4    4    0    0 -0.66185168301E+01  0.64720656016E+01  0.56957498041E+01  0.10868944936E+02  0.00000000000E+00 0.  1.
         12    1    4    4    0    0 -0.25234232813E+02 -0.42259165616E+02 -0.18130057766E+03  0.18786299009E+03  0.00000000000E+00 0. -1.
         -5    1    5    5    0  502 -0.10894081481E+02  0.81186045909E+02  0.96973007516E+02  0.12702641162E+03  0.47000000000E+01 0.  1.
         13    1    6    6    0    0  0.53724918119E+02 -0.50133979108E+01 -0.12029559953E+01  0.53971734163E+02  0.00000000000E+00 0. -1.
        -14    1    6    6    0    0  0.71082953634E+01 -0.17319199670E+02  0.61552393236E+02  0.64336456642E+02  0.00000000000E+00 0.  1.
</event>
<event>
12    1  0.8416569E-002  0.1760885E+03  0.7818608E-02  0.1171759E+00
         21   -1    0    0  501  502  0.00000000000E+00  0.00000000000E+00  0.16838892881E+03  0.16838892881E+03  0.00000000000E+00 0.  1.
         21   -1    0    0  502  503 -0.00000000000E+00 -0.00000000000E+00 -0.20469016843E+03  0.20469016843E+03  0.00000000000E+00 0.  1.
         -6    2    1    2    0  503  0.19322232642E+02 -0.27841743558E+02 -0.77972529653E+02  0.19257955738E+03  0.17279658324E+03 0.  0.
        -24    2    3    3    0    0  0.70620027455E+02  0.82434013128E+01 -0.45474290269E+02  0.12178529916E+03  0.87798667837E+02 0.  0.
          6    2    1    2  501    0 -0.19322232642E+02  0.27841743558E+02  0.41671290035E+02  0.18049953986E+03  0.17232259318E+03 0.  0.
         24    2    5    5    0    0  0.37150846558E+02  0.21450202429E+02  0.72067861945E+02  0.11587677254E+03  0.79958446117E+02 0.  0.
          5    1    5    5  501    0 -0.56473079200E+02  0.63915411291E+01 -0.30396571910E+02  0.64622767321E+02  0.47000000000E+01 0. -1.
        -13    1    6    6    0    0  0.31194384452E+02  0.17384990762E+02 -0.70751880808E+01  0.36405848590E+02  0.00000000000E+00 0.  1.
         14    1    6    6    0    0  0.59564621064E+01  0.40652116672E+01  0.79143050026E+02  0.79470923954E+02  0.00000000000E+00 0. -1.
         -5    1    3    3    0  503 -0.51297794813E+02 -0.36085144871E+02 -0.32498239384E+02  0.70794258214E+02  0.47000000000E+01 0.  1.
         11    1    4    4    0    0  0.55761016100E+02 -0.32791223440E+02 -0.43779791151E+02  0.78110340957E+02  0.00000000000E+00 0. -1.
        -12    1    4    4    0    0  0.14859011355E+02  0.41034624753E+02 -0.16944991172E+01  0.43674958206E+02  0.00000000000E+00 0.  1.
</event>
<event>
12    1  0.8416569E-002  0.2883546E+03  0.7818608E-02  0.1091264E+00
         21   -1    0    0  501  502  0.00000000000E+00  0.00000000000E+00  0.34516633544E+03  0.34516633544E+03  0.00000000000E+00 0. -1.
         21   -1    0    0  502  503 -0.00000000000E+00 -0.00000000000E+00 -0.39227861164E+03  0.39227861164E+03  0.00000000000E+00 0. -1.
         -6    2    1    2    0  503 -0.22918909592E+03 -0.27310328272E+02 -0.25285725505E+03  0.38321430892E+03  0.17217119215E+03 0.  0.
        -24    2    3    3    0    0 -0.75731800812E+02 -0.52977549591E+02 -0.60466577270E+02  0.13573863219E+03  0.78910347158E+02 0.  0.
          6    2    1    2  501    0  0.22918909592E+03  0.27310328272E+02  0.20574497885E+03  0.35423063817E+03  0.17284343487E+03 0.  0.
         24    2    5    5    0    0  0.12491164821E+03  0.79554377458E+02  0.14881664079E+03  0.22436088630E+03  0.79117607998E+02 0.  0.
          5    1    5    5  501    0  0.10427744771E+03 -0.52244049186E+02  0.56928338064E+02  0.12986975187E+03  0.47000000000E+01 0. -1.
        -11    1    6    6    0    0  0.61607776855E+02  0.29456108775E+01  0.89277107836E+02  0.10851081410E+03  0.00000000000E+00 0.  1.
         12    1    6    6    0    0  0.63303871351E+02  0.76608766581E+02  0.59539532950E+02  0.11585007220E+03  0.00000000000E+00 0. -1.
         -5    1    3    3    0  503 -0.15345729511E+03  0.25667221319E+02 -0.19239067778E+03  0.24747567672E+03  0.47000000000E+01 0.  1.
         13    1    4    4    0    0 -0.51516478114E+02 -0.17292253562E+02 -0.72836268101E+02  0.90874041956E+02  0.00000000000E+00 0. -1.
        -14    1    4    4    0    0 -0.24215322697E+02 -0.35685296030E+02  0.12369690831E+02  0.44864590239E+02  0.00000000000E+00 0.  1.
</event>
<event>
12    1  0.8416569E-002  0.2159238E+03  0.7818608E-02  0.1137020E+00
         21   -1    0    0  501  502  0.00000000000E+00  0.00000000000E+00  0.18950458050E+03  0.18950458050E+03  0.00000000000E+00 0. -1.
         21   -1    0    0  502  503 -0.00000000000E+00 -0.00000000000E+00 -0.30610396158E+03  0.30610396158E+03  0.00000000000E+00 0.  1.
         -6    2    1    2    0  503  0.25410730957E+02  0.12874393219E+03 -0.16845029317E+03  0.27385869075E+03  0.17147121013E+03 0.  0.
        -24    2    3    3    0    0  0.31186596302E+02  0.15152378711E+03 -0.98490104180E+02  0.19990735233E+03  0.79564986300E+02 0.  0.
          6    2    1    2  501    0 -0.25410730957E+02 -0.12874393219E+03  0.51850912081E+02  0.22174985133E+03  0.17106657815E+03 0.  0.
         24    2    5    5    0    0 -0.59823830090E+02 -0.14589366158E+03  0.42265855881E+02  0.18184574236E+03  0.80110051220E+02 0.  0.
          5    1    5    5  501    0  0.34413099134E+02  0.17149729392E+02  0.95850561997E+01  0.39904108968E+02  0.47000000000E+01 0. -1.
        -11    1    6    6    0    0  0.98787954281E+00 -0.84299906281E+02 -0.26150716897E+01  0.84346242981E+02  0.00000000000E+00 0.  1.
         12    1    6    6    0    0 -0.60811709633E+02 -0.61593755300E+02  0.44880927571E+02  0.97499499383E+02  0.00000000000E+00 0. -1.
         -5    1    3    3    0  503 -0.57758653453E+01 -0.22779854918E+02 -0.69960188989E+02  0.73951338418E+02  0.47000000000E+01 0.  1.
         13    1    4    4    0    0  0.13326872841E+01  0.35079457358E+01  0.12148813326E+02  0.12715164329E+02  0.00000000000E+00 0. -1.
        -14    1    4    4    0    0  0.29853909018E+02  0.14801584137E+03 -0.11063891751E+03  0.18719218800E+03  0.00000000000E+00 0.  1.
</event>
<event>
12    1  0.8416569E-002  0.1851933E+03  0.7818608E-02  0.1162893E+00
         21   -1    0    0  503  502  0.00000000000E+00  0.00000000000E+00  0.20883052552E+04  0.20883052552E+04  0.00000000000E+00 0.  1.
         21   -1    0    0  501  503 -0.00000000000E+00 -0.00000000000E+00 -0.16423962983E+02  0.16423962983E+02  0.00000000000E+00 0.  1.
          6    2    1    2  501    0 -0.43291077743E+02 -0.53464916919E+02  0.10610997197E+04  0.10771223247E+04  0.17183501538E+03 0.  0.
         24    2    3    3    0    0  0.37879279255E+02 -0.47254400035E+02  0.48088818544E+03  0.49120875442E+03  0.79779542507E+02 0.  0.
         -6    2    1    2    0  502  0.43291077743E+02  0.53464916919E+02  0.10107815725E+04  0.10276068935E+04  0.17194163369E+03 0.  0.
        -24    2    5    5    0    0 -0.33981087882E+02  0.15428119805E+02  0.32175603269E+03  0.33320350202E+03  0.78133782515E+02 0.  0.
          5    1    3    3  501    0 -0.81170356998E+02 -0.62105168846E+01  0.58021153428E+03  0.58591357033E+03  0.47000000000E+01 0. -1.
        -13    1    4    4    0    0  0.18143399342E+02 -0.65584614883E+02  0.40512165761E+03  0.41079688669E+03  0.00000000000E+00 0.  1.
         14    1    4    4    0    0  0.19735879913E+02  0.18330214848E+02  0.75766527827E+02  0.80411867726E+02  0.00000000000E+00 0. -1.
         -5    1    5    5    0  502  0.77272165626E+02  0.38036797114E+02  0.68902553983E+03  0.69440339145E+03  0.47000000000E+01 0.  1.
         11    1    6    6    0    0 -0.99471929413E+01 -0.21584669760E+02  0.30718348383E+02  0.38838917898E+02  0.00000000000E+00 0. -1.
        -12    1    6    6    0    0 -0.24033894941E+02  0.37012789565E+02  0.29103768431E+03  0.29436458412E+03  0.00000000000E+00 0.  1.
</event>
<event>
12    1  0.8416569E-002  0.2572016E+03  0.7818608E-02  0.1108873E+00
         21   -1    0    0  501  502  0.00000000000E+00  0.00000000000E+00  0.14194108207E+04  0.14194108207E+04  0.00000000000E+00 0. -1.
         21   -1    0    0  502  503 -0.00000000000E+00 -0.00000000000E+00 -0.91789327297E+02  0.91789327297E+02  0.00000000000E+00 0.  1.
         -6    2    1    2    0  503 -0.12314105120E+03 -0.14790463305E+03  0.13326586597E+03  0.28946448809E+03  0.17026567436E+03 0.  0.
        -24    2    3    3    0    0 -0.40409213730E+02 -0.17174894795E+01  0.42830556542E+02  0.98635053604E+02  0.79111079511E+02 0.  0.
          6    2    1    2  501    0  0.12314105120E+03  0.14790463305E+03  0.11943556275E+04  0.12217356599E+04  0.17062578630E+03 0.  0.
         24    2    5    5    0    0  0.13163194453E+00  0.66270756420E+02  0.36234810516E+03  0.37671849195E+03  0.78923015510E+02 0.  0.
          5    1    5    5  501    0  0.12300941925E+03  0.81633876625E+02  0.83200752231E+03  0.84501716800E+03  0.47000000000E+01 0. -1.
        -13    1    6    6    0    0  0.26571161167E+02  0.68784174998E+02  0.30039015538E+03  0.30930815506E+03  0.00000000000E+00 0.  1.
         14    1    6    6    0    0 -0.26439529222E+02 -0.25134185778E+01  0.61957949785E+02  0.67410336893E+02  0.00000000000E+00 0. -1.
         -5    1    3    3    0  503 -0.82731837467E+02 -0.14618714357E+03  0.90435309432E+02  0.19082943449E+03  0.47000000000E+01 0.  1.
         11    1    4    4    0    0 -0.23323722095E+02 -0.67515075360E+01  0.65470676015E+02  0.69828277110E+02  0.00000000000E+00 0. -1.
        -12    1    4    4    0    0 -0.17085491634E+02  0.50340180565E+01 -0.22640119473E+02  0.28806776493E+02  0.00000000000E+00 0.  1.
</event>
<event>
12    1  0.8416569E-002  0.2765221E+03  0.7818608E-02  0.1097623E+00
         21   -1    0    0  503  502  0.00000000000E+00  0.00000000000E+00  0.33764808536E+03  0.33764808536E+03  0.00000000000E+00 0.  1.
         21   -1    0    0  501  503 -0.00000000000E+00 -0.00000000000E+00 -0.26233161074E+03  0.26233161074E+03  0.00000000000E+00 0.  1.
          6    2    1    2  501    0 -0.78339626589E+01  0.21649824930E+03 -0.73451070613E+02  0.28597929866E+03  0.17162819281E+03 0.  0.
         24    2    3    3    0    0  0.33612143535E+02  0.14933996143E+03 -0.10332487405E+03  0.20146569337E+03  0.80499662937E+02 0.  0.
         -6    2    1    2    0  502  0.78339626589E+01 -0.21649824930E+03  0.14876754523E+03  0.31400039744E+03  0.17184761901E+03 0.  0.
        -24    2    5    5    0    0 -0.14691547194E+02 -0.21111363843E+03  0.77243310035E+02  0.23867311919E+03  0.78825877664E+02 0.  0.
          5    1    3    3  501    0 -0.41446106194E+02  0.67158287863E+02  0.29873803433E+02  0.84513605289E+02  0.47000000000E+01 0. -1.
        -13    1    4    4    0    0  0.22238790619E+01  0.11377501412E+03 -0.36481380263E+02  0.11950142502E+03  0.00000000000E+00 0.  1.
         14    1    4    4    0    0  0.31388264473E+02  0.35564947310E+02 -0.66843493783E+02  0.81964268342E+02  0.00000000000E+00 0. -1.
         -5    1    5    5    0  502  0.22525509853E+02 -0.53846108683E+01  0.71524235197E+02  0.75327278252E+02  0.47000000000E+01 0.  1.
         11    1    6    6    0    0 -0.31033569536E+01 -0.21167904664E+03  0.80708705531E+02  0.22656465911E+03  0.00000000000E+00 0. -1.
        -12    1    6    6    0    0 -0.11588190241E+02  0.56540821060E+00 -0.34653954967E+01  0.12108460077E+02  0.00000000000E+00 0.  1.
</event>
<event>
12    1  0.8416569E-002  0.1799077E+03  0.7818608E-02  0.1167964E+00
         21   -1    0    0  501  502  0.00000000000E+00  0.00000000000E+00  0.26489354155E+03  0.26489354155E+03  0.00000000000E+00 0.  1.
         21   -1    0    0  502  503 -0.00000000000E+00 -0.00000000000E+00 -0.12282773391E+03  0.12282773391E+03  0.00000000000E+00 0. -1.
         -6    2    1    2    0  503 -0.46973597641E+02 -0.16266232416E+02  0.55059358109E+02  0.18814435165E+03  0.17290360016E+03 0.  0.
        -24    2    3    3    0    0  0.32915556782E+02  0.60122286649E+01 -0.63329678439E+01  0.84850041501E+02  0.77716422262E+02 0.  0.
          6    2    1    2  501    0  0.46973597641E+02  0.16266232416E+02  0.87006449528E+02  0.19957692381E+03  0.17259697873E+03 0.  0.
         24    2    5    5    0    0  0.24032848522E+01  0.42343828694E+02  0.10937766384E+03  0.14310467364E+03  0.81955467571E+02 0.  0.
          5    1    5    5  501    0  0.44570312788E+02 -0.26077596278E+02 -0.22371214309E+02  0.56472250171E+02  0.47000000000E+01 0. -1.
        -13    1    6    6    0    0  0.67272055000E+01 -0.23039775589E+02  0.46299442728E+02  0.52150982253E+02  0.00000000000E+00 0.  1.
         14    1    6    6    0    0 -0.43239206478E+01  0.65383604283E+02  0.63078221109E+02  0.90953691388E+02  0.00000000000E+00 0. -1.
         -5    1    3    3    0  503 -0.79889154423E+02 -0.22278461081E+02  0.61392325953E+02  0.10329431015E+03  0.47000000000E+01 0.  1.
         13    1    4    4    0    0 -0.10113073748E+02 -0.10630890423E+02 -0.29705925709E+02  0.33132040596E+02  0.00000000000E+00 0. -1.
        -14    1    4    4    0    0  0.43028630530E+02  0.16643119088E+02  0.23372957865E+02  0.51718000905E+02  0.00000000000E+00 0.  1.
</event>
<event>
12    1  0.8416569E-002  0.2066645E+03  0.7818608E-02  0.1144263E+00
         21   -1    0    0  503  502  0.00000000000E+00  0.00000000000E+00  0.90964398241E+03  0.90964398241E+03  0.00000000000E+00 0.  1.
         21   -1    0    0  501  503 -0.00000000000E+00 -0.00000000000E+00 -0.48954944787E+02  0.48954944787E+02  0.00000000000E+00 0.  1.
          6    2    1    2  501    0  0.85009494130E+02 -0.75650540617E+02  0.52789467523E+03  0.56685629358E+03  0.17234747183E+03 0.  0.
         24    2    3    3    0    0  0.38720142174E+02 -0.11506497904E+03  0.36330917257E+03  0.39133797617E+03  0.80079072847E+02 0.  0.
         -6    2    1    2    0  502 -0.85009494130E+02  0.75650540617E+02  0.33279436239E+03  0.39174263362E+03  0.17251256466E+03 0.  0.
        -24    2    5    5    0    0 -0.10424445098E+03  0.51413285349E+02  0.14539607054E+03  0.20174884978E+03  0.77796848187E+02 0.  0.
          5    1    3    3  501    0  0.46289351956E+02  0.39414438421E+02  0.16458550266E+03  0.17551831741E+03  0.47000000000E+01 0. -1.
        -11    1    4    4    0    0  0.38283995900E+02 -0.10566036314E+03  0.36487858034E+03  0.38179334080E+03  0.00000000000E+00 0.  1.
         12    1    4    4    0    0  0.43614627445E+00 -0.94046158954E+01 -0.15694077723E+01  0.95446353764E+01  0.00000000000E+00 0. -1.
         -5    1    5    5    0  502  0.19234956851E+02  0.24237255268E+02  0.18739829185E+03  0.18999378384E+03  0.47000000000E+01 0.  1.
         13    1    6    6    0    0 -0.34224249752E+02 -0.20144790310E+02  0.43390414076E+02  0.58820403614E+02  0.00000000000E+00 0. -1.
        -14    1    6    6    0    0 -0.70020201229E+02  0.71558075659E+02  0.10200565647E+03  0.14292844617E+03  0.00000000000E+00 0.  1.
</event>
<event>
12    1  0.8416569E-002  0.1959927E+03  0.7818608E-02  0.1153183E+00
         21   -1    0    0  503  502  0.00000000000E+00  0.00000000000E+00  0.19639280577E+03  0.19639280577E+03  0.00000000000E+00 0.  1.
         21   -1    0    0  501  503 -0.00000000000E+00 -0.00000000000E+00 -0.22965203616E+03  0.22965203616E+03  0.00000000000E+00 0. -1.
          6    2    1    2  501    0  0.39094841140E+01 -0.93752192162E+02 -0.98767481102E+02  0.21947247438E+03  0.17207089843E+03 0.  0.
         24    2    3    3    0    0  0.72864962014E+02 -0.56377994869E+02 -0.59275063875E+02  0.13153255412E+03  0.72797655198E+02 0.  0.
         -6    2    1    2    0  502 -0.39094841140E+01  0.93752192162E+02  0.65508250714E+02  0.20657236755E+03  0.17197690113E+03 0.  0.
        -24    2    5    5    0    0 -0.18880863830E+02  0.19456560101E+01 -0.14921335576E+02  0.83513070291E+02  0.79946945268E+02 0.  0.
          5    1    3    3  501    0 -0.68955477900E+02 -0.37374197294E+02 -0.39492417227E+02  0.87939920254E+02  0.47000000000E+01 0. -1.
        -11    1    4    4    0    0 -0.21176044196E+01  0.63791883633E+01  0.97513154529E+01  0.11843413601E+02  0.00000000000E+00 0.  1.
         12    1    4    4    0    0  0.74982566434E+02 -0.62757183232E+02 -0.69026379328E+02  0.11968914052E+03  0.00000000000E+00 0. -1.
         -5    1    5    5    0  502  0.14971379716E+02  0.91806536152E+02  0.80429586289E+02  0.12305929726E+03  0.47000000000E+01 0.  1.
         13    1    6    6    0    0 -0.38745578649E+02  0.21708415666E+02  0.10546635203E+02  0.45647636190E+02  0.00000000000E+00 0. -1.
        -14    1    6    6    0    0  0.19864714819E+02 -0.19762759656E+02 -0.25467970779E+02  0.37865434101E+02  0.00000000000E+00 0.  1.
</event>
<event>
12    1  0.8416569E-002  0.1890869E+03  0.7818608E-02  0.1159655E+00
         21   -1    0    0  501  502  0.00000000000E+00  0.00000000000E+00  0.41507037682E+03  0.41507037682E+03  0.00000000000E+00 0. -1.
         21   -1    0    0  502  503 -0.00000000000E+00 -0.00000000000E+00 -0.97368548713E+02  0.97368548713E+02  0.00000000000E+00 0.  1.
         -6    2    1    2    0  503  0.72281919031E+02  0.29598941439E+02  0.69638893514E+02  0.20150296968E+03  0.17220074956E+03 0.  0.
        -24    2    3    3    0    0  0.81546674888E+01 -0.40847941021E+02  0.47539683061E+02  0.10359723573E+03  0.82081136065E+02 0.  0.
          6    2    1    2  501    0 -0.72281919031E+02 -0.29598941439E+02  0.24806293460E+03  0.31093595585E+03  0.17042645325E+03 0.  0.
         24    2    5    5    0    0 -0.49170056979E+02  0.33824332362E+02  0.65563302212E+02  0.11629558068E+03  0.75261779978E+02 0.  0.
          5    1    5    5  501    0 -0.23111862052E+02 -0.63423273800E+02  0.18249963239E+03  0.19464037517E+03  0.47000000000E+01 0. -1.
        -13    1    6    6    0    0 -0.59970054661E+00 -0.41599207999E+01 -0.14582267551E+02  0.15175872586E+02  0.00000000000E+00 0.  1.
         14    1    6    6    0    0 -0.48570356432E+02  0.37984253162E+02  0.80145569763E+02  0.10111970809E+03  0.00000000000E+00 0. -1.
         -5    1    3    3    0  503  0.64127251542E+02  0.70446882460E+02  0.22099210452E+02  0.97905733955E+02  0.47000000000E+01 0.  1.
         13    1    4    4    0    0  0.29594645208E+02 -0.50406463437E+01  0.53589784842E+02  0.61425696414E+02  0.00000000000E+00 0. -1.
        -14    1    4    4    0    0 -0.21439977719E+02 -0.35807294677E+02 -0.60501017802E+01  0.42171539316E+02  0.00000000000E+00 0.  1.
</event>
<event>
12    1  0.8416569E-002  0.2062460E+03  0.7818608E-02  0.1145985E+00
         21   -1    0    0  501  502  0.00000000000E+00  0.00000000000E+00  0.54399437559E+02  0.54399437559E+02  0.00000000000E+00 0. -1.
         21   -1    0    0  502  503 -0.00000000000E+00 -0.00000000000E+00 -0.75781027827E+03  0.75781027827E+03  0.00000000000E+00 0. -1.
         -6    2    1    2    0  503  0.87485213144E+02 -0.27576844570E+02 -0.36427821453E+03  0.41528611275E+03  0.17705872749E+03 0.  0.
        -24    2    3    3    0    0  0.11243616649E+03 -0.54224751784E+02 -0.34095833670E+03  0.37171355563E+03  0.79600030344E+02 0.  0.
          6    2    1    2  501    0 -0.87485213144E+02  0.27576844570E+02 -0.33913262618E+03  0.39692360308E+03  0.18472483231E+03 0.  0.
         24    2    5    5    0    0 -0.94181969249E+02  0.34235014620E+02 -0.35527025078E+03  0.37764432149E+03  0.79724543922E+02 0.  0.
          5    1    5    5  501    0  0.66967561044E+01 -0.66581700496E+01  0.16137624607E+02  0.19279281592E+02  0.47000000000E+01 0. -1.
        -13    1    6    6    0    0  0.14089049185E+01 -0.18507830300E+02 -0.61650648476E+02  0.64384215868E+02  0.00000000000E+00 0.  1.
         14    1    6    6    0    0 -0.95590874167E+02  0.52742844920E+02 -0.29361960231E+03  0.31326010562E+03  0.00000000000E+00 0. -1.
         -5    1    3    3    0  503 -0.24950953345E+02  0.26647907214E+02 -0.23319877830E+02  0.43572557117E+02  0.47000000000E+01 0.  1.
         11    1    4    4    0    0  0.10172505245E+03 -0.10728388934E+02 -0.25576120127E+03  0.27545757696E+03  0.00000000000E+00 0. -1.
        -12    1    4    4    0    0  0.10711114038E+02 -0.43496362850E+02 -0.85197135429E+02  0.96255978674E+02  0.00000000000E+00 0.  1.
</event>
<event>
12    1  0.8416569E-002  0.2773458E+03  0.7818608E-02  0.1097222E+00
         21   -1    0    0  501  502  0.00000000000E+00  0.00000000000E+00  0.13400576674E+03  0.13400576674E+03  0.00000000000E+00 0.  1.
         21   -1    0    0  502  503 -0.00000000000E+00 -0.00000000000E+00 -0.57346792188E+03  0.57346792188E+03  0.00000000000E+00 0. -1.
         -6    2    1    2    0  503 -0.16347873459E+03  0.14302753267E+03 -0.20832803881E+03  0.34644228276E+03  0.17157946196E+03 0.  0.
        -24    2    3    3    0    0 -0.17607128800E+03  0.12150036869E+03 -0.22245062263E+03  0.31739871955E+03  0.74123070736E+02 0.  0.
          6    2    1    2  501    0  0.16347873459E+03 -0.14302753267E+03 -0.23113411633E+03  0.36103140586E+03  0.17244861414E+03 0.  0.
         24    2    5    5    0    0  0.17472008230E+03 -0.10666672519E+03 -0.13524599922E+03  0.25775944828E+03  0.79016172091E+02 0.  0.
          5    1    5    5  501    0 -0.11241347707E+02 -0.36360807480E+02 -0.95888117111E+02  0.10327195758E+03  0.47000000000E+01 0. -1.
        -13    1    6    6    0    0  0.10287841746E+03 -0.10450668043E+03 -0.79575364785E+02  0.16684679713E+03  0.00000000000E+00 0.  1.
         14    1    6    6    0    0  0.71841664840E+02 -0.21600447621E+01 -0.55670634435E+02  0.90912651148E+02  0.00000000000E+00 0. -1.
         -5    1    3    3    0  503  0.12592553405E+02  0.21527163980E+02  0.14122583820E+02  0.29043563212E+02  0.47000000000E+01 0.  1.
         11    1    4    4    0    0 -0.15481483990E+03  0.69673867905E+02 -0.15685462728E+03  0.23113947439E+03  0.00000000000E+00 0. -1.
        -12    1    4    4    0    0 -0.21256448090E+02  0.51826500784E+02 -0.65595995352E+02  0.86259245158E+02  0.00000000000E+00 0.  1.
</event>
<event>
12    1  0.8416569E-002  0.2464199E+03  0.7818608E-02  0.1116013E+00
         21   -1    0    0  503  502  0.00000000000E+00  0.00000000000E+00  0.75281174119E+02  0.75281174119E+02  0.00000000000E+00 0. -1.
         21   -1    0    0  501  503 -0.00000000000E+00 -0.00000000000E+00 -0.10206353696E+04  0.10206353696E+04  0.00000000000E+00 0.  1.
          6    2    1    2  501    0 -0.46822962975E+02 -0.16871782580E+03 -0.73054669271E+03  0.77098717463E+03  0.17339163361E+03 0.  0.
         24    2    3    3    0    0  0.28195663094E+01 -0.16776797041E+03 -0.46263236496E+03  0.49847027616E+03  0.79308695954E+02 0.  0.
         -6    2    1    2    0  502  0.46822962975E+02  0.16871782580E+03 -0.21480750281E+03  0.32492936913E+03  0.16964296937E+03 0.  0.
        -24    2    5    5    0    0  0.79766931908E+02  0.76011625274E+02 -0.78401167807E+02  0.15667800083E+03  0.79124725773E+02 0.  0.
          5    1    3    3  501    0 -0.49642529284E+02 -0.94985539353E+00 -0.26791432775E+03  0.27251689847E+03  0.47000000000E+01 0. -1.
        -13    1    4    4    0    0 -0.17768454465E+02 -0.10994510672E+03 -0.37704195363E+03  0.39314663838E+03  0.00000000000E+00 0.  1.
         14    1    4    4    0    0  0.20588020774E+02 -0.57822863689E+02 -0.85590411329E+02  0.10532363778E+03  0.00000000000E+00 0. -1.
         -5    1    5    5    0  502 -0.32943968933E+02  0.92706200526E+02 -0.13640633500E+03  0.16825136829E+03  0.47000000000E+01 0.  1.
         13    1    6    6    0    0  0.41293962817E+02  0.54388459247E+02 -0.88124549657E+02  0.11148646607E+03  0.00000000000E+00 0. -1.
        -14    1    6    6    0    0  0.38472969091E+02  0.21623166027E+02  0.97233818495E+01  0.45191534764E+02  0.00000000000E+00 0.  1.
</event>
<event>
12    1  0.8416569E-002  0.2503142E+03  0.7818608E-02  0.1113222E+00
         21   -1    0    0  503  502  0.00000000000E+00  0.00000000000E+00  0.18570155697E+04  0.18570155697E+04  0.00000000000E+00 0. -1.
         21   -1    0    0  501  503 -0.00000000000E+00 -0.00000000000E+00 -0.33647765660E+02  0.33647765660E+02  0.00000000000E+00 0.  1.
          6    2    1    2  501    0 -0.11839689149E+03 -0.13759956467E+03  0.92507127492E+03  0.95833923222E+03  0.17235357904E+03 0.  0.
         24    2    3    3    0    0 -0.76908979706E+02 -0.66376216023E+02  0.29627958777E+03  0.32415070501E+03  0.83494264550E+02 0.  0.
         -6    2    1    2    0  502  0.11839689149E+03  0.13759956467E+03  0.89829652916E+03  0.93232410318E+03  0.17128956467E+03 0.  0.
        -24    2    5    5    0    0  0.12201076553E+03  0.51501502467E+02  0.68689398410E+03  0.70398430713E+03  0.78940025595E+02 0.  0.
          5    1    3    3  501    0 -0.41487911787E+02 -0.71223348648E+02  0.62879168715E+03  0.63418852721E+03  0.47000000000E+01 0. -1.
        -11    1    4    4    0    0 -0.10212860950E+02  0.89602304016E+01  0.12322077163E+03  0.12396752324E+03  0.00000000000E+00 0.  1.
         12    1    4    4    0    0 -0.66696118755E+02 -0.75336446425E+02  0.17305881615E+03  0.20018318177E+03  0.00000000000E+00 0. -1.
         -5    1    5    5    0  502 -0.36138740401E+01  0.86098062205E+02  0.21140254506E+03  0.22833979605E+03  0.47000000000E+01 0.  1.
         13    1    6    6    0    0  0.10358716651E+03  0.72309271344E+02  0.57019221225E+03  0.58401891296E+03  0.00000000000E+00 0. -1.
        -14    1    6    6    0    0  0.18423599023E+02 -0.20807768877E+02  0.11670177185E+03  0.11996539418E+03  0.00000000000E+00 0.  1.
</event>
<event>
12    1  0.8416569E-002  0.1794280E+03  0.7818608E-02  0.1168592E+00
         21   -1    0    0  501  502  0.00000000000E+00  0.00000000000E+00  0.83217850088E+02  0.83217850088E+02  0.00000000000E+00 0.  1.
         21   -1    0    0  502  503 -0.00000000000E+00 -0.00000000000E+00 -0.41709845727E+03  0.41709845727E+03  0.00000000000E+00 0.  1.
         -6    2    1    2    0  503  0.48173723927E+02  0.16792312109E+02 -0.23614302080E+03  0.29599540955E+03  0.17101773820E+03 0.  0.
        -24    2    3    3    0    0  0.16966494520E+02  0.55815982147E+02 -0.66768675224E+02  0.11934180237E+03  0.79881937902E+02 0.  0.
          6    2    1    2  501    0 -0.48173723927E+02 -0.16792312109E+02 -0.97737586381E+02  0.20432089780E+03  0.17202239408E+03 0.  0.
         24    2    5    5    0    0  0.15937048254E+02  0.36372909896E+02 -0.21493257982E+02  0.91307537738E+02  0.79360747399E+02 0.  0.
          5    1    5    5  501    0 -0.64110772180E+02 -0.53165222005E+02 -0.76244328399E+02  0.11301336007E+03  0.47000000000E+01 0. -1.
        -13    1    6    6    0    0 -0.30659253773E+02  0.19730113060E+02  0.20415886005E+01  0.36516233202E+02  0.00000000000E+00 0.  1.
         14    1    6    6    0    0  0.46596302027E+02  0.16642796836E+02 -0.23534846582E+02  0.54791304536E+02  0.00000000000E+00 0. -1.
         -5    1    3    3    0  503  0.31207229406E+02 -0.39023670038E+02 -0.16937434557E+03  0.17665360718E+03  0.47000000000E+01 0.  1.
         11    1    4    4    0    0  0.47606027116E+02  0.45959681593E+02 -0.38839564303E+02  0.76727686693E+02  0.00000000000E+00 0. -1.
        -12    1    4    4    0    0 -0.30639532596E+02  0.98563005538E+01 -0.27929110921E+02  0.42614115680E+02  0.00000000000E+00 0.  1.
</event>
<event>
12    1  0.8416569E-002  0.1752185E+03  0.7818608E-02  0.1172585E+00
         21   -1    0    0  501  502  0.00000000000E+00  0.00000000000E+00  0.26723891192E+02  0.26723891192E+02  0.00000000000E+00 0. -1.
         21   -1    0    0  502  503 -0.00000000000E+00 -0.00000000000E+00 -0.15796207737E+04  0.15796207737E+04  0.00000000000E+00 0. -1.
         -6    2    1    2    0  503  0.27484959065E+02 -0.21034079535E+02 -0.11972555243E+04  0.12100092152E+04  0.17176627984E+03 0.  0.
        -24    2    3    3    0    0 -0.28872651256E+02  0.25829872190E+02 -0.40560512439E+03  0.41495899295E+03  0.78578855962E+02 0.  0.
          6    2    1    2  501    0 -0.27484959065E+02  0.21034079535E+02 -0.35564135824E+03  0.39633544974E+03  0.17147348936E+03 0.  0.
         24    2    5    5    0    0  0.25861934714E+02  0.50065837977E+02 -0.29606741426E+03  0.31113052690E+03  0.77271360704E+02 0.  0.
          5    1    5    5  501    0 -0.53346893779E+02 -0.29031758442E+02 -0.59573943984E+02  0.85204922839E+02  0.47000000000E+01 0. -1.
        -13    1    6    6    0    0  0.18288892723E+02  0.57434825633E+02 -0.11575239213E+03  0.13050616490E+03  0.00000000000E+00 0.  1.
         14    1    6    6    0    0  0.75730419910E+01 -0.73689876567E+01 -0.18031502213E+03  0.18062436200E+03  0.00000000000E+00 0. -1.
         -5    1    3    3    0  503  0.56357610321E+02 -0.46863951725E+02 -0.79165039989E+03  0.79505022222E+03  0.47000000000E+01 0.  1.
         11    1    4    4    0    0  0.13561652674E+02  0.30510527919E+01 -0.28140058326E+03  0.28174370553E+03  0.00000000000E+00 0. -1.
        -12    1    4    4    0    0 -0.42434303930E+02  0.22778819398E+02 -0.12420454114E+03  0.13321528742E+03  0.00000000000E+00 0.  1.
</event>
<event>
12    1  0.8416569E-002  0.4684204E+03  0.7818608E-02  0.1022391E+00
         21   -1    0    0  501  502  0.00000000000E+00  0.00000000000E+00  0.97401099470E+03  0.97401099470E+03  0.00000000000E+00 0.  1.
         21   -1    0    0  502  503 -0.00000000000E+00 -0.00000000000E+00 -0.28170382255E+03  0.28170382255E+03  0.00000000000E+00 0. -1.
         -6    2    1    2    0  503  0.42799002357E+03 -0.83059880069E+02  0.64830540232E+02  0.47288546922E+03  0.17129875685E+03 0.  0.
        -24    2    3    3    0    0  0.83581067566E+02 -0.22453669350E+02 -0.60953537624E+00  0.11708336798E+03  0.78855446232E+02 0.  0.
          6    2    1    2  501    0 -0.42799002357E+03  0.83059880069E+02  0.62747663192E+03  0.78282934803E+03  0.17035392738E+03 0.  0.
         24    2    5    5    0    0 -0.39655251059E+03  0.11120333556E+03  0.52567137444E+03  0.67252625759E+03  0.79631009967E+02 0.  0.
          5    1    5    5  501    0 -0.31437512983E+02 -0.28143455490E+02  0.10180525748E+03  0.11030309044E+03  0.47000000000E+01 0. -1.
        -13    1    6    6    0    0 -0.29911109787E+03  0.56822260485E+02  0.34460193774E+03  0.45983335422E+03  0.00000000000E+00 0.  1.
         14    1    6    6    0    0 -0.97441412720E+02  0.54381075074E+02  0.18106943670E+03  0.21269290337E+03  0.00000000000E+00 0. -1.
         -5    1    3    3    0  503  0.34440895600E+03 -0.60606210719E+02  0.65440075609E+02  0.35580210124E+03  0.47000000000E+01 0.  1.
         11    1    4    4    0    0  0.85550220640E+02 -0.40505755090E+02  0.11360068613E+02  0.95334189071E+02  0.00000000000E+00 0. -1.
        -12    1    4    4    0    0 -0.19691530735E+01  0.18052085740E+02 -0.11969603989E+02  0.21749178905E+02  0.00000000000E+00 0.  1.
</event>
<event>
12    1  0.8416569E-002  0.2886870E+03  0.7818608E-02  0.1091349E+00
         21   -1    0    0  503  502  0.00000000000E+00  0.00000000000E+00  0.56994146079E+03  0.56994146079E+03  0.00000000000E+00 0.  1.
         21   -1    0    0  501  503 -0.00000000000E+00 -0.00000000000E+00 -0.20521033733E+03  0.20521033733E+03  0.00000000000E+00 0. -1.
          6    2    1    2  501    0  0.40371564577E+01  0.22881751914E+03 -0.26991410857E+02  0.28994603864E+03  0.17597276313E+03 0.  0.
         24    2    3    3    0    0 -0.32294490727E+02  0.73979674062E+02  0.36409268083E+02  0.11866707628E+03  0.78995657384E+02 0.  0.
         -6    2    1    2    0  502 -0.40371564577E+01 -0.22881751914E+03  0.39172253431E+03  0.48520575948E+03  0.17205908707E+03 0.  0.
        -24    2    5    5    0    0 -0.10523274869E+02 -0.28216805668E+02  0.13824955303E+03  0.16185864225E+03  0.78602504557E+02 0.  0.
          5    1    3    3  501    0  0.36331647185E+02  0.15483784508E+03 -0.63400678940E+02  0.17127896236E+03  0.47000000000E+01 0. -1.
        -11    1    4    4    0    0 -0.36291821587E+02  0.86079092801E+02  0.44601627280E+02  0.10351817081E+03  0.00000000000E+00 0.  1.
         12    1    4    4    0    0  0.39973308602E+01 -0.12099418739E+02 -0.81923591972E+01  0.15148905474E+02  0.00000000000E+00 0. -1.
         -5    1    5    5    0  502  0.64861184112E+01 -0.20060071348E+03  0.25347298128E+03  0.32334711722E+03  0.47000000000E+01 0.  1.
         13    1    6    6    0    0 -0.27332172729E+02 -0.40562807016E+02  0.45533315487E+02  0.66825682177E+02  0.00000000000E+00 0. -1.
        -14    1    6    6    0    0  0.16808897860E+02  0.12346001348E+02  0.92716237543E+02  0.95032960075E+02  0.00000000000E+00 0.  1.
</event>
<event>
12    1  0.8416569E-002  0.1922521E+03  0.7818608E-02  0.1158261E+00
         21   -1    0    0  501  502  0.00000000000E+00  0.00000000000E+00  0.20475129845E+02  0.20475129845E+02  0.00000000000E+00 0. -1.
         21   -1    0    0  502  503 -0.00000000000E+00 -0.00000000000E+00 -0.19948823446E+04  0.19948823446E+04  0.00000000000E+00 0. -1.
         -6    2    1    2    0  503  0.97298849050E+00 -0.87234550243E+02 -0.60252739295E+03  0.63007227044E+03  0.16229908583E+03 0.  0.
        -24    2    3    3    0    0  0.92150626629E+01 -0.12280812354E+02 -0.48032828575E+03  0.48640353198E+03  0.75082608519E+02 0.  0.
          6    2    1    2  501    0 -0.97298849050E+00  0.87234550243E+02 -0.13718798218E+04  0.13852852040E+04  0.17131852640E+03 0.  0.
         24    2    5    5    0    0  0.41302862133E+02 -0.12151484725E+02 -0.53935595745E+03  0.54577171024E+03  0.71472553173E+02 0.  0.
          5    1    5    5  501    0 -0.42275850624E+02  0.99386034967E+02 -0.83252386438E+03  0.83951349379E+03  0.47000000000E+01 0. -1.
        -13    1    6    6    0    0 -0.10546547460E+01 -0.41208906120E+01 -0.39718589138E+03  0.39720866852E+03  0.00000000000E+00 0.  1.
         14    1    6    6    0    0  0.42357516879E+02 -0.80305941126E+01 -0.14217006607E+03  0.14856304172E+03  0.00000000000E+00 0. -1.
         -5    1    3    3    0  503 -0.82420741724E+01 -0.74953737888E+02 -0.12219910720E+03  0.14366873846E+03  0.47000000000E+01 0.  1.
         11    1    4    4    0    0 -0.24556268845E+02 -0.27426635929E+02 -0.17430291701E+03  0.17814807766E+03  0.00000000000E+00 0. -1.
        -12    1    4    4    0    0  0.33771331508E+02  0.15145823575E+02 -0.30602536874E+03  0.30825545432E+03  0.00000000000E+00 0.  1.
</event>
<event>
12    1  0.8416569E-002  0.1860867E+03  0.7818608E-02  0.1162391E+00
         21   -1    0    0  501  502  0.00000000000E+00  0.00000000000E+00  0.33408703869E+02  0.33408703869E+02  0.00000000000E+00 0.  1.
         21   -1    0    0  502  503 -0.00000000000E+00 -0.00000000000E+00 -0.13447215262E+04  0.13447215262E+04  0.00000000000E+00 0.  1.
         -6    2    1    2    0  503 -0.47881801424E+02 -0.51403804851E+02 -0.32334247400E+03  0.37306649764E+03  0.17231726003E+03 0.  0.
        -24    2    3    3    0    0 -0.49864728826E+02 -0.73556691796E+02 -0.32811904869E+03  0.34983746264E+03  0.82626037448E+02 0.  0.
          6    2    1    2  501    0  0.47881801424E+02  0.51403804851E+02 -0.98797034836E+03  0.10050637325E+04  0.17068297811E+03 0.  0.
         24    2    5    5    0    0  0.66993565972E+02  0.35001138074E+02 -0.96620748287E+03  0.97144797224E+03  0.66641167889E+02 0.  0.
          5    1    5    5  501    0 -0.19111764548E+02  0.16402666776E+02 -0.21762865492E+02  0.33615760232E+02  0.47000000000E+01 0. -1.
        -11    1    6    6    0    0  0.22551292312E+02  0.44075681928E+02 -0.33822361395E+03  0.34182808479E+03  0.00000000000E+00 0.  1.
         12    1    6    6    0    0  0.44442273660E+02 -0.90745438538E+01 -0.62798386892E+03  0.62961988744E+03  0.00000000000E+00 0. -1.
         -5    1    3    3    0  503  0.19829274017E+01  0.22152886945E+02  0.47765746880E+01  0.23229034996E+02  0.47000000000E+01 0.  1.
         13    1    4    4    0    0 -0.39998286990E+02 -0.33418603310E+01 -0.19421591305E+03  0.19832007431E+03  0.00000000000E+00 0. -1.
        -14    1    4    4    0    0 -0.98664418360E+01 -0.70214831465E+02 -0.13390313564E+03  0.15151738833E+03  0.00000000000E+00 0.  1.
</event>
<event>
12    1  0.8416569E-002  0.2083926E+03  0.7818608E-02  0.1143404E+00
         21   -1    0    0  503  502  0.00000000000E+00  0.00000000000E+00  0.79898675099E+02  0.79898675099E+02  0.00000000000E+00 0.  1.
         21   -1    0    0  501  503 -0.00000000000E+00 -0.00000000000E+00 -0.53726405286E+03  0.53726405286E+03  0.00000000000E+00 0.  1.
          6    2    1    2  501    0 -0.10930030777E+03 -0.45457614738E+02 -0.24310907509E+03  0.32020230660E+03  0.17150668427E+03 0.  0.
         24    2    3    3    0    0 -0.27113193864E+02 -0.82488658145E+02 -0.13710380789E+03  0.18097146756E+03  0.80085666186E+02 0.  0.
         -6    2    1    2    0  502  0.10930030777E+03  0.45457614738E+02 -0.21425630268E+03  0.29696042136E+03  0.16812726311E+03 0.  0.
        -24    2    5    5    0    0  0.16863682197E+02  0.51066721309E+02 -0.16677682410E+03  0.19278565134E+03  0.80371664800E+02 0.  0.
          5    1    3    3  501    0 -0.82187113902E+02  0.37031043407E+02 -0.10600526720E+03  0.13923083904E+03  0.47000000000E+01 0. -1.
        -13    1    4    4    0    0 -0.12290565044E+02 -0.21669750265E+02  0.52518335838E+01  0.25460122184E+02  0.00000000000E+00 0.  1.
         14    1    4    4    0    0 -0.14822628819E+02 -0.60818907880E+02 -0.14235564147E+03  0.15551134537E+03  0.00000000000E+00 0. -1.
         -5    1    5    5    0  502  0.92436625569E+02 -0.56091065707E+01 -0.47479478581E+02  0.10417477002E+03  0.47000000000E+01 0.  1.
         11    1    6    6    0    0  0.15629604769E+01  0.37895169624E+01 -0.13216379471E+03  0.13222734935E+03  0.00000000000E+00 0. -1.
        -12    1    6    6    0    0  0.15300721720E+02  0.47277204347E+02 -0.34613029387E+02  0.60558301985E+02  0.00000000000E+00 0.  1.
</event>
<event>
12    1  0.8416569E-002  0.2250511E+03  0.7818608E-02  0.1130437E+00
         21   -1    0    0  501  502  0.00000000000E+00  0.00000000000E+00  0.41398423014E+03  0.41398423014E+03  0.00000000000E+00 0. -1.
         21   -1    0    0  502  503 -0.00000000000E+00 -0.00000000000E+00 -0.23675478579E+03  0.23675478579E+03  0.00000000000E+00 0.  1.
         -6    2    1    2    0  503  0.13598321078E+03 -0.51707660629E+02 -0.13849700403E+03  0.26301336375E+03  0.16979250161E+03 0.  0.
        -24    2    3    3    0    0  0.85487907998E+02  0.34983131822E+02 -0.69222639255E+02  0.14100477096E+03  0.80984996895E+02 0.  0.
          6    2    1    2  501    0 -0.13598321078E+03  0.51707660629E+02  0.31572644838E+03  0.38772565219E+03  0.17170578141E+03 0.  0.
         24    2    5    5    0    0 -0.51561406161E+02  0.73360122704E+02  0.11091057840E+03  0.16508805247E+03  0.83142182186E+02 0.  0.
          5    1    5    5  501    0 -0.84421804622E+02 -0.21652462076E+02  0.20481586999E+03  0.22263759972E+03  0.47000000000E+01 0. -1.
        -13    1    6    6    0    0 -0.68671204962E+02  0.46752930255E+02  0.51396543901E+02  0.97689178537E+02  0.00000000000E+00 0.  1.
         14    1    6    6    0    0  0.17109798801E+02  0.26607192450E+02  0.59514034495E+02  0.67398873930E+02  0.00000000000E+00 0. -1.
         -5    1    3    3    0  503  0.50495302785E+02 -0.86690792451E+02 -0.69274364778E+02  0.12200859279E+03  0.47000000000E+01 0.  1.
         13    1    4    4    0    0  0.36415841975E+02  0.11264870207E+02  0.14768372260E+02  0.40879281632E+02  0.00000000000E+00 0. -1.
        -14    1    4    4    0    0  0.49072066022E+02  0.23718261615E+02 -0.83991011515E+02  0.10012548933E+03  0.00000000000E+00 0.  1.
</event>
<event>
12    1  0.8416569E-002  0.2745641E+03  0.7818608E-02  0.1098766E+00
         21   -1    0    0  501  502  0.00000000000E+00  0.00000000000E+00  0.51293874049E+02  0.51293874049E+02  0.00000000000E+00 0.  1.
         21   -1    0    0  502  503 -0.00000000000E+00 -0.00000000000E+00 -0.30017942119E+04  0.30017942119E+04  0.00000000000E+00 0. -1.
         -6    2    1    2    0  503  0.64765735935E+02  0.20417373888E+03 -0.25661440607E+04  0.25807373879E+04  0.17096376406E+03 0.  0.
        -24    2    3    3    0    0  0.30497887006E+02  0.35537319481E+02 -0.91385253809E+03  0.91950233733E+03  0.90360748069E+02 0.  0.
          6    2    1    2  501    0 -0.64765735935E+02 -0.20417373888E+03 -0.38435627707E+03  0.47235069801E+03  0.17176704571E+03 0.  0.
         24    2    5    5    0    0 -0.25377868812E+02 -0.19871726677E+03 -0.24027879999E+03  0.32281278788E+03  0.79634200918E+02 0.  0.
          5    1    5    5  501    0 -0.39387867123E+02 -0.54564721052E+01 -0.14407747709E+03  0.14953791014E+03  0.47000000000E+01 0. -1.
        -13    1    6    6    0    0  0.20593597939E+02 -0.13641106140E+03 -0.14730786690E+03  0.20182091467E+03  0.00000000000E+00 0.  1.
         14    1    6    6    0    0 -0.45971466750E+02 -0.62306205373E+02 -0.92970933082E+02  0.12099187320E+03  0.00000000000E+00 0. -1.
         -5    1    3    3    0  503  0.34267848929E+02  0.16863641939E+03 -0.16522915226E+04  0.16612350506E+04  0.47000000000E+01 0.  1.
         11    1    4    4    0    0  0.59270866200E+02  0.18018316668E+02 -0.42508756682E+03  0.42957785648E+03  0.00000000000E+00 0. -1.
        -12    1    4    4    0    0 -0.28772979193E+02  0.17519002814E+02 -0.48876497128E+03  0.48992448085E+03  0.00000000000E+00 0.  1.
</event>
<event>
12    1  0.8416569E-002  0.1906293E+03  0.7818608E-02  0.1159345E+00
         21   -1    0    0  503  502  0.00000000000E+00  0.00000000000E+00  0.22252894935E+03  0.22252894935E+03  0.00000000000E+00 0. -1.
         21   -1    0    0  501  503 -0.00000000000E+00 -0.00000000000E+00 -0.17285028618E+03  0.17285028618E+03  0.00000000000E+00 0. -1.
          6    2    1    2  501    0  0.66712025381E+02  0.28712867699E+02 -0.33647438460E+02  0.18733413276E+03  0.16937238287E+03 0.  0.
         24    2    3    3    0    0  0.77129027940E+02  0.64895890535E+02 -0.59927961751E+02  0.14117699909E+03  0.78608020672E+02 0.  0.
         -6    2    1    2    0  502 -0.66712025381E+02 -0.28712867699E+02  0.83326101633E+02  0.20804510277E+03  0.17625153182E+03 0.  0.
        -24    2    5    5    0    0 -0.11284324011E+02  0.49706163208E+01  0.11068323205E+03  0.13749505132E+03  0.80635403428E+02 0.  0.
          5    1    3    3  501    0 -0.10417002560E+02 -0.36183022836E+02  0.26280523291E+02  0.46157133667E+02  0.47000000000E+01 0. -1.
        -11    1    4    4    0    0  0.15498607518E+02  0.36298706014E+02 -0.61663008215E+02  0.73212905116E+02  0.00000000000E+00 0.  1.
         12    1    4    4    0    0  0.61630420423E+02  0.28597184521E+02  0.17350464643E+01  0.67964093978E+02  0.00000000000E+00 0. -1.
         -5    1    5    5    0  502 -0.55427701370E+02 -0.33683484020E+02 -0.27357130414E+02  0.70550051448E+02  0.47000000000E+01 0.  1.
         11    1    6    6    0    0 -0.46005264301E+02 -0.10299840003E+01  0.56594342447E+02  0.72941516351E+02  0.00000000000E+00 0. -1.
        -12    1    6    6    0    0  0.34720940290E+02  0.60006003211E+01  0.54088889599E+02  0.64553534969E+02  0.00000000000E+00 0.  1.
</event>
<event>
12    1  0.8416569E-002  0.2009836E+03  0.7818608E-02  0.1149383E+00
         21   -1    0    0  501  502  0.00000000000E+00  0.00000000000E+00  0.85940694691E+03  0.85940694691E+03  0.00000000000E+00 0. -1.
         21   -1    0    0  502  503 -0.00000000000E+00 -0.00000000000E+00 -0.62785193309E+02  0.62785193309E+02  0.00000000000E+00 0. -1.
         -6    2    1    2    0  503 -0.94291123685E+02 -0.40016462519E+02  0.16169746334E+03  0.25621672755E+03  0.17031972449E+03 0.  0.
        -24    2    3    3    0    0 -0.77708208559E+02 -0.81838455114E+02  0.73248020150E+02  0.15687154076E+03  0.80667895918E+02 0.  0.
          6    2    1    2  501    0  0.94291123685E+02  0.40016462519E+02  0.63492429026E+03  0.66597541266E+03  0.17292270710E+03 0.  0.
         24    2    5    5    0    0 -0.60038449633E+01 -0.71816569663E+01  0.35439949758E+03  0.36430839006E+03  0.83868807256E+02 0.  0.
          5    1    5    5  501    0  0.10029496865E+03  0.47198119486E+02  0.28052479268E+03  0.30166702261E+03  0.47000000000E+01 0. -1.
        -11    1    6    6    0    0 -0.10365541536E+02 -0.27033029956E+02  0.33487732234E+03  0.33612653893E+03  0.00000000000E+00 0.  1.
         12    1    6    6    0    0  0.43616965732E+01  0.19851372990E+02  0.19522175243E+02  0.28181851124E+02  0.00000000000E+00 0. -1.
         -5    1    3    3    0  503 -0.16582915126E+02  0.41821992595E+02  0.88449443186E+02  0.99345186791E+02  0.47000000000E+01 0.  1.
         11    1    4    4    0    0 -0.12945883599E+02 -0.72044615415E+02  0.37217845117E+02  0.82116931918E+02  0.00000000000E+00 0. -1.
        -12    1    4    4    0    0 -0.64762324961E+02 -0.97938396992E+01  0.36030175033E+02  0.74754608843E+02  0.00000000000E+00 0.  1.
</event>
<event>
12    1  0.8416569E-002  0.1948758E+03  0.7818608E-02  0.1154548E+00
         21   -1    0    0  501  502  0.00000000000E+00  0.00000000000E+00  0.37825879597E+03  0.37825879597E+03  0.00000000000E+00 0. -1.
         21   -1    0    0  502  503 -0.00000000000E+00 -0.00000000000E+00 -0.11706406724E+03  0.11706406724E+03  0.00000000000E+00 0.  1.
         -6    2    1    2    0  503  0.22431760321E+02 -0.87481429959E+02  0.33946908776E+02  0.19595997958E+03  0.17056299870E+03 0.  0.
        -24    2    3    3    0    0 -0.32746638247E+02 -0.10421170686E+03  0.22053833317E+02  0.13689989935E+03  0.79515965161E+02 0.  0.
          6    2    1    2  501    0 -0.22431760321E+02  0.87481429959E+02  0.22724781995E+03  0.29936288363E+03  0.17268578391E+03 0.  0.
         24    2    5    5    0    0 -0.49009085433E+02  0.12881261254E+02  0.19907091239E+03  0.21517519153E+03  0.64057142810E+02 0.  0.
          5    1    5    5  501    0  0.26577325112E+02  0.74600168705E+02  0.28176907562E+02  0.84187692098E+02  0.47000000000E+01 0. -1.
        -11    1    6    6    0    0 -0.14277254867E+02 -0.22068682959E+02  0.34410569816E+02  0.43300740053E+02  0.00000000000E+00 0.  1.
         12    1    6    6    0    0 -0.34731830567E+02  0.34949944213E+02  0.16466034257E+03  0.17187445148E+03  0.00000000000E+00 0. -1.
         -5    1    3    3    0  503  0.55178398568E+02  0.16730276897E+02  0.11893075459E+02  0.59060080236E+02  0.47000000000E+01 0.  1.
         11    1    4    4    0    0  0.25287219421E+02 -0.43368445976E+02  0.15600424526E+02  0.52570322595E+02  0.00000000000E+00 0. -1.
        -12    1    4    4    0    0 -0.58033857668E+02 -0.60843260880E+02  0.64534087905E+01  0.84329576753E+02  0.00000000000E+00 0.  1.
</event>
<event>
12    1  0.8416569E-002  0.1743518E+03  0.7818608E-02  0.1173473E+00
         21   -1    0    0  501  502  0.00000000000E+00  0.00000000000E+00  0.22602569246E+03  0.22602569246E+03  0.00000000000E+00 0. -1.
         21   -1    0    0  502  503 -0.00000000000E+00 -0.00000000000E+00 -0.25939644735E+03  0.25939644735E+03  0.00000000000E+00 0. -1.
         -6    2    1    2    0  503  0.17733770554E+02 -0.19907647743E+02 -0.18529730889E+03  0.25442808088E+03  0.17230134823E+03 0.  0.
        -24    2    3    3    0    0  0.54199764054E+02 -0.65299481168E+02 -0.12372644085E+03  0.16955612430E+03  0.78989938958E+02 0.  0.
          6    2    1    2  501    0 -0.17733770554E+02  0.19907647743E+02  0.15192655399E+03  0.23099405893E+03  0.17194701625E+03 0.  0.
         24    2    5    5    0    0 -0.67779308074E+02  0.54256248029E+01  0.48918414064E+02  0.11546461807E+03  0.79470716516E+02 0.  0.
          5    1    5    5  501    0  0.50045537520E+02  0.14482022940E+02  0.10300813993E+03  0.11552944086E+03  0.47000000000E+01 0. -1.
        -13    1    6    6    0    0 -0.15309728341E+02  0.35066767959E+02  0.67423563999E+00  0.38269055263E+02  0.00000000000E+00 0.  1.
         14    1    6    6    0    0 -0.52469579733E+02 -0.29641143157E+02  0.48244178424E+02  0.77195562805E+02  0.00000000000E+00 0. -1.
         -5    1    3    3    0  503 -0.36465993500E+02  0.45391833424E+02 -0.61570868041E+02  0.84871956587E+02  0.47000000000E+01 0.  1.
         11    1    4    4    0    0  0.18883792893E+02 -0.20350639106E+02 -0.10619669614E+03  0.10976558850E+03  0.00000000000E+00 0. -1.
        -12    1    4    4    0    0  0.35315971161E+02 -0.44948842061E+02 -0.17529744705E+02  0.59790535799E+02  0.00000000000E+00 0.  1.
</event>
<event>
12    1  0.8416569E-002  0.1800314E+03  0.7818608E-02  0.1168141E+00
         21   -1    0    0  503  502  0.00000000000E+00  0.00000000000E+00  0.15697371787E+03  0.15697371787E+03  0.00000000000E+00 0.  1.
         21   -1    0    0  501  503 -0.00000000000E+00 -0.00000000000E+00 -0.31673829673E+03  0.31673829673E+03  0.00000000000E+00 0. -1.
          6    2    1    2  501    0  0.35660643451E+02 -0.29780492301E+02 -0.22050597059E+03  0.28370988679E+03  0.17236547678E+03 0.  0.
         24    2    3    3    0    0 -0.24510764454E+02  0.24336950561E+02 -0.15070684655E+03  0.17673650848E+03  0.85616441738E+02 0.  0.
         -6    2    1    2    0  502 -0.35660643451E+02  0.29780492301E+02  0.60741391726E+02  0.19000212781E+03  0.17393312706E+03 0.  0.
        -24    2    5    5    0    0 -0.48151364977E+02  0.20285170072E+02  0.10538909583E+03  0.14244493329E+03  0.80334646496E+02 0.  0.
          5    1    3    3  501    0  0.60171407905E+02 -0.54117442862E+02 -0.69799124047E+02  0.10697337832E+03  0.47000000000E+01 0. -1.
        -13    1    4    4    0    0 -0.55773796930E+02  0.78955362582E+01 -0.82036844940E+02  0.99514319797E+02  0.00000000000E+00 0.  1.
         14    1    4    4    0    0  0.31263032477E+02  0.16441414303E+02 -0.68670001606E+02  0.77222188679E+02  0.00000000000E+00 0. -1.
         -5    1    5    5    0  502  0.12490721526E+02  0.94953222289E+01 -0.44647704102E+02  0.47557194514E+02  0.47000000000E+01 0.  1.
         11    1    6    6    0    0 -0.10622868030E+02 -0.24677539962E+02  0.67605000495E+02  0.72747937398E+02  0.00000000000E+00 0. -1.
        -12    1    6    6    0    0 -0.37528496947E+02  0.44962710034E+02  0.37784095333E+02  0.69696995895E+02  0.00000000000E+00 0.  1.
</event>
<event>
12    1  0.8416569E-002  0.2103648E+03  0.7818608E-02  0.1141744E+00
         21   -1    0    0  501  502  0.00000000000E+00  0.00000000000E+00  0.31914031719E+02  0.31914031719E+02  0.00000000000E+00 0. -1.
         21   -1    0    0  502  503 -0.00000000000E+00 -0.00000000000E+00 -0.14602002579E+04  0.14602002579E+04  0.00000000000E+00 0. -1.
         -6    2    1    2    0  503  0.42198361130E+02 -0.10944172328E+03 -0.89454614595E+03  0.91841417441E+03  0.17179521543E+03 0.  0.
        -24    2    3    3    0    0  0.12750595457E+02  0.12171171830E+02 -0.30058136465E+03  0.31139430769E+03  0.79413745547E+02 0.  0.
          6    2    1    2  501    0 -0.42198361130E+02  0.10944172328E+03 -0.53374008020E+03  0.57370011518E+03  0.17462862442E+03 0.  0.
         24    2    5    5    0    0  0.24272467493E+02  0.58951771197E+01 -0.28656950050E+03  0.29755587072E+03  0.76115121958E+02 0.  0.
          5    1    5    5  501    0 -0.66470828622E+02  0.10354654616E+03 -0.24717057970E+03  0.27614424446E+03  0.47000000000E+01 0. -1.
        -11    1    6    6    0    0 -0.33676333295E+01 -0.35466109570E+01 -0.25304491409E+03  0.25309217283E+03  0.00000000000E+00 0.  1.
         12    1    6    6    0    0  0.27640100822E+02  0.94417880767E+01 -0.33524586412E+02  0.44463697885E+02  0.00000000000E+00 0. -1.
         -5    1    3    3    0  503  0.29447765673E+02 -0.12161289511E+03 -0.59396478131E+03  0.60701986672E+03  0.47000000000E+01 0.  1.
         11    1    4    4    0    0 -0.26284920618E+02 -0.18115816204E+02 -0.12103678101E+03  0.12517580520E+03  0.00000000000E+00 0. -1.
        -12    1    4    4    0    0  0.39035516075E+02  0.30286988033E+02 -0.17954458363E+03  0.18621850250E+03  0.00000000000E+00 0.  1.
</event>
<event>
12    1  0.8416569E-002  0.3321534E+03  0.7818608E-02  0.1070216E+00
         21   -1    0    0  501  502  0.00000000000E+00  0.00000000000E+00  0.56556644624E+03  0.56556644624E+03  0.00000000000E+00 0. -1.
         21   -1    0    0  502  503 -0.00000000000E+00 -0.00000000000E+00 -0.22252191195E+03  0.22252191195E+03  0.00000000000E+00 0.  1.
         -6    2    1    2    0  503  0.18742294350E+03  0.21370486592E+03  0.32800465217E+02  0.33376896995E+03  0.17183924264E+03 0.  0.
        -24    2    3    3    0    0  0.10481627028E+03  0.15688133557E+03 -0.41934519419E+02  0.20862831312E+03  0.78543396610E+02 0.  0.
          6    2    1    2  501    0 -0.18742294350E+03 -0.21370486592E+03  0.31024406908E+03  0.45431938825E+03  0.17134058093E+03 0.  0.
         24    2    5    5    0    0 -0.15667597371E+03 -0.14929937812E+03  0.14066759541E+03  0.27027669366E+03  0.80152689859E+02 0.  0.
          5    1    5    5  501    0 -0.30746969788E+02 -0.64405487802E+02  0.16957647367E+03  0.18404269459E+03  0.47000000000E+01 0. -1.
        -13    1    6    6    0    0 -0.40598729538E+02 -0.91514383087E+02  0.48872340951E+02  0.11140756196E+03  0.00000000000E+00 0.  1.
         14    1    6    6    0    0 -0.11607724417E+03 -0.57784995033E+02  0.91795254455E+02  0.15886913170E+03  0.00000000000E+00 0. -1.
         -5    1    3    3    0  503  0.82606673224E+02  0.56823530349E+02  0.74734984636E+02  0.12514065683E+03  0.47000000000E+01 0.  1.
         11    1    4    4    0    0  0.35379419000E+02  0.42730967671E+01 -0.15635292803E+02  0.38915614164E+02  0.00000000000E+00 0. -1.
        -12    1    4    4    0    0  0.69436851275E+02  0.15260823881E+03 -0.26299226616E+02  0.16971269896E+03  0.00000000000E+00 0.  1.
</event>
<event>
12    1  0.8416569E-002  0.2456218E+03  0.7818608E-02  0.1117566E+00
         21   -1    0    0  501  502  0.00000000000E+00  0.00000000000E+00  0.44111199376E+03  0.44111199376E+03  0.00000000000E+00 0. -1.
         21   -1    0    0  502  503 -0.00000000000E+00 -0.00000000000E+00 -0.19979661869E+03  0.19979661869E+03  0.00000000000E+00 0. -1.
         -6    2    1    2    0  503  0.16514189863E+03 -0.63556172727E+02 -0.64704492295E+02  0.25400145466E+03  0.17034915284E+03 0.  0.
        -24    2    3    3    0    0  0.29600413076E+02  0.16799294160E+02 -0.32231989479E+02  0.93051000163E+02  0.80381507494E+02 0.  0.
          6    2    1    2  501    0 -0.16514189863E+03  0.63556172727E+02  0.30601986737E+03  0.38690715778E+03  0.15728240762E+03 0.  0.
         24    2    5    5    0    0 -0.34389938264E+02  0.31037529612E+02  0.17941222388E+03  0.20196088808E+03  0.80333418555E+02 0.  0.
          5    1    5    5  501    0 -0.13075196037E+03  0.32518643115E+02  0.12660764349E+03  0.18494626971E+03  0.47000000000E+01 0. -1.
        -13    1    6    6    0    0 -0.16731129620E+02 -0.23143666546E+02  0.27231054411E+02  0.39459983830E+02  0.00000000000E+00 0.  1.
         14    1    6    6    0    0 -0.17658808643E+02  0.54181196158E+02  0.15218116947E+03  0.16250090425E+03  0.00000000000E+00 0. -1.
         -5    1    3    3    0  503  0.13554148555E+03 -0.80355466887E+02 -0.32472502816E+02  0.16095045450E+03  0.47000000000E+01 0.  1.
         13    1    4    4    0    0  0.39043534067E+02 -0.16487556528E+02  0.44623111755E+01  0.42616303145E+02  0.00000000000E+00 0. -1.
        -14    1    4    4    0    0 -0.94431209912E+01  0.33286850688E+02 -0.36694300655E+02  0.50434697018E+02  0.00000000000E+00 0.  1.
</event>
<event>
12    1  0.8416569E-002  0.2662321E+03  0.7818608E-02  0.1103466E+00
         21   -1    0    0  501  502  0.00000000000E+00  0.00000000000E+00  0.50011805199E+03  0.50011805199E+03  0.00000000000E+00 0.  1.
         21   -1    0    0  502  503 -0.00000000000E+00 -0.00000000000E+00 -0.14263033078E+03  0.14263033078E+03  0.00000000000E+00 0. -1.
         -6    2    1    2    0  503 -0.19983107309E+03 -0.35722182000E+02  0.20490197251E+03  0.33595285919E+03  0.17225264351E+03 0.  0.
        -24    2    3    3    0    0 -0.15304308809E+03 -0.68764742028E+02  0.20783963707E+03  0.27840595495E+03  0.78497034701E+02 0.  0.
          6    2    1    2  501    0  0.19983107309E+03  0.35722182000E+02  0.15258574870E+03  0.30679552359E+03  0.17214107739E+03 0.  0.
         24    2    5    5    0    0  0.10328762998E+03 -0.19736666156E+02  0.14363725417E+03  0.19499889662E+03  0.79592954462E+02 0.  0.
          5    1    5    5  501    0  0.96543443109E+02  0.55458848156E+02  0.89484945296E+01  0.11179662696E+03  0.47000000000E+01 0. -1.
        -11    1    6    6    0    0  0.10937141521E+03 -0.23007295474E+02  0.97405728185E+02  0.14825423432E+03  0.00000000000E+00 0.  1.
         12    1    6    6    0    0 -0.60837852289E+01  0.32706293185E+01  0.46231525984E+02  0.46744662301E+02  0.00000000000E+00 0. -1.
         -5    1    3    3    0  503 -0.46787985001E+02  0.33042560028E+02 -0.29376645600E+01  0.57546904232E+02  0.47000000000E+01 0.  1.
         11    1    4    4    0    0 -0.77602278093E+02 -0.38905914410E+01  0.51941329362E+02  0.93462034875E+02  0.00000000000E+00 0. -1.
        -12    1    4    4    0    0 -0.75440809999E+02 -0.64874150587E+02  0.15589830771E+03  0.18494392008E+03  0.00000000000E+00 0.  1.
</event>
<event>
12    1  0.8416569E-002  0.2028084E+03  0.7818608E-02  0.1147601E+00
         21   -1    0    0  501  502  0.00000000000E+00  0.00000000000E+00  0.14028686570E+04  0.14028686570E+04  0.00000000000E+00 0. -1.
         21   -1    0    0  502  503 -0.00000000000E+00 -0.00000000000E+00 -0.80211408228E+02  0.80211408228E+02  0.00000000000E+00 0. -1.
         -6    2    1    2    0  503 -0.74284580068E+02 -0.78193108246E+02  0.70418175757E+02  0.21468573006E+03  0.17175238631E+03 0.  0.
        -24    2    3    3    0    0 -0.69755853994E+02 -0.46823239140E+02  0.11072421878E+03  0.16319548680E+03  0.85525548213E+02 0.  0.
          6    2    1    2  501    0  0.74284580068E+02  0.78193108246E+02  0.12522390730E+04  0.12683943352E+04  0.17055536485E+03 0.  0.
         24    2    5    5    0    0 -0.91483197032E+00  0.36356013397E+02  0.30742416123E+03  0.31965696286E+03  0.79676611180E+02 0.  0.
          5    1    5    5  501    0  0.75199412038E+02  0.41837094850E+02  0.94481491177E+03  0.94873737229E+03  0.47000000000E+01 0. -1.
        -11    1    6    6    0    0 -0.19071271095E+02  0.25016332062E+02  0.29094867131E+03  0.29264425432E+03  0.00000000000E+00 0.  1.
         12    1    6    6    0    0  0.18156439125E+02  0.11339681335E+02  0.16475489923E+02  0.27012708540E+02  0.00000000000E+00 0. -1.
         -5    1    3    3    0  503 -0.45287260734E+01 -0.31369869107E+02 -0.40306043021E+02  0.51490243266E+02  0.47000000000E+01 0.  1.
         13    1    4    4    0    0  0.56473409286E+01 -0.12985707645E+02 -0.96815488145E+01  0.17153817361E+02  0.00000000000E+00 0. -1.
        -14    1    4    4    0    0 -0.75403194923E+02 -0.33837531495E+02  0.12040576759E+03  0.14604166944E+03  0.00000000000E+00 0.  1.
</event>
<event>
12    1  0.8416569E-002  0.2405419E+03  0.7818608E-02  0.1119541E+00
         21   -1    0    0  503  502  0.00000000000E+00  0.00000000000E+00  0.15543362973E+04  0.15543362973E+04  0.00000000000E+00 0.  1.
         21   -1    0    0  501  503 -0.00000000000E+00 -0.00000000000E+00 -0.53502401506E+02  0.53502401506E+02  0.00000000000E+00 0. -1.
          6    2    1    2  501    0 -0.16567794940E+03 -0.18871758434E+02  0.30491386577E+03  0.38796776094E+03  0.17245634754E+03 0.  0.
         24    2    3    3    0    0 -0.85502926718E+02 -0.61470645460E+02  0.10398892220E+03  0.16743290568E+03  0.78298730717E+02 0.  0.
         -6    2    1    2    0  502  0.16567794940E+03  0.18871758434E+02  0.11959200300E+04  0.12198709379E+04  0.17336395432E+03 0.  0.
        -24    2    5    5    0    0  0.12996889255E+03  0.13394428487E+01  0.50113097877E+03  0.52392809929E+03  0.80465447236E+02 0.  0.
          5    1    3    3  501    0 -0.80175022682E+02  0.42598887025E+02  0.20092494357E+03  0.22053485526E+03  0.47000000000E+01 0. -1.
        -11    1    4    4    0    0 -0.54404582525E+02 -0.48177569817E+01  0.13545076797E+02  0.56272004474E+02  0.00000000000E+00 0.  1.
         12    1    4    4    0    0 -0.31098344193E+02 -0.56652888478E+02  0.90443845405E+02  0.11116090120E+03  0.00000000000E+00 0. -1.
         -5    1    5    5    0  502  0.35709056845E+02  0.17532315586E+02  0.69478905127E+03  0.69594283860E+03  0.47000000000E+01 0.  1.
         13    1    6    6    0    0  0.49656830911E+02  0.39808326863E+02  0.22128350531E+03  0.23025397600E+03  0.00000000000E+00 0. -1.
        -14    1    6    6    0    0  0.80312061644E+02 -0.38468884014E+02  0.27984747346E+03  0.29367412328E+03  0.00000000000E+00 0.  1.
</event>
<event>
12    1  0.8416569E-002  0.1816224E+03  0.7818608E-02  0.1167316E+00
         21   -1    0    0  501  502  0.00000000000E+00  0.00000000000E+00  0.79331699726E+02  0.79331699726E+02  0.00000000000E+00 0.  1.
         21   -1    0    0  502  503 -0.00000000000E+00 -0.00000000000E+00 -0.64513524993E+03  0.64513524993E+03  0.00000000000E+00 0.  1.
         -6    2    1    2    0  503  0.58881609207E+02  0.10812950653E+02 -0.50136129276E+03  0.53175078830E+03  0.16676867565E+03 0.  0.
        -24    2    3    3    0    0  0.35742731051E+02  0.69405508746E+02 -0.32503798381E+03  0.34445291105E+03  0.83086999830E+02 0.  0.
          6    2    1    2  501    0 -0.58881609207E+02 -0.10812950653E+02 -0.64442257449E+02  0.19271616136E+03  0.17147230242E+03 0.  0.
         24    2    5    5    0    0  0.12518411258E+02 -0.47946915388E+02 -0.32096068952E+01  0.91481672407E+02  0.76830836871E+02 0.  0.
          5    1    5    5  501    0 -0.71400020465E+02  0.37133964734E+02 -0.61232650554E+02  0.10123448895E+03  0.47000000000E+01 0. -1.
        -11    1    6    6    0    0 -0.30133737196E+02 -0.33230499739E+02 -0.97060119258E+01  0.45896785266E+02  0.00000000000E+00 0.  1.
         12    1    6    6    0    0  0.42652148454E+02 -0.14716415649E+02  0.64964050306E+01  0.45584887140E+02  0.00000000000E+00 0. -1.
         -5    1    3    3    0  503  0.23138878156E+02 -0.58592558092E+02 -0.17632330894E+03  0.18729787725E+03  0.47000000000E+01 0.  1.
         11    1    4    4    0    0 -0.12361881487E+02  0.50701438925E+02 -0.92028027921E+02  0.10579513196E+03  0.00000000000E+00 0. -1.
        -12    1    4    4    0    0  0.48104612538E+02  0.18704069821E+02 -0.23300995589E+03  0.23865777909E+03  0.00000000000E+00 0.  1.
</event>
<event>
12    1  0.8416569E-002  0.2252630E+03  0.7818608E-02  0.1130167E+00
         21   -1    0    0  503  502  0.00000000000E+00  0.00000000000E+00  0.30891647973E+03  0.30891647973E+03  0.00000000000E+00 0.  1.
         21   -1    0    0  501  503 -0.00000000000E+00 -0.00000000000E+00 -0.56334925372E+03  0.56334925372E+03  0.00000000000E+00 0. -1.
          6    2    1    2  501    0  0.14371936669E+03 -0.29267265213E+02 -0.49464008188E+03  0.54351838359E+03  0.17097249346E+03 0.  0.
         24    2    3    3    0    0  0.12187162759E+03 -0.77981996786E+02 -0.31079617486E+03  0.35202133159E+03  0.79942918080E+02 0.  0.
         -6    2    1    2    0  502 -0.14371936669E+03  0.29267265213E+02  0.24020730790E+03  0.32874734986E+03  0.16989243686E+03 0.  0.
        -24    2    5    5    0    0 -0.38957547291E+02 -0.29885680196E+01  0.33399521215E+02  0.94638340612E+02  0.79462352511E+02 0.  0.
          5    1    3    3  501    0  0.21847739098E+02  0.48714731573E+02 -0.18384390702E+03  0.19149705200E+03  0.47000000000E+01 0. -1.
        -13    1    4    4    0    0  0.90735724356E+02 -0.60315144139E+02 -0.29183683964E+03  0.31151184449E+03  0.00000000000E+00 0.  1.
         14    1    4    4    0    0  0.31135903237E+02 -0.17666852648E+02 -0.18959335216E+02  0.40509487095E+02  0.00000000000E+00 0. -1.
         -5    1    5    5    0  502 -0.10476181940E+03  0.32255833232E+02  0.20680778668E+03  0.23410900925E+03  0.47000000000E+01 0.  1.
         13    1    6    6    0    0 -0.35845822721E+02 -0.30402196277E+02 -0.50952021649E+01  0.47277665235E+02  0.00000000000E+00 0. -1.
        -14    1    6    6    0    0 -0.31117245700E+01  0.27413628258E+02  0.38494723379E+02  0.47360675376E+02  0.00000000000E+00 0.  1.
</event>
<event>
12    1  0.8416569E-002  0.1881195E+03  0.7818608E-02  0.1160197E+00
         21   -1    0    0  503  502  0.00000000000E+00  0.00000000000E+00  0.19365110774E+03  0.19365110774E+03  0.00000000000E+00 0.  1.
         21   -1    0    0  501  503 -0.00000000000E+00 -0.00000000000E+00 -0.23543545900E+03  0.23543545900E+03  0.00000000000E+00 0.  1.
          6    2    1    2  501    0 -0.37492167106E+02 -0.64566569780E+02 -0.12249883622E+03  0.22438241249E+03  0.17253114974E+03 0.  0.
         24    2    3    3    0    0  0.33040970701E+02  0.39752307184E+01 -0.78220580187E+02  0.11642151261E+03  0.79548734938E+02 0.  0.
         -6    2    1    2    0  502  0.37492167106E+02  0.64566569780E+02  0.80714484953E+02  0.20470415425E+03  0.17266863687E+03 0.  0.
        -24    2    5    5    0    0 -0.46949581788E+02  0.31100542109E+02  0.49351839601E+02  0.10849558141E+03  0.78512293078E+02 0.  0.
          5    1    3    3  501    0 -0.70533137807E+02 -0.68541800499E+02 -0.44278256033E+02  0.10796089988E+03  0.47000000000E+01 0. -1.
        -11    1    4    4    0    0  0.48905534205E+02  0.28797805840E+02 -0.52544108884E+02  0.77343055767E+02  0.00000000000E+00 0.  1.
         12    1    4    4    0    0 -0.15864563504E+02 -0.24822575121E+02 -0.25676471303E+02  0.39078456845E+02  0.00000000000E+00 0. -1.
         -5    1    5    5    0  502  0.84441748894E+02  0.33466027672E+02  0.31362645352E+02  0.96208572840E+02  0.47000000000E+01 0.  1.
         13    1    6    6    0    0 -0.54150382839E+02  0.26431722028E+02  0.19136018194E+01  0.60287326719E+02  0.00000000000E+00 0. -1.
        -14    1    6    6    0    0  0.72008010507E+01  0.46688200804E+01  0.47438237782E+02  0.48208254693E+02  0.00000000000E+00 0.  1.
</event>
<event>
12    1  0.8416569E-002  0.2291853E+03  0.7818608E-02  0.1127463E+00
         21   -1    0    0  501  502  0.00000000000E+00  0.00000000000E+00  0.46088839808E+02  0.46088839808E+02  0.00000000000E+00 0.  1.
         21   -1    0    0  502  503 -0.00000000000E+00 -0.00000000000E+00 -0.11386135397E+04  0.11386135397E+04  0.00000000000E+00 0.  1.
         -6    2    1    2    0  503 -0.12038826884E+03  0.90124375001E+02 -0.58728121986E+03  0.62990794024E+03  0.17108197957E+03 0.  0.
        -24    2    3    3    0    0  0.34799741265E+01  0.39138016521E+02 -0.33407069453E+03  0.34341080150E+03  0.69165418308E+02 0.  0.
          6    2    1    2  501    0  0.12038826884E+03 -0.90124375001E+02 -0.50524348008E+03  0.55479443931E+03  0.17294553330E+03 0.  0.
         24    2    5    5    0    0  0.13729323132E+03 -0.51861097406E+02 -0.30583797372E+03  0.35099428688E+03  0.90117248395E+02 0.  0.
          5    1    5    5  501    0 -0.16904962484E+02 -0.38263277594E+02 -0.19940550635E+03  0.20380015244E+03  0.47000000000E+01 0. -1.
        -13    1    6    6    0    0  0.90785120669E+02 -0.71633318946E+02 -0.25135742153E+03  0.27668361693E+03  0.00000000000E+00 0.  1.
         14    1    6    6    0    0  0.46508110651E+02  0.19772221540E+02 -0.54480552196E+02  0.74310669951E+02  0.00000000000E+00 0. -1.
         -5    1    3    3    0  503 -0.12386824296E+03  0.50986358479E+02 -0.25321052534E+03  0.28649713874E+03  0.47000000000E+01 0.  1.
         11    1    4    4    0    0 -0.26557080335E+01 -0.14204343698E+02 -0.19391860539E+02  0.24183887616E+02  0.00000000000E+00 0. -1.
        -12    1    4    4    0    0  0.61356821600E+01  0.53342360220E+02 -0.31467883399E+03  0.31922691389E+03  0.00000000000E+00 0.  1.
</event>
<event>
12    1  0.8416569E-002  0.1741175E+03  0.7818608E-02  0.1173944E+00
         21   -1    0    0  501  502  0.00000000000E+00  0.00000000000E+00  0.24014202906E+03  0.24014202906E+03  0.00000000000E+00 0. -1.
         21   -1    0    0  502  503 -0.00000000000E+00 -0.00000000000E+00 -0.47767028817E+03  0.47767028817E+03  0.00000000000E+00 0. -1.
         -6    2    1    2    0  503  0.76871553400E+01  0.25838525429E+02 -0.42712707798E+03  0.46125312476E+03  0.17201797174E+03 0.  0.
        -24    2    3    3    0    0 -0.35031615623E+02  0.55279031395E+02 -0.37196291337E+03  0.38537946766E+03  0.76667723112E+02 0.  0.
          6    2    1    2  501    0 -0.76871553400E+01 -0.25838525429E+02  0.18959881887E+03  0.25655919247E+03  0.17072839650E+03 0.  0.
         24    2    5    5    0    0 -0.14841611385E+01  0.29418847806E+02  0.35431140628E+02  0.92603047578E+02  0.80326131202E+02 0.  0.
          5    1    5    5  501    0 -0.62029942015E+01 -0.55257373235E+02  0.15416767824E+03  0.16395614490E+03  0.47000000000E+01 0. -1.
        -11    1    6    6    0    0  0.35516264161E+02  0.32407359161E+02  0.24161689337E+02  0.53809192332E+02  0.00000000000E+00 0.  1.
         12    1    6    6    0    0 -0.37000425299E+02 -0.29885113552E+01  0.11269451291E+02  0.38793855246E+02  0.00000000000E+00 0. -1.
         -5    1    3    3    0  503  0.42718770963E+02 -0.29440505966E+02 -0.55164164616E+02  0.75873657101E+02  0.47000000000E+01 0.  1.
         13    1    4    4    0    0 -0.34072127165E+02  0.74262965031E+01 -0.27546861508E+03  0.27766709856E+03  0.00000000000E+00 0. -1.
        -14    1    4    4    0    0 -0.95948845800E+00  0.47852734892E+02 -0.96494298292E+02  0.10771236910E+03  0.00000000000E+00 0.  1.
</event>
<event>
12    1  0.8416569E-002  0.1868994E+03  0.7818608E-02  0.1161292E+00
         21   -1    0    0  503  502  0.00000000000E+00  0.00000000000E+00  0.83142546109E+03  0.83142546109E+03  0.00000000000E+00 0. -1.
         21   -1    0    0  501  503 -0.00000000000E+00 -0.00000000000E+00 -0.63068384097E+02  0.63068384097E+02  0.00000000000E+00 0. -1.
          6    2    1    2  501    0  0.68465645865E+02  0.19592414730E+02  0.12573275688E+03  0.22524247382E+03  0.17278321239E+03 0.  0.
         24    2    3    3    0    0  0.15294691337E+02  0.54060247640E+02  0.17175204132E+02  0.99456885740E+02  0.80251146572E+02 0.  0.
         -6    2    1    2    0  502 -0.68465645865E+02 -0.19592414730E+02  0.64262432012E+03  0.66925137137E+03  0.17280038742E+03 0.  0.
        -24    2    5    5    0    0 -0.48211651616E+02 -0.44125067391E+02  0.62330026388E+03  0.63173358253E+03  0.79452598590E+02 0.  0.
          5    1    3    3  501    0  0.53170954528E+02 -0.34467832910E+02  0.10855755274E+03  0.12578558808E+03  0.47000000000E+01 0. -1.
        -11    1    4    4    0    0 -0.26709082835E+01 -0.76359474063E+01  0.32420446684E+02  0.33414470025E+02  0.00000000000E+00 0.  1.
         12    1    4    4    0    0  0.17965599621E+02  0.61696195046E+02 -0.15245242553E+02  0.66042415714E+02  0.00000000000E+00 0. -1.
         -5    1    5    5    0  502 -0.20253994248E+02  0.24532652662E+02  0.19324056238E+02  0.37517788835E+02  0.47000000000E+01 0.  1.
         11    1    6    6    0    0 -0.67710987173E+02 -0.46677117706E+02  0.53381175935E+03  0.54010973470E+03  0.00000000000E+00 0. -1.
        -12    1    6    6    0    0  0.19499335557E+02  0.25520503143E+01  0.89488504535E+02  0.91623847834E+02  0.00000000000E+00 0.  1.
</event>
<event>
12    1  0.8416569E-002  0.3128580E+03  0.7818608E-02  0.1079736E+00
         21   -1    0    0  503  502  0.00000000000E+00  0.00000000000E+00  0.25838285731E+03  0.25838285731E+03  0.00000000000E+00 0. -1.
         21   -1    0    0  501  503 -0.00000000000E+00 -0.00000000000E+00 -0.43685028475E+03  0.43685028475E+03  0.00000000000E+00 0. -1.
          6    2    1    2  501    0  0.13643990316E+03  0.21606954700E+03 -0.22316167458E+03  0.37919885159E+03  0.16937750656E+03 0.  0.
         24    2    3    3    0    0  0.51199084278E+02  0.58613900751E+02 -0.10783997225E+03  0.16617429252E+03  0.99636842012E+02 0.  0.
         -6    2    1    2    0  502 -0.13643990316E+03 -0.21606954700E+03  0.44694247141E+02  0.31603429047E+03  0.18049432321E+03 0.  0.
        -24    2    5    5    0    0 -0.13150051847E+03 -0.23000522008E+03  0.88850602462E+01  0.27700880686E+03  0.80375040627E+02 0.  0.
          5    1    3    3  501    0  0.85240818881E+02  0.15745564625E+03 -0.11532170232E+03  0.21302455907E+03  0.47000000000E+01 0. -1.
        -13    1    4    4    0    0 -0.27428078842E+02  0.34637761264E+02 -0.35578821160E+02  0.56726770836E+02  0.00000000000E+00 0.  1.
         14    1    4    4    0    0  0.78627163120E+02  0.23976139487E+02 -0.72261151093E+02  0.10944752168E+03  0.00000000000E+00 0. -1.
         -5    1    5    5    0  502 -0.49393846852E+01  0.13935673081E+02  0.35809186894E+02  0.39025483614E+02  0.47000000000E+01 0.  1.
         11    1    6    6    0    0 -0.10517579351E+03 -0.10353847069E+03  0.84694345981E+01  0.14783062529E+03  0.00000000000E+00 0. -1.
        -12    1    6    6    0    0 -0.26324724968E+02 -0.12646674940E+03  0.41562564816E+00  0.12917818156E+03  0.00000000000E+00 0.  1.
</event>
<event>
12    1  0.8416569E-002  0.2585235E+03  0.7818608E-02  0.1108345E+00
         21   -1    0    0  501  502  0.00000000000E+00  0.00000000000E+00  0.32719782562E+03  0.32719782562E+03  0.00000000000E+00 0. -1.
         21   -1    0    0  502  503 -0.00000000000E+00 -0.00000000000E+00 -0.21087704946E+03  0.21087704946E+03  0.00000000000E+00 0.  1.
         -6    2    1    2    0  503 -0.17356611376E+03 -0.76176871747E+02  0.11152483041E+03  0.28155319706E+03  0.17580188663E+03 0.  0.
        -24    2    3    3    0    0 -0.19831838704E+03 -0.72554469269E+02  0.11851656283E+03  0.25515677392E+03  0.80401927624E+02 0.  0.
          6    2    1    2  501    0  0.17356611376E+03  0.76176871747E+02  0.47959457487E+01  0.25652167802E+03  0.17277806159E+03 0.  0.
         24    2    5    5    0    0  0.12047797072E+03 -0.12558376855E+02  0.33533034725E+02  0.14909632925E+03  0.80203470753E+02 0.  0.
          5    1    5    5  501    0  0.53088143036E+02  0.88735248602E+02 -0.28737088977E+02  0.10742534877E+03  0.47000000000E+01 0. -1.
        -13    1    6    6    0    0  0.31647876239E+02  0.42988429114E+01 -0.25709753134E+02  0.41000725933E+02  0.00000000000E+00 0.  1.
         14    1    6    6    0    0  0.88830094482E+02 -0.16857219766E+02  0.59242787860E+02  0.10809560332E+03  0.00000000000E+00 0. -1.
         -5    1    3    3    0  503  0.24752273279E+02 -0.36224024778E+01 -0.69917324235E+01  0.26396423138E+02  0.47000000000E+01 0.  1.
         11    1    4    4    0    0 -0.81279384067E+02 -0.58232378188E+02  0.88395444839E+02  0.13345824370E+03  0.00000000000E+00 0. -1.
        -12    1    4    4    0    0 -0.11703900297E+03 -0.14322091082E+02  0.30121117996E+02  0.12169853022E+03  0.00000000000E+00 0.  1.
</event>
<event>
12    1  0.8416569E-002  0.1837937E+03  0.7818608E-02  0.1164507E+00
         21   -1    0    0  503  502  0.00000000000E+00  0.00000000000E+00  0.12899892856E+03  0.12899892856E+03  0.00000000000E+00 0.  1.
         21   -1    0    0  501  503 -0.00000000000E+00 -0.00000000000E+00 -0.28875081571E+03  0.28875081571E+03  0.00000000000E+00 0.  1.
          6    2    1    2  501    0  0.54724609432E+02  0.29400075046E+02 -0.14616380077E+03  0.23482757261E+03  0.17297683345E+03 0.  0.
         24    2    3    3    0    0  0.53595161352E+02  0.30170280721E+02 -0.11986675353E+02  0.10056119612E+03  0.78652314775E+02 0.  0.
         -6    2    1    2    0  502 -0.54724609432E+02 -0.29400075046E+02 -0.13588086369E+02  0.18292217166E+03  0.17151308260E+03 0.  0.
        -24    2    5    5    0    0 -0.53525284171E+02 -0.42880734508E+02 -0.70788755417E+02  0.12395461193E+03  0.75166378712E+02 0.  0.
          5    1    3    3  501    0  0.11294480802E+01 -0.77020567441E+00 -0.13417712542E+03  0.13426637649E+03  0.47000000000E+01 0. -1.
        -11    1    4    4    0    0  0.43126830105E+02  0.56458823299E+02 -0.39950906463E+01  0.71158154505E+02  0.00000000000E+00 0.  1.
         12    1    4    4    0    0  0.10468331247E+02 -0.26288542578E+02 -0.79915847070E+01  0.29403041613E+02  0.00000000000E+00 0. -1.
         -5    1    5    5    0  502 -0.11993252610E+01  0.13480659461E+02  0.57200669048E+02  0.58967559726E+02  0.47000000000E+01 0.  1.
         13    1    6    6    0    0 -0.15066463871E+00  0.56500910575E+01 -0.47956200944E+02  0.48288129367E+02  0.00000000000E+00 0. -1.
        -14    1    6    6    0    0 -0.53374619533E+02 -0.48530825565E+02 -0.22832554472E+02  0.75666482567E+02  0.00000000000E+00 0.  1.
</event>
<event>
12    1  0.8416569E-002  0.1733592E+03  0.7818608E-02  0.1174398E+00
         21   -1    0    0  501  502  0.00000000000E+00  0.00000000000E+00  0.57088924493E+03  0.57088924493E+03  0.00000000000E+00 0.  1.
         21   -1    0    0  502  503 -0.00000000000E+00 -0.00000000000E+00 -0.79249205789E+02  0.79249205789E+02  0.00000000000E+00 0.  1.
         -6    2    1    2    0  503  0.18112312456E+02 -0.44936841182E+00  0.57416647523E+02  0.18258807065E+03  0.17237596797E+03 0.  0.
        -24    2    3    3    0    0  0.66509037019E+02 -0.29044999826E+02  0.13768674753E+02  0.11126354042E+03  0.83204176597E+02 0.  0.
          6    2    1    2  501    0 -0.18112312456E+02  0.44936841182E+00  0.43422339162E+03  0.46755038007E+03  0.17240982073E+03 0.  0.
         24    2    5    5    0    0  0.79010700540E+01 -0.47331241811E+02  0.14819007489E+03  0.17635142564E+03  0.82685268765E+02 0.  0.
          5    1    5    5  501    0 -0.26013382510E+02  0.47780610223E+02  0.28603331673E+03  0.29119895443E+03  0.47000000000E+01 0. -1.
        -11    1    6    6    0    0  0.13291018491E+02 -0.58669878042E+02  0.15180251756E+03  0.16328750748E+03  0.00000000000E+00 0.  1.
         12    1    6    6    0    0 -0.53899484374E+01  0.11338636231E+02 -0.36124426677E+01  0.13063918163E+02  0.00000000000E+00 0. -1.
         -5    1    3    3    0  503 -0.48396724563E+02  0.28595631414E+02  0.43647972770E+02  0.71324530222E+02  0.47000000000E+01 0.  1.
         11    1    4    4    0    0  0.47181046136E+02 -0.13770148118E+02  0.48257446292E+02  0.68879962372E+02  0.00000000000E+00 0. -1.
        -12    1    4    4    0    0  0.19327990884E+02 -0.15274851708E+02 -0.34488771539E+02  0.42383578053E+02  0.00000000000E+00 0.  1.
</event>
<event>
12    1  0.8416569E-002  0.2751832E+03  0.7818608E-02  0.1098459E+00
         21   -1    0    0  501  502  0.00000000000E+00  0.00000000000E+00  0.67554446562E+02  0.67554446562E+02  0.00000000000E+00 0.  1.
         21   -1    0    0  502  503 -0.00000000000E+00 -0.00000000000E+00 -0.11741344803E+04  0.11741344803E+04  0.00000000000E+00 0.  1.
         -6    2    1    2    0  503  0.16687623546E+03  0.13125818074E+03 -0.69006506180E+03  0.74291021946E+03  0.17506974807E+03 0.  0.
        -24    2    3    3    0    0  0.19582614555E+02  0.85964608203E+02 -0.28157493593E+03  0.30629460887E+03  0.82210402180E+02 0.  0.
          6    2    1    2  501    0 -0.16687623546E+03 -0.13125818074E+03 -0.41651497194E+03  0.49877870741E+03  0.17383638612E+03 0.  0.
         24    2    5    5    0    0 -0.18983317827E+03 -0.11838394199E+03 -0.40548548696E+03  0.46985628037E+03  0.79341356047E+02 0.  0.
          5    1    5    5  501    0  0.22956942810E+02 -0.12874238748E+02 -0.11029484985E+02  0.28922427035E+02  0.47000000000E+01 0. -1.
        -13    1    6    6    0    0 -0.44029222904E+02 -0.13478897671E+01 -0.40822665723E+02  0.60057300248E+02  0.00000000000E+00 0.  1.
         14    1    6    6    0    0 -0.14580395536E+03 -0.11703605223E+03 -0.36466282123E+03  0.40979898012E+03  0.00000000000E+00 0. -1.
         -5    1    3    3    0  503  0.14729362090E+03  0.45293572538E+02 -0.40849012587E+03  0.43661561058E+03  0.47000000000E+01 0.  1.
         13    1    4    4    0    0  0.89832422423E+01  0.50941349680E+02 -0.50329268209E+02  0.72171704891E+02  0.00000000000E+00 0. -1.
        -14    1    4    4    0    0  0.10599372313E+02  0.35023258523E+02 -0.23124566772E+03  0.23412290398E+03  0.00000000000E+00 0.  1.
</event>
<event>
12    1  0.8416569E-002  0.2622153E+03  0.7818608E-02  0.1105880E+00
         21   -1    0    0  501  502  0.00000000000E+00  0.00000000000E+00  0.31555142043E+03  0.31555142043E+03  0.00000000000E+00 0.  1.
         21   -1    0    0  502  503 -0.00000000000E+00 -0.00000000000E+00 -0.48478642917E+03  0.48478642917E+03  0.00000000000E+00 0.  1.
         -6    2    1    2    0  503 -0.57098377396E+02 -0.18780511369E+03 -0.38169377515E+03  0.46285366557E+03  0.17324085059E+03 0.  0.
        -24    2    3    3    0    0 -0.50612992253E+02 -0.10150976949E+03 -0.10229449636E+03  0.17032162692E+03  0.75361690026E+02 0.  0.
          6    2    1    2  501    0  0.57098377396E+02  0.18780511369E+03  0.21245876641E+03  0.33748418403E+03  0.17385586448E+03 0.  0.
         24    2    5    5    0    0  0.95282448051E+02  0.11419235681E+03  0.95626321621E+02  0.19413575752E+03  0.80160212695E+02 0.  0.
          5    1    5    5  501    0 -0.38184070655E+02  0.73612756884E+02  0.11683244479E+03  0.14334842651E+03  0.47000000000E+01 0. -1.
        -11    1    6    6    0    0  0.55325590445E+02  0.31572717581E+02  0.30419733042E+01  0.63773121730E+02  0.00000000000E+00 0.  1.
         12    1    6    6    0    0  0.39956857606E+02  0.82619639226E+02  0.92584348317E+02  0.13036263579E+03  0.00000000000E+00 0. -1.
         -5    1    3    3    0  503 -0.64853851426E+01 -0.86295344204E+02 -0.27939927879E+03  0.29253203865E+03  0.47000000000E+01 0.  1.
         13    1    4    4    0    0 -0.27556143095E+02  0.21925353368E+01 -0.93918215586E+01  0.29195111674E+02  0.00000000000E+00 0. -1.
        -14    1    4    4    0    0 -0.23056849158E+02 -0.10370230482E+03 -0.92902674804E+02  0.14112651524E+03  0.00000000000E+00 0.  1.
</event>
<event>
12    1  0.8416569E-002  0.1822696E+03  0.7818608E-02  0.1165755E+00
         21   -1    0    0  501  502  0.00000000000E+00  0.00000000000E+00  0.64857827090E+02  0.64857827090E+02  0.00000000000E+00 0. -1.
         21   -1    0    0  502  503 -0.00000000000E+00 -0.00000000000E+00 -0.53401692069E+03  0.53401692069E+03  0.00000000000E+00 0.  1.
         -6    2    1    2    0  503  0.51319538983E+02  0.32288089218E+02 -0.29749265184E+03  0.34888980713E+03  0.17188951055E+03 0.  0.
        -24    2    3    3    0    0  0.93023212610E+02  0.24386634370E+02 -0.14688029175E+03  0.19234012686E+03  0.78567666860E+02 0.  0.
          6    2    1    2  501    0 -0.51319538983E+02 -0.32288089218E+02 -0.17166644176E+03  0.24998494065E+03  0.17130933289E+03 0.  0.
         24    2    5    5    0    0 -0.88757829363E+02 -0.35661718075E+02 -0.17107939516E+03  0.21209771876E+03  0.81040560500E+02 0.  0.
          5    1    5    5  501    0  0.37438290380E+02  0.33736288568E+01 -0.58704659899E+00  0.37887221882E+02  0.47000000000E+01 0. -1.
        -13    1    6    6    0    0 -0.97436223391E+01 -0.11748712165E+02 -0.10568501762E+03  0.10678152163E+03  0.00000000000E+00 0.  1.
         14    1    6    6    0    0 -0.79014207024E+02 -0.23913005909E+02 -0.65394377546E+02  0.10531619713E+03  0.00000000000E+00 0. -1.
         -5    1    3    3    0  503 -0.41703673628E+02  0.79014548477E+01 -0.15061236008E+03  0.15654968027E+03  0.47000000000E+01 0.  1.
         11    1    4    4    0    0  0.30968093412E+02 -0.27553904250E+02 -0.34943699874E+02  0.54215335560E+02  0.00000000000E+00 0. -1.
        -12    1    4    4    0    0  0.62055119198E+02  0.51940538620E+02 -0.11193659188E+03  0.13812479130E+03  0.00000000000E+00 0.  1.
</event>
<event>
12    1  0.8416569E-002  0.1956792E+03  0.7818608E-02  0.1153586E+00
         21   -1    0    0  501  502  0.00000000000E+00  0.00000000000E+00  0.19186439043E+03  0.19186439043E+03  0.00000000000E+00 0.  1.
         21   -1    0    0  502  503 -0.00000000000E+00 -0.00000000000E+00 -0.30426473216E+03  0.30426473216E+03  0.00000000000E+00 0.  1.
         -6    2    1    2    0  503 -0.84580182087E+02 -0.41364048195E+02 -0.20213381571E+03  0.28085616576E+03  0.17075513084E+03 0.  0.
        -24    2    3    3    0    0 -0.67970462099E+02 -0.87474725191E+02 -0.18105408059E+03  0.22729757575E+03  0.81312954565E+02 0.  0.
          6    2    1    2  501    0  0.84580182087E+02  0.41364048195E+02  0.89733473979E+02  0.21527295683E+03  0.17153879417E+03 0.  0.
         24    2    5    5    0    0 -0.99971104909E+01 -0.19961910331E+02  0.35246169157E+02  0.89986509649E+02  0.79729915316E+02 0.  0.
          5    1    5    5  501    0  0.94577292578E+02  0.61325958526E+02  0.54487304822E+02  0.12528644718E+03  0.47000000000E+01 0. -1.
        -13    1    6    6    0    0 -0.48105245815E+01  0.27114220294E+02  0.32426387472E+02  0.42541658329E+02  0.00000000000E+00 0.  1.
         14    1    6    6    0    0 -0.51865859095E+01 -0.47076130625E+02  0.28197816857E+01  0.47444851320E+02  0.00000000000E+00 0. -1.
         -5    1    3    3    0  503 -0.16609719988E+02  0.46110676995E+02 -0.21079735117E+02  0.53558590008E+02  0.47000000000E+01 0.  1.
         13    1    4    4    0    0  0.13182918045E+02 -0.28855145387E+02 -0.75119128099E+02  0.81543191928E+02  0.00000000000E+00 0. -1.
        -14    1    4    4    0    0 -0.81153380144E+02 -0.58619579804E+02 -0.10593495249E+03  0.14575438383E+03  0.00000000000E+00 0.  1.
</event>
<event>
12    1  0.8416569E-002  0.2698348E+03  0.7818608E-02  0.1101478E+00
         21   -1    0    0  501  502  0.00000000000E+00  0.00000000000E+00  0.88048116064E+03  0.88048116064E+03  0.00000000000E+00 0. -1.
         21   -1    0    0  502  503 -0.00000000000E+00 -0.00000000000E+00 -0.27658223426E+03  0.27658223426E+03  0.00000000000E+00 0. -1.
         -6    2    1    2    0  503  0.33494893802E+02 -0.20479593068E+03 -0.18259021142E+03  0.32580666436E+03  0.17247468249E+03 0.  0.
        -24    2    3    3    0    0 -0.37717252550E+02 -0.14425132841E+03 -0.81133087062E+02  0.18777602741E+03  0.80288366318E+02 0.  0.
          6    2    1    2  501    0 -0.33494893802E+02  0.20479593068E+03  0.78648913780E+03  0.83125673054E+03  0.17134557785E+03 0.  0.
         24    2    5    5    0    0  0.43777410498E+02  0.96834675449E+02  0.45709122993E+03  0.47607830587E+03  0.80154505771E+02 0.  0.
          5    1    5    5  501    0 -0.77272304300E+02  0.10796125523E+03  0.32939790787E+03  0.35517842467E+03  0.47000000000E+01 0. -1.
        -13    1    6    6    0    0 -0.18752929303E+02  0.19241485750E+01  0.82354867618E+02  0.84484903536E+02  0.00000000000E+00 0.  1.
         14    1    6    6    0    0  0.62530339801E+02  0.94910526874E+02  0.37473636232E+03  0.39159340233E+03  0.00000000000E+00 0. -1.
         -5    1    3    3    0  503  0.71212146352E+02 -0.60544602267E+02 -0.10145712436E+03  0.13803063694E+03  0.47000000000E+01 0.  1.
         13    1    4    4    0    0 -0.53000239163E+01 -0.12791200267E+03 -0.42813048084E+02  0.13499084327E+03  0.00000000000E+00 0. -1.
        -14    1    4    4    0    0 -0.32417228634E+02 -0.16339325748E+02 -0.38320038978E+02  0.52785184147E+02  0.00000000000E+00 0.  1.
</event>
<event>
12    1  0.8416569E-002  0.2123378E+03  0.7818608E-02  0.1139804E+00
         21   -1    0    0  501  502  0.00000000000E+00  0.00000000000E+00  0.33746860369E+03  0.33746860369E+03  0.00000000000E+00 0.  1.
         21   -1    0    0  502  503 -0.00000000000E+00 -0.00000000000E+00 -0.22009500525E+03  0.22009500525E+03  0.00000000000E+00 0. -1.
         -6    2    1    2    0  503 -0.85647963137E+02  0.89905522582E+02 -0.11628875457E+03  0.24209588868E+03  0.17224624320E+03 0.  0.
        -24    2    3    3    0    0 -0.76250112476E+01  0.59969356482E+01 -0.93235908152E+02  0.12512685128E+03  0.82883594930E+02 0.  0.
          6    2    1    2  501    0  0.85647963137E+02 -0.89905522582E+02  0.23366235300E+03  0.31546772026E+03  0.17176498694E+03 0.  0.
         24    2    5    5    0    0 -0.37770181729E+01 -0.67425968314E+02  0.55067876692E+02  0.11441987867E+03  0.74154639244E+02 0.  0.
          5    1    5    5  501    0  0.89424981310E+02 -0.22479554268E+02  0.17859447631E+03  0.20104784159E+03  0.47000000000E+01 0. -1.
        -11    1    6    6    0    0 -0.16553227737E+02 -0.52708561585E+02  0.70494639654E+02  0.89563921491E+02  0.00000000000E+00 0.  1.
         12    1    6    6    0    0  0.12776209564E+02 -0.14717406729E+02 -0.15426762962E+02  0.24855957176E+02  0.00000000000E+00 0. -1.
         -5    1    3    3    0  503 -0.78022951890E+02  0.83908586934E+02 -0.23052846414E+02  0.11696903740E+03  0.47000000000E+01 0.  1.
         13    1    4    4    0    0  0.25528617568E+02 -0.45986777334E+01 -0.35853120161E+00  0.25941987133E+02  0.00000000000E+00 0. -1.
        -14    1    4    4    0    0 -0.33153628815E+02  0.10595613382E+02 -0.92877376950E+02  0.99184864146E+02  0.00000000000E+00 0.  1.
</event>
<event>
12    1  0.8416569E-002  0.2406605E+03  0.7818608E-02  0.1119461E+00
         21   -1    0    0  503  502  0.00000000000E+00  0.00000000000E+00  0.57453274773E+03  0.57453274773E+03  0.00000000000E+00 0.  1.
         21   -1    0    0  501  503 -0.00000000000E+00 -0.00000000000E+00 -0.12758842478E+03  0.12758842478E+03  0.00000000000E+00 0. -1.
          6    2    1    2  501    0  0.59983885190E+02  0.15800317948E+03  0.62061809500E+02  0.24853403562E+03  0.17133133821E+03 0.  0.
         24    2    3    3    0    0  0.73627622817E+01  0.43867607433E+02  0.79761684252E+02  0.12152503220E+03  0.80173748360E+02 0.  0.
         -6    2    1    2    0  502 -0.59983885190E+02 -0.15800317948E+03  0.38488251345E+03  0.45358713689E+03  0.17042203609E+03 0.  0.
        -24    2    5    5    0    0 -0.78726047364E+02 -0.17315679389E+03  0.37611543453E+03  0.42751315857E+03  0.71579430417E+02 0.  0.
          5    1    3    3  501    0  0.52621122908E+02  0.11413557205E+03 -0.17699874752E+02  0.12700900342E+03  0.47000000000E+01 0. -1.
        -13    1    4    4    0    0 -0.89471164135E+01  0.49551723464E+02  0.88761348993E+02  0.10204901403E+03  0.00000000000E+00 0.  1.
         14    1    4    4    0    0  0.16309878695E+02 -0.56841160311E+01 -0.89996647410E+01  0.19476018165E+02  0.00000000000E+00 0. -1.
         -5    1    5    5    0  502  0.18742162174E+02  0.15153614407E+02  0.87670789193E+01  0.26073978318E+02  0.47000000000E+01 0.  1.
         13    1    6    6    0    0  0.27441863735E+01 -0.63456624762E+02  0.86848592515E+02  0.10759624439E+03  0.00000000000E+00 0. -1.
        -14    1    6    6    0    0 -0.81470233738E+02 -0.10970016913E+03  0.28926684201E+03  0.31991691418E+03  0.00000000000E+00 0.  1.
</event>
<event>
12    1  0.8416569E-002  0.1802716E+03  0.7818608E-02  0.1167680E+00
         21   -1    0    0  501  502  0.00000000000E+00  0.00000000000E+00  0.20872607317E+03  0.20872607317E+03  0.00000000000E+00 0.  1.
         21   -1    0    0  502  503 -0.00000000000E+00 -0.00000000000E+00 -0.69417500245E+03  0.69417500245E+03  0.00000000000E+00 0.  1.
         -6    2    1    2    0  503  0.30176326383E+02  0.44860709352E+02 -0.64043397129E+03  0.66516545500E+03  0.17136603230E+03 0.  0.
        -24    2    3    3    0    0  0.59939557979E+02  0.36599628209E+02 -0.23133224159E+03  0.25487237601E+03  0.80703399325E+02 0.  0.
          6    2    1    2  501    0 -0.30176326383E+02 -0.44860709352E+02  0.15498504201E+03  0.23773562062E+03  0.17197316113E+03 0.  0.
         24    2    5    5    0    0 -0.14115631831E+02  0.31730929518E+02  0.12837783071E+03  0.15494516980E+03  0.79504938699E+02 0.  0.
          5    1    5    5  501    0 -0.16060694552E+02 -0.76591638870E+02  0.26607211302E+02  0.82790450823E+02  0.47000000000E+01 0. -1.
        -13    1    6    6    0    0 -0.41460252557E+02  0.69015507992E+01  0.35584943879E+02  0.55071518741E+02  0.00000000000E+00 0.  1.
         14    1    6    6    0    0  0.27344620726E+02  0.24829378718E+02  0.92792886828E+02  0.99873651060E+02  0.00000000000E+00 0. -1.
         -5    1    3    3    0  503 -0.29763231596E+02  0.82610811424E+01 -0.40910172970E+03  0.41029307898E+03  0.47000000000E+01 0.  1.
         11    1    4    4    0    0 -0.32906617324E+01  0.41722316313E+02 -0.70577409292E+02  0.82053341404E+02  0.00000000000E+00 0. -1.
        -12    1    4    4    0    0  0.63230219711E+02 -0.51226881034E+01 -0.16075483229E+03  0.17281903461E+03  0.00000000000E+00 0.  1.
</event>
<event>
12    1  0.8416569E-002  0.1869673E+03  0.7818608E-02  0.1161254E+00
         21   -1    0    0  503  502  0.00000000000E+00  0.00000000000E+00  0.22141133097E+03  0.22141133097E+03  0.00000000000E+00 0.  1.
         21   -1    0    0  501  503 -0.00000000000E+00 -0.00000000000E+00 -0.17939147688E+03  0.17939147688E+03  0.00000000000E+00 0.  1.
          6    2    1    2  501    0  0.75612511780E+02 -0.17585364847E+02 -0.48560387892E+02  0.19304919486E+03  0.16995112053E+03 0.  0.
         24    2    3    3    0    0  0.29226830218E+02 -0.32766301147E+02 -0.88593737670E+02  0.12974949995E+03  0.84013357792E+02 0.  0.
         -6    2    1    2    0  502 -0.75612511780E+02  0.17585364847E+02  0.90580241989E+02  0.20775361299E+03  0.17008905455E+03 0.  0.
        -24    2    5    5    0    0 -0.23795989864E+02  0.65044672173E+02  0.87469887552E+02  0.13726175460E+03  0.79954671754E+02 0.  0.
          5    1    3    3  501    0  0.46385681561E+02  0.15180936300E+02  0.40033349778E+02  0.63299694907E+02  0.47000000000E+01 0. -1.
        -11    1    4    4    0    0  0.48447979417E+02  0.82601063388E+01 -0.40583889946E+02  0.63737651270E+02  0.00000000000E+00 0.  1.
         12    1    4    4    0    0 -0.19221149198E+02 -0.41026407485E+02 -0.48009847723E+02  0.66011848679E+02  0.00000000000E+00 0. -1.
         -5    1    5    5    0  502 -0.51816521915E+02 -0.47459307326E+02  0.31103544376E+01  0.70491858395E+02  0.47000000000E+01 0.  1.
         13    1    6    6    0    0 -0.34658719833E+02  0.16935052415E+02  0.78032115765E+02  0.87046159890E+02  0.00000000000E+00 0. -1.
        -14    1    6    6    0    0  0.10862729969E+02  0.48109619757E+02  0.94377717868E+01  0.50215594708E+02  0.00000000000E+00 0.  1.
</event>
<event>
12    1  0.8416569E-002  0.2903089E+03  0.7818608E-02  0.1090577E+00
         21   -1    0    0  503  502  0.00000000000E+00  0.00000000000E+00  0.24649377086E+03  0.24649377086E+03  0.00000000000E+00 0. -1.
         21   -1    0    0  501  503 -0.00000000000E+00 -0.00000000000E+00 -0.37921048392E+03  0.37921048392E+03  0.00000000000E+00 0.  1.
          6    2    1    2  501    0 -0.13270902182E+03  0.19215419685E+03  0.35934114092E+02  0.29252438834E+03  0.17246546720E+03 0.  0.
         24    2    3    3    0    0 -0.15841130236E+03  0.14187882831E+03  0.22992734450E+01  0.22663347536E+03  0.78317959997E+02 0.  0.
         -6    2    1    2    0  502  0.13270902182E+03 -0.19215419685E+03 -0.16865082715E+03  0.33317986644E+03  0.16742401878E+03 0.  0.
        -24    2    5    5    0    0  0.39769816154E+02 -0.16673122455E+03 -0.12827984223E+03  0.22860486994E+03  0.80146922081E+02 0.  0.
          5    1    3    3  501    0  0.25702280543E+02  0.50275368543E+02  0.33634840647E+02  0.65890912975E+02  0.47000000000E+01 0. -1.
        -11    1    4    4    0    0 -0.44427600884E+02  0.71600449896E+01 -0.19070428279E+02  0.48874934264E+02  0.00000000000E+00 0.  1.
         12    1    4    4    0    0 -0.11398370148E+03  0.13471878332E+03  0.21369701724E+02  0.17775854110E+03  0.00000000000E+00 0. -1.
         -5    1    5    5    0  502  0.92939205665E+02 -0.25422972299E+02 -0.40370984918E+02  0.10457499650E+03  0.47000000000E+01 0.  1.
         13    1    6    6    0    0  0.19257072967E+01  0.26764435268E+01  0.75210126488E+01  0.82120234905E+01  0.00000000000E+00 0. -1.
        -14    1    6    6    0    0  0.37844108857E+02 -0.16940766808E+03 -0.13580085488E+03  0.22039284645E+03  0.00000000000E+00 0.  1.
</event>
<event>
12    1  0.8416569E-002  0.1746959E+03  0.7818608E-02  0.1173757E+00
         21   -1    0    0  503  502  0.00000000000E+00  0.00000000000E+00  0.42313471342E+03  0.42313471342E+03  0.00000000000E+00 0. -1.
         21   -1    0    0  501  503 -0.00000000000E+00 -0.00000000000E+00 -0.15952989103E+03  0.15952989103E+03  0.00000000000E+00 0. -1.
          6    2    1    2  501    0  0.15955138615E+02  0.21959015968E+02 -0.85750604707E+02  0.19206525144E+03  0.16970306353E+03 0.  0.
         24    2    3    3    0    0 -0.52228856652E+02  0.12909163044E+02 -0.82741340484E+02  0.12305726118E+03  0.73501429556E+02 0.  0.
         -6    2    1    2    0  502 -0.15955138615E+02 -0.21959015968E+02  0.34935542709E+03  0.39059935301E+03  0.17257426026E+03 0.  0.
        -24    2    5    5    0    0  0.49706722082E+01 -0.53970822825E+02  0.33649041007E+03  0.34997615767E+03  0.79498160794E+02 0.  0.
          5    1    3    3  501    0  0.68183995268E+02  0.90498529249E+01 -0.30092642234E+01  0.69007990260E+02  0.47000000000E+01 0. -1.
        -11    1    4    4    0    0 -0.48713926567E+02 -0.23700498102E+02 -0.45957865986E+02  0.71041436485E+02  0.00000000000E+00 0.  1.
         12    1    4    4    0    0 -0.35149300856E+01  0.36609661146E+02 -0.36783474498E+02  0.52015824696E+02  0.00000000000E+00 0. -1.
         -5    1    5    5    0  502 -0.20925810823E+02  0.32011806857E+02  0.12865017022E+02  0.40623195343E+02  0.47000000000E+01 0.  1.
         13    1    6    6    0    0  0.38355514094E+02 -0.32624614351E+02  0.24737594208E+03  0.25244874261E+03  0.00000000000E+00 0. -1.
        -14    1    6    6    0    0 -0.33384841886E+02 -0.21346208475E+02  0.89114467983E+02  0.97527415058E+02  0.00000000000E+00 0.  1.
</event>
<event>
12    1  0.8416569E-002  0.2030699E+03  0.7818608E-02  0.1147299E+00
         21   -1    0    0  503  502  0.00000000000E+00  0.00000000000E+00  0.33350986446E+02  0.33350986446E+02  0.00000000000E+00 0.  1.
         21   -1    0    0  501  503 -0.00000000000E+00 -0.00000000000E+00 -0.15678342831E+04  0.15678342831E+04  0.00000000000E+00 0. -1.
          6    2    1    2  501    0  0.71388019953E+02 -0.77539947393E+02 -0.11364348221E+04  0.11543296205E+04  0.17287010982E+03 0.  0.
         24    2    3    3    0    0  0.51882603131E+02 -0.11409947824E+03 -0.10087185779E+04  0.10199771377E+04  0.84437530696E+02 0.  0.
         -6    2    1    2    0  502 -0.71388019953E+02  0.77539947393E+02 -0.39804847452E+03  0.44685564909E+03  0.17357617987E+03 0.  0.
        -24    2    5    5    0    0 -0.91225576226E+02  0.25593302402E+02 -0.15570191194E+03  0.19816723167E+03  0.77782025172E+02 0.  0.
          5    1    3    3  501    0  0.19505416823E+02  0.36559530851E+02 -0.12771624425E+03  0.13435248277E+03  0.47000000000E+01 0. -1.
        -13    1    4    4    0    0 -0.12649453526E+02  0.14816598917E+01 -0.33933925087E+02  0.36245210199E+02  0.00000000000E+00 0.  1.
         14    1    4    4    0    0  0.64532056656E+02 -0.11558113814E+03 -0.97478465279E+03  0.98373192748E+03  0.00000000000E+00 0. -1.
         -5    1    5    5    0  502  0.19837556273E+02  0.51946644991E+02 -0.24234656257E+03  0.24868841741E+03  0.47000000000E+01 0.  1.
         11    1    6    6    0    0 -0.44432122653E+02  0.43074931422E+02 -0.12514493944E+03  0.13960988184E+03  0.00000000000E+00 0. -1.
        -12    1    6    6    0    0 -0.46793453573E+02 -0.17481629020E+02 -0.30556972503E+02  0.58557349829E+02  0.00000000000E+00 0.  1.
</event>
<event>
12    1  0.8416569E-002  0.1786262E+03  0.7818608E-02  0.1170078E+00
         21   -1    0    0  503  502  0.00000000000E+00  0.00000000000E+00  0.41572292708E+03  0.41572292708E+03  0.00000000000E+00 0.  1.
         21   -1    0    0  501  503 -0.00000000000E+00 -0.00000000000E+00 -0.29797300789E+03  0.29797300789E+03  0.00000000000E+00 0.  1.
          6    2    1    2  501    0 -0.19969012374E+02 -0.22889339713E+02 -0.24987940935E+03  0.30496784496E+03  0.17217137949E+03 0.  0.
         24    2    3    3    0    0 -0.67658646701E+02 -0.40242346788E+02 -0.21648991125E+03  0.24403856907E+03  0.80559310911E+02 0.  0.
         -6    2    1    2    0  502  0.19969012374E+02  0.22889339713E+02  0.36762932855E+03  0.40872809000E+03  0.17602455801E+03 0.  0.
        -24    2    5    5    0    0 -0.25885559900E+02 -0.43086692252E+02  0.23881852841E+03  0.25684066187E+03  0.80039432903E+02 0.  0.
          5    1    3    3  501    0  0.47689634327E+02  0.17353007075E+02 -0.33389498107E+02  0.60929275891E+02  0.47000000000E+01 0. -1.
        -13    1    4    4    0    0 -0.38926544689E+01 -0.47572869380E+02 -0.10614573470E+03  0.11638405241E+03  0.00000000000E+00 0.  1.
         14    1    4    4    0    0 -0.63765992232E+02  0.73305225924E+01 -0.11034417655E+03  0.12765451666E+03  0.00000000000E+00 0. -1.
         -5    1    5    5    0  502  0.45854572274E+02  0.65976031965E+02  0.12881080014E+03  0.15188742813E+03  0.47000000000E+01 0.  1.
         11    1    6    6    0    0 -0.27980307593E+02 -0.23940126220E+02  0.31011438686E+02  0.48142876792E+02  0.00000000000E+00 0. -1.
        -12    1    6    6    0    0  0.20947476925E+01 -0.19146566032E+02  0.20780708972E+03  0.20869778508E+03  0.00000000000E+00 0.  1.
</event>
<event>
12    1  0.8416569E-002  0.2054104E+03  0.7818608E-02  0.1145489E+00
         21   -1    0    0  501  502  0.00000000000E+00  0.00000000000E+00  0.54000099623E+03  0.54000099623E+03  0.00000000000E+00 0.  1.
         21   -1    0    0  502  503 -0.00000000000E+00 -0.00000000000E+00 -0.85060779258E+02  0.85060779258E+02  0.00000000000E+00 0.  1.
         -6    2    1    2    0  503  0.99503969642E+02  0.48290974828E+02  0.13609890804E+03  0.24640690685E+03  0.17309070671E+03 0.  0.
        -24    2    3    3    0    0  0.65675333936E+02 -0.39390980978E+02  0.81663134672E+02  0.13769699291E+03  0.80166672762E+02 0.  0.
          6    2    1    2  501    0 -0.99503969642E+02 -0.48290974828E+02  0.31884130893E+03  0.37865486864E+03  0.17171683388E+03 0.  0.
         24    2    5    5    0    0 -0.85320691529E+02 -0.39767573595E+02  0.98820816073E+02  0.15796295437E+03  0.79534023851E+02 0.  0.
          5    1    5    5  501    0 -0.14183278113E+02 -0.85234012325E+01  0.22002049286E+03  0.22069191427E+03  0.47000000000E+01 0. -1.
        -11    1    6    6    0    0 -0.79366292976E+02 -0.41301893778E+02  0.11204218440E+03  0.14338167936E+03  0.00000000000E+00 0.  1.
         12    1    6    6    0    0 -0.59543985526E+01  0.15343201826E+01 -0.13221368324E+02  0.14581275010E+02  0.00000000000E+00 0. -1.
         -5    1    3    3    0  503  0.33828635706E+02  0.87681955805E+02  0.54435773371E+02  0.10870991395E+03  0.47000000000E+01 0.  1.
         13    1    4    4    0    0  0.92815976895E+01 -0.16044375836E+02 -0.14681811177E+02  0.23645837500E+02  0.00000000000E+00 0. -1.
        -14    1    4    4    0    0  0.56393736247E+02 -0.23346605142E+02  0.96344945849E+02  0.11405115541E+03  0.00000000000E+00 0.  1.
</event>
<event>
12    1  0.8416569E-002  0.2037843E+03  0.7818608E-02  0.1146946E+00
         21   -1    0    0  503  502  0.00000000000E+00  0.00000000000E+00  0.12286569171E+03  0.12286569171E+03  0.00000000000E+00 0. -1.
         21   -1    0    0  501  503 -0.00000000000E+00 -0.00000000000E+00 -0.64244079452E+03  0.64244079452E+03  0.00000000000E+00 0. -1.
          6    2    1    2  501    0  0.64109486191E+02 -0.89442119394E+02 -0.52503283193E+03  0.56319402824E+03  0.17151711254E+03 0.  0.
         24    2    3    3    0    0  0.87583591705E+02 -0.18942012915E+02 -0.23239240299E+03  0.26123077005E+03  0.78775636240E+02 0.  0.
         -6    2    1    2    0  502 -0.64109486191E+02  0.89442119394E+02  0.54577291216E+01  0.20211245800E+03  0.16943948751E+03 0.  0.
        -24    2    5    5    0    0  0.34138323405E+01  0.99630917476E+02 -0.15910476689E+02  0.13040541252E+03  0.82549708522E+02 0.  0.
          5    1    3    3  501    0 -0.23474105514E+02 -0.70500106479E+02 -0.29264042894E+03  0.30196325819E+03  0.47000000000E+01 0. -1.
        -13    1    4    4    0    0  0.82343746949E+02 -0.37396396419E+02 -0.22131083126E+03  0.23907627896E+03  0.00000000000E+00 0.  1.
         14    1    4    4    0    0  0.52398447554E+01  0.18454383505E+02 -0.11081571727E+02  0.22154491092E+02  0.00000000000E+00 0. -1.
         -5    1    5    5    0  502 -0.67523318531E+02 -0.10188798082E+02  0.21368205811E+02  0.71707045479E+02  0.47000000000E+01 0.  1.
         13    1    6    6    0    0 -0.95865078595E+01  0.53668740210E+02 -0.48183645027E+02  0.72759181254E+02  0.00000000000E+00 0. -1.
        -14    1    6    6    0    0  0.13000340200E+02  0.45962177266E+02  0.32273168338E+02  0.57646231264E+02  0.00000000000E+00 0.  1.
</event>
<event>
12    1  0.8416569E-002  0.2708977E+03  0.7818608E-02  0.1102006E+00
         21   -1    0    0  503  502  0.00000000000E+00  0.00000000000E+00  0.23288385314E+03  0.23288385314E+03  0.00000000000E+00 0. -1.
         21   -1    0    0  501  503 -0.00000000000E+00 -0.00000000000E+00 -0.52312175910E+03  0.52312175910E+03  0.00000000000E+00 0.  1.
          6    2    1    2  501    0  0.19322812399E+03 -0.17116898968E+02 -0.39040387537E+03  0.47518494245E+03  0.18909110900E+03 0.  0.
         24    2    3    3    0    0  0.12536367525E+03 -0.75997538130E+02 -0.32048063150E+03  0.36123818689E+03  0.79331681108E+02 0.  0.
         -6    2    1    2    0  502 -0.19322812399E+03  0.17116898968E+02  0.10016596941E+03  0.28082066979E+03  0.17662652978E+03 0.  0.
        -24    2    5    5    0    0 -0.44670782830E+02  0.11457714153E+02  0.94280924194E+02  0.13196492169E+03  0.79994311280E+02 0.  0.
          5    1    3    3  501    0  0.67864448734E+02  0.58880639162E+02 -0.69923243867E+02  0.11394675556E+03  0.47000000000E+01 0. -1.
        -13    1    4    4    0    0  0.19172878935E+02  0.16524907986E+02 -0.39121037969E+02  0.46595359022E+02  0.00000000000E+00 0.  1.
         14    1    4    4    0    0  0.10619079632E+03 -0.92522446116E+02 -0.28135959353E+03  0.31464282787E+03  0.00000000000E+00 0. -1.
         -5    1    5    5    0  502 -0.14855734116E+03  0.56591848150E+01  0.58850452166E+01  0.14885574810E+03  0.47000000000E+01 0.  1.
         11    1    6    6    0    0 -0.24451058724E+02  0.45752232280E+02  0.60993439202E+02  0.80070722846E+02  0.00000000000E+00 0. -1.
        -12    1    6    6    0    0 -0.20219724106E+02 -0.34294518127E+02  0.33287484992E+02  0.51894198843E+02  0.00000000000E+00 0.  1.
</event>
<event>
12    1  0.8416569E-002  0.1905664E+03  0.7818608E-02  0.1157952E+00
         21   -1    0    0  503  502  0.00000000000E+00  0.00000000000E+00  0.17078609587E+03  0.17078609587E+03  0.00000000000E+00 0. -1.
         21   -1    0    0  501  503 -0.00000000000E+00 -0.00000000000E+00 -0.21999647752E+03  0.21999647752E+03  0.00000000000E+00 0. -1.
          6    2    1    2  501    0  0.34469211922E+01 -0.81444363281E+02  0.11130823061E+02  0.19089109801E+03  0.17225112627E+03 0.  0.
         24    2    3    3    0    0  0.24155333907E+02  0.18385688694E+02 -0.99037252817E+01  0.86682557774E+02  0.80587023415E+02 0.  0.
         -6    2    1    2    0  502 -0.34469211922E+01  0.81444363281E+02 -0.60341204717E+02  0.19989147538E+03  0.17225119845E+03 0.  0.
        -24    2    5    5    0    0 -0.65601334407E+02  0.72298363559E+02 -0.45555140007E+02  0.13518028545E+03  0.81656906282E+02 0.  0.
          5    1    3    3  501    0 -0.20708412715E+02 -0.99830051975E+02  0.21034548343E+02  0.10420854024E+03  0.47000000000E+01 0. -1.
        -13    1    4    4    0    0 -0.17915805789E+02  0.29268118961E+02  0.14028050645E+02  0.37072700056E+02  0.00000000000E+00 0.  1.
         14    1    4    4    0    0  0.42071139695E+02 -0.10882430267E+02 -0.23931775927E+02  0.49609857718E+02  0.00000000000E+00 0. -1.
         -5    1    5    5    0  502  0.62154413214E+02  0.91459997220E+01 -0.14786064709E+02  0.64711189933E+02  0.47000000000E+01 0.  1.
         11    1    6    6    0    0  0.17888038185E+02  0.15946456746E+02  0.14855654965E+01  0.24009962468E+02  0.00000000000E+00 0. -1.
        -12    1    6    6    0    0 -0.83489372592E+02  0.56351906813E+02 -0.47040705504E+02  0.11117032298E+03  0.00000000000E+00 0.  1.
</event>
<event>
12    1  0.8416569E-002  0.2215219E+03  0.7818608E-02  0.1132995E+00
         21   -1    0    0  503  502  0.00000000000E+00  0.00000000000E+00  0.12855309284E+04  0.12855309284E+04  0.00000000000E+00 0.  1.
         21   -1    0    0  501  503 -0.00000000000E+00 -0.00000000000E+00 -0.42886559145E+02  0.42886559145E+02  0.00000000000E+00 0. -1.
          6    2    1    2  501    0 -0.13623562073E+03  0.22300252619E+02  0.39755608249E+03  0.45510746236E+03  0.17324698538E+03 0.  0.
         24    2    3    3    0    0 -0.80548810959E+02  0.64282080790E+02  0.34081836367E+03  0.36508105836E+03  0.80664275250E+02 0.  0.
         -6    2    1    2    0  502  0.13623562073E+03 -0.22300252619E+02  0.84508828677E+03  0.87331002520E+03  0.17157721891E+03 0.  0.
        -24    2    5    5    0    0  0.57787465475E+02 -0.73685152360E+02  0.54792006945E+03  0.56166028531E+03  0.80479691518E+02 0.  0.
          5    1    3    3  501    0 -0.55686809771E+02 -0.41981828171E+02  0.56737718816E+02  0.90026403991E+02  0.47000000000E+01 0. -1.
        -13    1    4    4    0    0 -0.58118628166E+02  0.33965985389E+01  0.22411027440E+03  0.23154854116E+03  0.00000000000E+00 0.  1.
         14    1    4    4    0    0 -0.22430182793E+02  0.60885482251E+02  0.11670808927E+03  0.13353251721E+03  0.00000000000E+00 0. -1.
         -5    1    5    5    0  502  0.78448155254E+02  0.51384899741E+02  0.29716821732E+03  0.31164973989E+03  0.47000000000E+01 0.  1.
         13    1    6    6    0    0  0.66379767764E+02 -0.47313621307E+02  0.26175459300E+03  0.27415382413E+03  0.00000000000E+00 0. -1.
        -14    1    6    6    0    0 -0.85923022893E+01 -0.26371531054E+02  0.28616547645E+03  0.28750646118E+03  0.00000000000E+00 0.  1.
</event>
<event>
12    1  0.8416569E-002  0.2026113E+03  0.7818608E-02  0.1148012E+00
         21   -1    0    0  501  502  0.00000000000E+00  0.00000000000E+00  0.39138334630E+02  0.39138334630E+02  0.00000000000E+00 0.  1.
         21   -1    0    0  502  503 -0.00000000000E+00 -0.00000000000E+00 -0.10387010165E+04  0.10387010165E+04  0.00000000000E+00 0.  1.
         -6    2    1    2    0  503 -0.10182880506E+03 -0.13528713437E+02 -0.51497658116E+03  0.55260127760E+03  0.17209056113E+03 0.  0.
        -24    2    3    3    0    0 -0.68730724779E+02 -0.68895004135E+02 -0.26945755581E+03  0.29870643545E+03  0.84544225515E+02 0.  0.
          6    2    1    2  501    0  0.10182880506E+03  0.13528713437E+02 -0.48458610072E+03  0.52523807354E+03  0.17464023952E+03 0.  0.
         24    2    5    5    0    0  0.83243484423E+02  0.23921594304E+02 -0.48874369085E+03  0.50303893681E+03  0.81707136921E+02 0.  0.
          5    1    5    5  501    0  0.18585320641E+02 -0.10392880867E+02  0.41575901331E+01  0.22199136735E+02  0.47000000000E+01 0. -1.
        -13    1    6    6    0    0  0.81019253698E+02 -0.11950109993E+02 -0.30438999803E+03  0.31521452298E+03  0.00000000000E+00 0.  1.
         14    1    6    6    0    0  0.22242307253E+01  0.35871704297E+02 -0.18435369282E+03  0.18782441382E+03  0.00000000000E+00 0. -1.
         -5    1    3    3    0  503 -0.33098080285E+02  0.55366290698E+02 -0.24551902534E+03  0.25389484215E+03  0.47000000000E+01 0.  1.
         13    1    4    4    0    0 -0.36986189070E+01  0.18889648474E+02 -0.32404085613E+02  0.37689831065E+02  0.00000000000E+00 0. -1.
        -14    1    4    4    0    0 -0.65032105872E+02 -0.87784652610E+02 -0.23705347020E+03  0.26101660438E+03  0.00000000000E+00 0.  1.
</event>
<event>
12    1  0.8416569E-002  0.1964698E+03  0.7818608E-02  0.1152946E+00
         21   -1    0    0  503  502  0.00000000000E+00  0.00000000000E+00  0.10231638496E+03  0.10231638496E+03  0.00000000000E+00 0.  1.
         21   -1    0    0  501  503 -0.00000000000E+00 -0.00000000000E+00 -0.39202258750E+03  0.39202258750E+03  0.00000000000E+00 0.  1.
          6    2    1    2  501    0  0.80907394254E+02 -0.49108437625E+02 -0.93867084840E+02  0.21693434801E+03  0.17114858059E+03 0.  0.
         24    2    3    3    0    0  0.10518685988E+03 -0.59329074143E+01 -0.29075122583E+02  0.13524158680E+03  0.79658327660E+02 0.  0.
         -6    2    1    2    0  502 -0.80907394254E+02  0.49108437625E+02 -0.19583911770E+03  0.27740462445E+03  0.17217061466E+03 0.  0.
        -24    2    5    5    0    0 -0.80499694706E+02  0.10499235815E+02 -0.20930504617E+03  0.23624326013E+03  0.73565214619E+02 0.  0.
          5    1    3    3  501    0 -0.24279465626E+02 -0.43175530210E+02 -0.64791962256E+02  0.81692761204E+02  0.47000000000E+01 0. -1.
        -11    1    4    4    0    0  0.32208171113E+02  0.34213682276E+02  0.95222485946E-01  0.46988843449E+02  0.00000000000E+00 0.  1.
         12    1    4    4    0    0  0.72978688768E+02 -0.40146589690E+02 -0.29170345069E+02  0.88252743353E+02  0.00000000000E+00 0. -1.
         -5    1    5    5    0  502 -0.40769954835E+00  0.38609201810E+02  0.13465928470E+02  0.41161364323E+02  0.47000000000E+01 0.  1.
         11    1    6    6    0    0 -0.23047487817E+02  0.23264156584E+02 -0.20872826426E+02  0.38834038668E+02  0.00000000000E+00 0. -1.
        -12    1    6    6    0    0 -0.57452206889E+02 -0.12764920769E+02 -0.18843221975E+03  0.19740922146E+03  0.00000000000E+00 0.  1.
</event>
<event>
12    1  0.8416569E-002  0.2035441E+03  0.7818608E-02  0.1147157E+00
         21   -1    0    0  503  502  0.00000000000E+00  0.00000000000E+00  0.26307376262E+02  0.26307376262E+02  0.00000000000E+00 0. -1.
         21   -1    0    0  501  503 -0.00000000000E+00 -0.00000000000E+00 -0.20509735973E+04  0.20509735973E+04  0.00000000000E+00 0.  1.
          6    2    1    2  501    0  0.85221171013E+02  0.61425891601E+02 -0.15166018879E+04  0.15299606112E+04  0.17222774815E+03 0.  0.
         24    2    3    3    0    0  0.92142902220E+02  0.22892341655E+02 -0.14232025733E+04  0.14285788238E+04  0.79482813080E+02 0.  0.
         -6    2    1    2    0  502 -0.85221171013E+02 -0.61425891601E+02 -0.50806433314E+03  0.54732036239E+03  0.17433996766E+03 0.  0.
        -24    2    5    5    0    0 -0.22760111473E+02  0.23816916140E+02 -0.31764561180E+03  0.32949221988E+03  0.81124103053E+02 0.  0.
          5    1    3    3  501    0 -0.69217312069E+01  0.38533549946E+02 -0.93399314621E+02  0.10138178735E+03  0.47000000000E+01 0. -1.
        -13    1    4    4    0    0  0.61861233283E+02  0.47726284882E+02 -0.11409779120E+04  0.11436499491E+04  0.00000000000E+00 0.  1.
         14    1    4    4    0    0  0.30281668937E+02 -0.24833943227E+02 -0.28222466129E+03  0.28492887472E+03  0.00000000000E+00 0. -1.
         -5    1    5    5    0  502 -0.62461059540E+02 -0.85242807741E+02 -0.19041872134E+03  0.21782814250E+03  0.47000000000E+01 0.  1.
         11    1    6    6    0    0  0.28136684609E+02  0.66406517778E+01 -0.64084447343E+02  0.70303539513E+02  0.00000000000E+00 0. -1.
        -12    1    6    6    0    0 -0.50896796082E+02  0.17176264362E+02 -0.25356116446E+03  0.25918868037E+03  0.00000000000E+00 0.  1.
</event>
<event>
12    1  0.8416569E-002  0.1913378E+03  0.7818608E-02  0.1157338E+00
         21   -1    0    0  503  502  0.00000000000E+00  0.00000000000E+00  0.92380049018E+02  0.92380049018E+02  0.00000000000E+00 0.  1.
         21   -1    0    0  501  503 -0.00000000000E+00 -0.00000000000E+00 -0.58556099668E+03  0.58556099668E+03  0.00000000000E+00 0. -1.
          6    2    1    2  501    0  0.39079047670E+02 -0.72233739591E+02 -0.43981896196E+03  0.47963618463E+03  0.17281569722E+03 0.  0.
         24    2    3    3    0    0  0.22681386125E+02 -0.93263428622E+02 -0.18069868295E+03  0.21910491948E+03  0.78373715795E+02 0.  0.
         -6    2    1    2    0  502 -0.39079047670E+02  0.72233739591E+02 -0.53361985702E+02  0.19830486107E+03  0.17243094648E+03 0.  0.
        -24    2    5    5    0    0 -0.53233284856E+02  0.59842239734E+02  0.25340266078E+02  0.11724916334E+03  0.81794626631E+02 0.  0.
          5    1    3    3  501    0  0.16397661545E+02  0.21029689031E+02 -0.25912027901E+03  0.26053126515E+03  0.47000000000E+01 0. -1.
        -13    1    4    4    0    0  0.13996254379E+02 -0.42909698942E+01  0.28774870705E+01  0.14919366311E+02  0.00000000000E+00 0.  1.
         14    1    4    4    0    0  0.86851317461E+01 -0.88972458727E+02 -0.18357617002E+03  0.20418555317E+03  0.00000000000E+00 0. -1.
         -5    1    5    5    0  502  0.14154237186E+02  0.12391499857E+02 -0.78702251780E+02  0.81055697728E+02  0.47000000000E+01 0.  1.
         11    1    6    6    0    0 -0.25927512086E+02 -0.77910892786E+01 -0.17902249966E+02  0.32456548013E+02  0.00000000000E+00 0. -1.
        -12    1    6    6    0    0 -0.27305772770E+02  0.67633329013E+02  0.43242516043E+02  0.84792615325E+02  0.00000000000E+00 0.  1.
</event>
<event>
12    1  0.8416569E-002  0.1873229E+03  0.7818608E-02  0.1161022E+00
         21   -1    0    0  503  502  0.00000000000E+00  0.00000000000E+00  0.16060592593E+03  0.16060592593E+03  0.00000000000E+00 0.  1.
         21   -1    0    0  501  503 -0.00000000000E+00 -0.00000000000E+00 -0.58554220380E+03  0.58554220380E+03  0.00000000000E+00 0.  1.
          6    2    1    2  501    0 -0.57581761666E+02  0.40531924697E+02 -0.50821395291E+03  0.54163759766E+03  0.17358389635E+03 0.  0.
         24    2    3    3    0    0 -0.35159543244E+02 -0.45777111201E+02 -0.26661809045E+03  0.28406691548E+03  0.79227955477E+02 0.  0.
         -6    2    1    2    0  502  0.57581761666E+02 -0.40531924697E+02  0.83277675036E+02  0.20451053207E+03  0.17300546341E+03 0.  0.
        -24    2    5    5    0    0  0.73849547344E+01 -0.86531495591E+02  0.46869180734E+02  0.12715842540E+03  0.80189199783E+02 0.  0.
          5    1    3    3  501    0 -0.22422218422E+02  0.86309035898E+02 -0.24159586247E+03  0.25757068218E+03  0.47000000000E+01 0. -1.
        -13    1    4    4    0    0  0.62327772182E+01  0.24627269968E+01 -0.15854588230E+03  0.15868745801E+03  0.00000000000E+00 0.  1.
         14    1    4    4    0    0 -0.41392320463E+02 -0.48239838198E+02 -0.10807220815E+03  0.12537945747E+03  0.00000000000E+00 0. -1.
         -5    1    5    5    0  502  0.50196806932E+02  0.45999570894E+02  0.36408494303E+02  0.77352106668E+02  0.47000000000E+01 0.  1.
         13    1    6    6    0    0  0.12412573393E+02  0.92458092424E+01 -0.71867522544E+01  0.17064769988E+02  0.00000000000E+00 0. -1.
        -14    1    6    6    0    0 -0.50276186589E+01 -0.95777304834E+02  0.54055932988E+02  0.11009365541E+03  0.00000000000E+00 0.  1.
</event>
<event>
12    1  0.8416569E-002  0.5677107E+03  0.7818608E-02  0.9976006E-01
         21   -1    0    0  501  502  0.00000000000E+00  0.00000000000E+00  0.39308040439E+03  0.39308040439E+03  0.00000000000E+00 0.  1.
         21   -1    0    0  502  503 -0.00000000000E+00 -0.00000000000E+00 -0.12041331736E+04  0.12041331736E+04  0.00000000000E+00 0. -1.
         -6    2    1    2    0  503  0.35819329705E+03  0.40447428961E+03 -0.85798431491E+03  0.10275662628E+04  0.16689353105E+03 0.  0.
        -24    2    3    3    0    0  0.32034507598E+03  0.28466876261E+03 -0.64234915071E+03  0.77795363050E+03  0.94562929776E+02 0.  0.
          6    2    1    2  501    0 -0.35819329705E+03 -0.40447428961E+03  0.46931545691E+02  0.56964731525E+03  0.17433761724E+03 0.  0.
         24    2    5    5    0    0 -0.36102554128E+03 -0.41509426606E+03  0.42487414156E+02  0.55689404853E+03  0.75386402958E+02 0.  0.
          5    1    5    5  501    0  0.28322442308E+01  0.10619976446E+02  0.44441315356E+01  0.12753266727E+02  0.47000000000E+01 0. -1.
        -13    1    6    6    0    0 -0.12159839680E+03 -0.19448958687E+03  0.27065828396E+02  0.23096521074E+03  0.00000000000E+00 0.  1.
         14    1    6    6    0    0 -0.23942714448E+03 -0.22060467919E+03  0.15421585759E+02  0.32592883779E+03  0.00000000000E+00 0. -1.
         -5    1    3    3    0  503  0.37848221075E+02  0.11980552699E+03 -0.21563516421E+03  0.24961263225E+03  0.47000000000E+01 0.  1.
         11    1    4    4    0    0  0.44455891204E+02  0.33399712502E+01 -0.73504080464E+02  0.85967037378E+02  0.00000000000E+00 0. -1.
        -12    1    4    4    0    0  0.27588918477E+03  0.28132879136E+03 -0.56884507024E+03  0.69198659312E+03  0.00000000000E+00 0.  1.
</event>
<event>
12    1  0.8416569E-002  0.1949159E+03  0.7818608E-02  0.1154426E+00
         21   -1    0    0  503  502  0.00000000000E+00  0.00000000000E+00  0.85257658195E+02  0.85257658195E+02  0.00000000000E+00 0.  1.
         21   -1    0    0  501  503 -0.00000000000E+00 -0.00000000000E+00 -0.44285910194E+03  0.44285910194E+03  0.00000000000E+00 0. -1.
          6    2    1    2  501    0  0.78307572225E+01 -0.91047423026E+02 -0.16814758051E+03  0.25629884409E+03  0.17048323862E+03 0.  0.
         24    2    3    3    0    0 -0.38317370947E+02 -0.97575859051E+02 -0.67141232965E+02  0.14495863368E+03  0.74268372321E+02 0.  0.
         -6    2    1    2    0  502 -0.78307572225E+01  0.91047423026E+02 -0.18945386324E+03  0.27181791605E+03  0.17216637068E+03 0.  0.
        -24    2    5    5    0    0  0.43183327704E+02  0.87221808780E+02 -0.74877788289E+02  0.14625184127E+03  0.79438493043E+02 0.  0.
          5    1    3    3  501    0  0.46148128170E+02  0.65284360247E+01 -0.10100634754E+03  0.11134021041E+03  0.47000000000E+01 0. -1.
        -13    1    4    4    0    0 -0.16090023325E+02 -0.10287360528E+03 -0.46014299871E+02  0.11383840875E+03  0.00000000000E+00 0.  1.
         14    1    4    4    0    0 -0.22227347622E+02  0.52977462306E+01 -0.21126933094E+02  0.31120224925E+02  0.00000000000E+00 0. -1.
         -5    1    5    5    0  502 -0.51014084927E+02  0.38256142460E+01 -0.11457607495E+03  0.12556607478E+03  0.47000000000E+01 0.  1.
         11    1    6    6    0    0  0.21851653628E+02 -0.84542574019E+01 -0.30989921068E+02  0.38850282396E+02  0.00000000000E+00 0. -1.
        -12    1    6    6    0    0  0.21331674077E+02  0.95676066182E+02 -0.43887867222E+02  0.10740155887E+03  0.00000000000E+00 0.  1.
</event>
<event>
12    1  0.8416569E-002  0.2187438E+03  0.7818608E-02  0.1134865E+00
         21   -1    0    0  503  502  0.00000000000E+00  0.00000000000E+00  0.34393884898E+03  0.34393884898E+03  0.00000000000E+00 0. -1.
         21   -1    0    0  501  503 -0.00000000000E+00 -0.00000000000E+00 -0.14156879287E+03  0.14156879287E+03  0.00000000000E+00 0.  1.
          6    2    1    2  501    0  0.13064460206E+03  0.36117439813E+02  0.68307424726E+02  0.22895034746E+03  0.17140558866E+03 0.  0.
         24    2    3    3    0    0  0.11619095929E+03 -0.26866500653E+02  0.12864142755E+02  0.14367472338E+03  0.79087243539E+02 0.  0.
         -6    2    1    2    0  502 -0.13064460206E+03 -0.36117439813E+02  0.13406263138E+03  0.25655729439E+03  0.17168685060E+03 0.  0.
        -24    2    5    5    0    0 -0.71596852608E+02  0.32686172657E+02  0.26076237393E+02  0.11547673199E+03  0.80376677509E+02 0.  0.
          5    1    3    3  501    0  0.14453642761E+02  0.62983940466E+02  0.55443281971E+02  0.85275624075E+02  0.47000000000E+01 0. -1.
        -13    1    4    4    0    0  0.12798549056E+03 -0.23471763427E+02  0.15741205725E+02  0.13106866532E+03  0.00000000000E+00 0.  1.
         14    1    4    4    0    0 -0.11794531261E+02 -0.33947372262E+01 -0.28770629696E+01  0.12606058061E+02  0.00000000000E+00 0. -1.
         -5    1    5    5    0  502 -0.59047749448E+02 -0.68803612470E+02  0.10798639398E+03  0.14108056241E+03  0.47000000000E+01 0.  1.
         11    1    6    6    0    0 -0.16710367481E+02  0.35453900326E+02  0.42797355577E+02  0.58032999871E+02  0.00000000000E+00 0. -1.
        -12    1    6    6    0    0 -0.54886485127E+02 -0.27677276694E+01 -0.16721118184E+02  0.57443732115E+02  0.00000000000E+00 0.  1.
</event>
<event>
12    1  0.8416569E-002  0.1973462E+03  0.7818608E-02  0.1152179E+00
         21   -1    0    0  501  502  0.00000000000E+00  0.00000000000E+00  0.65329245510E+02  0.65329245510E+02  0.00000000000E+00 0.  1.
         21   -1    0    0  502  503 -0.00000000000E+00 -0.00000000000E+00 -0.71055936498E+03  0.71055936498E+03  0.00000000000E+00 0. -1.
         -6    2    1    2    0  503 -0.88093554752E+02  0.36534443553E+02 -0.48058308168E+03  0.51952441218E+03  0.17277232564E+03 0.  0.
        -24    2    3    3    0    0  0.17661236403E+02  0.36250453009E+02 -0.22493025257E+03  0.24282129414E+03  0.82113018179E+02 0.  0.
          6    2    1    2  501    0  0.88093554752E+02 -0.36534443553E+02 -0.16464703779E+03  0.25636419830E+03  0.17181011368E+03 0.  0.
         24    2    5    5    0    0  0.12335155184E+03 -0.51257971186E+02 -0.14688417924E+03  0.21396705490E+03  0.79774391369E+02 0.  0.
          5    1    5    5  501    0 -0.35257997092E+02  0.14723527633E+02 -0.17762858548E+02  0.42397143402E+02  0.47000000000E+01 0. -1.
        -11    1    6    6    0    0  0.15182024855E+02  0.18355456657E+02 -0.91793951220E+01  0.25527983912E+02  0.00000000000E+00 0.  1.
         12    1    6    6    0    0  0.10816952699E+03 -0.69613427843E+02 -0.13770478412E+03  0.18843907099E+03  0.00000000000E+00 0. -1.
         -5    1    3    3    0  503 -0.10575479115E+03  0.28399054404E+00 -0.25565282911E+03  0.27670311804E+03  0.47000000000E+01 0.  1.
         11    1    4    4    0    0  0.33225189034E+02 -0.15592828824E+02 -0.10535947005E+03  0.11156911502E+03  0.00000000000E+00 0. -1.
        -12    1    4    4    0    0 -0.15563952631E+02  0.51843281833E+02 -0.11957078252E+03  0.13125217912E+03  0.00000000000E+00 0.  1.
</event>
<event>
12    1  0.8416569E-002  0.2339261E+03  0.7818608E-02  0.1124934E+00
         21   -1    0    0  501  502  0.00000000000E+00  0.00000000000E+00  0.10858734930E+03  0.10858734930E+03  0.00000000000E+00 0.  1.
         21   -1    0    0  502  503 -0.00000000000E+00 -0.00000000000E+00 -0.56079122109E+03  0.56079122109E+03  0.00000000000E+00 0.  1.
         -6    2    1    2    0  503  0.11432842650E+03  0.99060229586E+02 -0.11085039027E+03  0.25886144559E+03  0.17843071708E+03 0.  0.
        -24    2    3    3    0    0  0.40727806603E+02  0.12496663568E+03 -0.48650352735E+02  0.15896586113E+03  0.75019157000E+02 0.  0.
          6    2    1    2  501    0 -0.11432842650E+03 -0.99060229586E+02 -0.34135348152E+03  0.41051712481E+03  0.17064053511E+03 0.  0.
         24    2    5    5    0    0 -0.38809913967E+02 -0.85633721769E+02 -0.10768355191E+03  0.16453533106E+03  0.81466459910E+02 0.  0.
          5    1    5    5  501    0 -0.75518512535E+02 -0.13426507817E+02 -0.23366992962E+03  0.24598179375E+03  0.47000000000E+01 0. -1.
        -13    1    6    6    0    0  0.71645074963E+01 -0.41744908829E+02 -0.88549138461E+02  0.98157615613E+02  0.00000000000E+00 0.  1.
         14    1    6    6    0    0 -0.45974421463E+02 -0.43888812941E+02 -0.19134413444E+02  0.66377715448E+02  0.00000000000E+00 0. -1.
         -5    1    3    3    0  503  0.73600619899E+02 -0.25906406099E+02 -0.62200037530E+02  0.99895584463E+02  0.47000000000E+01 0.  1.
         13    1    4    4    0    0  0.54018771524E+02  0.10597801281E+03 -0.59922937926E+02  0.13319206194E+03  0.00000000000E+00 0. -1.
        -14    1    4    4    0    0 -0.13290964921E+02  0.18988622878E+02  0.11272585191E+02  0.25773799181E+02  0.00000000000E+00 0.  1.
</event>
<event>
12    1  0.8416569E-002  0.2074217E+03  0.7818608E-02  0.1143939E+00
         21   -1    0    0  501  502  0.00000000000E+00  0.00000000000E+00  0.32765677226E+03  0.32765677226E+03  0.00000000000E+00 0. -1.
         21   -1    0    0  502  503 -0.00000000000E+00 -0.00000000000E+00 -0.25059091569E+03  0.25059091569E+03  0.00000000000E+00 0. -1.
         -6    2    1    2    0  503 -0.10591690493E+02  0.11423099629E+03 -0.16168818795E+03  0.26299590909E+03  0.17280877771E+03 0.  0.
        -24    2    3    3    0    0  0.19649040568E+02  0.80426124671E+02 -0.25640800053E+02  0.11950983689E+03  0.82284288671E+02 0.  0.
          6    2    1    2  501    0  0.10591690493E+02 -0.11423099629E+03  0.23875404452E+03  0.31525177887E+03  0.17093649665E+03 0.  0.
         24    2    5    5    0    0 -0.11419654503E+02 -0.30702112881E+02  0.20604110578E+03  0.22276502288E+03  0.78091548238E+02 0.  0.
          5    1    5    5  501    0  0.22011344997E+02 -0.83528883409E+02  0.32712938745E+02  0.92486755990E+02  0.47000000000E+01 0. -1.
        -11    1    6    6    0    0 -0.33378817680E+02 -0.41264160457E+02  0.92556700717E+02  0.10669404508E+03  0.00000000000E+00 0.  1.
         12    1    6    6    0    0  0.21959163177E+02  0.10562047577E+02  0.11348440506E+03  0.11607097780E+03  0.00000000000E+00 0. -1.
         -5    1    3    3    0  503 -0.30240731061E+02  0.33804871619E+02 -0.13604738790E+03  0.14348607219E+03  0.47000000000E+01 0.  1.
         13    1    4    4    0    0 -0.13583104409E+02  0.82884826257E+01 -0.36050721216E+02  0.39406270691E+02  0.00000000000E+00 0. -1.
        -14    1    4    4    0    0  0.33232144977E+02  0.72137642045E+02  0.10409921163E+02  0.80103566202E+02  0.00000000000E+00 0.  1.
</event>
<event>
12    1  0.8416569E-002  0.2141549E+03  0.7818608E-02  0.1138479E+00
         21   -1    0    0  501  502  0.00000000000E+00  0.00000000000E+00  0.55100486005E+03  0.55100486005E+03  0.00000000000E+00 0.  1.
         21   -1    0    0  502  503 -0.00000000000E+00 -0.00000000000E+00 -0.83407088587E+02  0.83407088587E+02  0.00000000000E+00 0.  1.
         -6    2    1    2    0  503  0.73840084980E+02 -0.10212513253E+03  0.20883640710E+03  0.29852540418E+03  0.17211296048E+03 0.  0.
        -24    2    3    3    0    0  0.85528614890E+02 -0.43870703512E+02  0.56681326701E+02  0.13511347462E+03  0.76178052185E+02 0.  0.
          6    2    1    2  501    0 -0.73840084980E+02  0.10212513253E+03  0.25876136437E+03  0.33588654446E+03  0.17314856690E+03 0.  0.
         24    2    5    5    0    0 -0.43389313645E+02  0.13394814109E+03  0.16052654384E+03  0.22812698195E+03  0.80302002331E+02 0.  0.
          5    1    5    5  501    0 -0.30450771335E+02 -0.31823008557E+02  0.98234820524E+02  0.10775956251E+03  0.47000000000E+01 0. -1.
        -11    1    6    6    0    0 -0.85013928430E+01  0.64922775040E+02  0.12888514825E+03  0.14456355640E+03  0.00000000000E+00 0.  1.
         12    1    6    6    0    0 -0.34887920802E+02  0.69025366048E+02  0.31641395595E+02  0.83563425559E+02  0.00000000000E+00 0. -1.
         -5    1    3    3    0  503 -0.11688529910E+02 -0.58254429019E+02  0.15215508040E+03  0.16341192956E+03  0.47000000000E+01 0.  1.
         13    1    4    4    0    0  0.75172153579E+02 -0.24892865437E+02  0.73253389723E+02  0.10787291842E+03  0.00000000000E+00 0. -1.
        -14    1    4    4    0    0  0.10356461311E+02 -0.18977838074E+02 -0.16572063022E+02  0.27240556192E+02  0.00000000000E+00 0.  1.
</event>
<event>
12    1  0.8416569E-002  0.2327004E+03  0.7818608E-02  0.1125776E+00
         21   -1    0    0  503  502  0.00000000000E+00  0.00000000000E+00  0.60682899543E+03  0.60682899543E+03  0.00000000000E+00 0. -1.
         21   -1    0    0  501  503 -0.00000000000E+00 -0.00000000000E+00 -0.10297637292E+03  0.10297637292E+03  0.00000000000E+00 0. -1.
          6    2    1    2  501    0 -0.14573150815E+03 -0.21000635064E+02  0.10951291275E+03  0.25192624413E+03  0.17261244244E+03 0.  0.
         24    2    3    3    0    0 -0.23298647215E+02 -0.42099741626E+02  0.84133085158E+01  0.91682062615E+02  0.77586091782E+02 0.  0.
         -6    2    1    2    0  502  0.14573150815E+03  0.21000635064E+02  0.39433970976E+03  0.45787912421E+03  0.18019652202E+03 0.  0.
        -24    2    5    5    0    0  0.11999508348E+03 -0.47479982053E+02  0.32002085826E+03  0.35348879819E+03  0.76732079190E+02 0.  0.
          5    1    3    3  501    0 -0.12243286094E+03  0.21099106562E+02  0.10109960423E+03  0.16024418152E+03  0.47000000000E+01 0. -1.
        -13    1    4    4    0    0 -0.32560116582E+02 -0.35988319836E+02  0.36993605688E+02  0.61023333392E+02  0.00000000000E+00 0.  1.
         14    1    4    4    0    0  0.92614693667E+01 -0.61114217897E+01 -0.28580297172E+02  0.30658729223E+02  0.00000000000E+00 0. -1.
         -5    1    5    5    0  502  0.25736424675E+02  0.68480617117E+02  0.74318851506E+02  0.10439032601E+03  0.47000000000E+01 0.  1.
         13    1    6    6    0    0  0.11360313047E+03 -0.20321606791E+02  0.29185325818E+03  0.31384225857E+03  0.00000000000E+00 0. -1.
        -14    1    6    6    0    0  0.63919530047E+01 -0.27158375263E+02  0.28167600078E+02  0.39646539625E+02  0.00000000000E+00 0.  1.
</event>
<event>
12    1  0.8416569E-002  0.3264216E+03  0.7818608E-02  0.1072737E+00
         21   -1    0    0  503  502  0.00000000000E+00  0.00000000000E+00  0.74952397748E+03  0.74952397748E+03  0.00000000000E+00 0. -1.
         21   -1    0    0  501  503 -0.00000000000E+00 -0.00000000000E+00 -0.14516521493E+03  0.14516521493E+03  0.00000000000E+00 0.  1.
          6    2    1    2  501    0 -0.27759663167E+03 -0.43471128611E+01  0.23755654540E+03  0.40367499025E+03  0.17158554188E+03 0.  0.
         24    2    3    3    0    0 -0.10839816224E+03 -0.58531553401E+02  0.12620395264E+03  0.19394763016E+03  0.80697839272E+02 0.  0.
         -6    2    1    2    0  502  0.27759663167E+03  0.43471128611E+01  0.36680221714E+03  0.49101420216E+03  0.17167496298E+03 0.  0.
        -24    2    5    5    0    0  0.12325438368E+03 -0.55001317163E+02  0.14077703096E+03  0.21091914606E+03  0.80323880281E+02 0.  0.
          5    1    3    3  501    0 -0.16919846943E+03  0.54184440539E+02  0.11135259277E+03  0.20972736009E+03  0.47000000000E+01 0. -1.
        -11    1    4    4    0    0 -0.11208591426E+03 -0.62251529421E+02  0.88285269646E+02  0.15566885985E+03  0.00000000000E+00 0.  1.
         12    1    4    4    0    0  0.36877520213E+01  0.37199760207E+01  0.37918682990E+02  0.38278770307E+02  0.00000000000E+00 0. -1.
         -5    1    5    5    0  502  0.15434224799E+03  0.59348430024E+02  0.22602518618E+03  0.28009505610E+03  0.47000000000E+01 0.  1.
         13    1    6    6    0    0  0.97971304254E+02 -0.83651546335E+01  0.11687183713E+03  0.15273303042E+03  0.00000000000E+00 0. -1.
        -14    1    6    6    0    0  0.25283079429E+02 -0.46636162530E+02  0.23905193833E+02  0.58186115638E+02  0.00000000000E+00 0.  1.
</event>
<event>
12    1  0.8416569E-002  0.1960169E+03  0.7818608E-02  0.1154085E+00
         21   -1    0    0  501  502  0.00000000000E+00  0.00000000000E+00  0.38675427989E+03  0.38675427989E+03  0.00000000000E+00 0.  1.
         21   -1    0    0  502  503 -0.00000000000E+00 -0.00000000000E+00 -0.21297044879E+03  0.21297044879E+03  0.00000000000E+00 0.  1.
         -6    2    1    2    0  503  0.34747330083E+02 -0.74749346276E+02 -0.13376748814E+03  0.23731071384E+03  0.17784204313E+03 0.  0.
        -24    2    3    3    0    0  0.13168389793E+02 -0.99887606438E+02 -0.15551475738E+03  0.19740311422E+03  0.68060335952E+02 0.  0.
          6    2    1    2  501    0 -0.34747330083E+02  0.74749346276E+02  0.30755131924E+03  0.36241401484E+03  0.17309321902E+03 0.  0.
         24    2    5    5    0    0  0.27523441829E+02  0.67077556091E+02  0.11474594849E+03  0.15960251026E+03  0.83960646773E+02 0.  0.
          5    1    5    5  501    0 -0.62270771912E+02  0.76717901849E+01  0.19280537075E+03  0.20281150457E+03  0.47000000000E+01 0. -1.
        -13    1    6    6    0    0 -0.12876517095E+02  0.66843803986E+02  0.55181287310E+02  0.87629180602E+02  0.00000000000E+00 0.  1.
         14    1    6    6    0    0  0.40399958925E+02  0.23375210527E+00  0.59564661180E+02  0.71973329662E+02  0.00000000000E+00 0. -1.
         -5    1    3    3    0  503  0.21578940290E+02  0.25138260162E+02  0.21747269244E+02  0.39907599622E+02  0.47000000000E+01 0.  1.
         11    1    4    4    0    0 -0.10295753988E+02 -0.85620396642E+01 -0.66149773263E+02  0.67491507437E+02  0.00000000000E+00 0. -1.
        -12    1    4    4    0    0  0.23464143781E+02 -0.91325566774E+02 -0.89364984121E+02  0.12991160678E+03  0.00000000000E+00 0.  1.
</event>
<event>
12    1  0.8416569E-002  0.2219249E+03  0.7818608E-02  0.1133354E+00
         21   -1    0    0  501  502  0.00000000000E+00  0.00000000000E+00  0.73813623085E+03  0.73813623085E+03  0.00000000000E+00 0.  1.
         21   -1    0    0  502  503 -0.00000000000E+00 -0.00000000000E+00 -0.17808985964E+03  0.17808985964E+03  0.00000000000E+00 0. -1.
         -6    2    1    2    0  503 -0.71224360928E+02  0.11691481261E+03 -0.85697588746E+02  0.23341139629E+03  0.16850762655E+03 0.  0.
        -24    2    3    3    0    0 -0.68994084834E+02  0.54304823959E+02  0.86323677857E+01  0.12007466125E+03  0.81450652875E+02 0.  0.
          6    2    1    2  501    0  0.71224360928E+02 -0.11691481261E+03  0.64574395996E+03  0.68281469419E+03  0.17466728882E+03 0.  0.
         24    2    5    5    0    0  0.98828790979E+01  0.66352653523E+01  0.16130369987E+03  0.17909666319E+03  0.76909252564E+02 0.  0.
          5    1    5    5  501    0  0.61341481830E+02 -0.12355007796E+03  0.48444026009E+03  0.50371803100E+03  0.47000000000E+01 0. -1.
        -13    1    6    6    0    0 -0.61404360108E+01 -0.10551967069E+01  0.16120272901E+03  0.16132308649E+03  0.00000000000E+00 0.  1.
         14    1    6    6    0    0  0.16023315109E+02  0.76904620591E+01  0.10097086068E+00  0.17773576704E+02  0.00000000000E+00 0. -1.
         -5    1    3    3    0  503 -0.22302760938E+01  0.62609988651E+02 -0.94329956531E+02  0.11333673504E+03  0.47000000000E+01 0.  1.
         13    1    4    4    0    0  0.37491208892E+00  0.22243304032E+02 -0.27642288013E+02  0.35482407189E+02  0.00000000000E+00 0. -1.
        -14    1    4    4    0    0 -0.69368996923E+02  0.32061519927E+02  0.36274655798E+02  0.84592254063E+02  0.00000000000E+00 0.  1.
</event>
<event>
12    1  0.8416569E-002  0.1888819E+03  0.7818608E-02  0.1159522E+00
         21   -1    0    0  503  502  0.00000000000E+00  0.00000000000E+00  0.10005152344E+03  0.10005152344E+03  0.00000000000E+00 0. -1.
         21   -1    0    0  501  503 -0.00000000000E+00 -0.00000000000E+00 -0.51301932683E+03  0.51301932683E+03  0.00000000000E+00 0. -1.
          6    2    1    2  501    0  0.57057644154E+02 -0.53603960323E+02 -0.37589406409E+03  0.42058487189E+03  0.17165758860E+03 0.  0.
         24    2    3    3    0    0  0.63846707043E+01 -0.10856470476E+02 -0.60239843532E+02  0.98009647975E+02  0.76278603659E+02 0.  0.
         -6    2    1    2    0  502 -0.57057644154E+02  0.53603960323E+02 -0.37073739300E+02  0.19248597838E+03  0.17189366018E+03 0.  0.
        -24    2    5    5    0    0 -0.87592298181E+02  0.62823291029E+02  0.10931518957E+02  0.13465902986E+03  0.79964864906E+02 0.  0.
          5    1    3    3  501    0  0.50672973450E+02 -0.42747489847E+02 -0.31565422056E+03  0.32257522392E+03  0.47000000000E+01 0. -1.
        -13    1    4    4    0    0  0.22605697306E+02 -0.73016435691E+01  0.10043238356E+02  0.25791436296E+02  0.00000000000E+00 0.  1.
         14    1    4    4    0    0 -0.16221026602E+02 -0.35548269070E+01 -0.70283081888E+02  0.72218211679E+02  0.00000000000E+00 0. -1.
         -5    1    5    5    0  502  0.30534654027E+02 -0.92193307058E+01 -0.48005258256E+02  0.57826948523E+02  0.47000000000E+01 0.  1.
         13    1    6    6    0    0 -0.56707450244E+02  0.24300063413E+01 -0.19902270277E+02  0.60147653372E+02  0.00000000000E+00 0. -1.
        -14    1    6    6    0    0 -0.30884847937E+02  0.60393284688E+02  0.30833789233E+02  0.74511376487E+02  0.00000000000E+00 0.  1.
</event>
<event>
12    1  0.8416569E-002  0.2432588E+03  0.7818608E-02  0.1117681E+00
         21   -1    0    0  501  502  0.00000000000E+00  0.00000000000E+00  0.43230687542E+03  0.43230687542E+03  0.00000000000E+00 0.  1.
         21   -1    0    0  502  503 -0.00000000000E+00 -0.00000000000E+00 -0.15010911479E+03  0.15010911479E+03  0.00000000000E+00 0.  1.
         -6    2    1    2    0  503  0.17112457857E+03 -0.15305904818E+02  0.22792493632E+03  0.33317633167E+03  0.17186855231E+03 0.  0.
        -24    2    3    3    0    0  0.69809894345E+02 -0.69257257794E+02  0.13766864638E+03  0.18708149397E+03  0.79855119346E+02 0.  0.
          6    2    1    2  501    0 -0.17112457857E+03  0.15305904818E+02  0.54272824303E+02  0.24923965854E+03  0.17221200834E+03 0.  0.
         24    2    5    5    0    0 -0.15886552419E+03  0.30239339161E+02 -0.11514265111E+02  0.18051322251E+03  0.79371108038E+02 0.  0.
          5    1    5    5  501    0 -0.12259054380E+02 -0.14933434343E+02  0.65787089414E+02  0.68726436028E+02  0.47000000000E+01 0. -1.
        -11    1    6    6    0    0 -0.88550230762E+02  0.48578678776E+02  0.17057588525E+02  0.10243042871E+03  0.00000000000E+00 0.  1.
         12    1    6    6    0    0 -0.70315293430E+02 -0.18339339615E+02 -0.28571853636E+02  0.78082793801E+02  0.00000000000E+00 0. -1.
         -5    1    3    3    0  503  0.10131468423E+03  0.53951352976E+02  0.90256289945E+02  0.14609483770E+03  0.47000000000E+01 0.  1.
         13    1    4    4    0    0 -0.10239987951E+02 -0.66003160952E+01 -0.39033919121E+01  0.12792888423E+02  0.00000000000E+00 0. -1.
        -14    1    4    4    0    0  0.80049882296E+02 -0.62656941699E+02  0.14157203829E+03  0.17428860555E+03  0.00000000000E+00 0.  1.
</event>
<event>
12    1  0.8416569E-002  0.1943562E+03  0.7818608E-02  0.1154890E+00
         21   -1    0    0  503  502  0.00000000000E+00  0.00000000000E+00  0.60107446917E+03  0.60107446917E+03  0.00000000000E+00 0.  1.
         21   -1    0    0  501  503 -0.00000000000E+00 -0.00000000000E+00 -0.78405469016E+02  0.78405469016E+02  0.00000000000E+00 0.  1.
          6    2    1    2  501    0 -0.70268129344E+02  0.52102752367E+02  0.10711916093E+03  0.22072509470E+03  0.17202542249E+03 0.  0.
         24    2    3    3    0    0 -0.73738357113E+02  0.77854239911E+02  0.27813470485E+02  0.13713882711E+03  0.80838362050E+02 0.  0.
         -6    2    1    2    0  502  0.70268129344E+02 -0.52102752367E+02  0.41554983922E+03  0.45875484349E+03  0.17355699566E+03 0.  0.
        -24    2    5    5    0    0 -0.53937882574E+01 -0.62316069556E+02  0.13296115758E+03  0.16599642667E+03  0.77225376449E+02 0.  0.
          5    1    3    3  501    0  0.34702277692E+01 -0.25751487544E+02  0.79305690448E+02  0.83586267586E+02  0.47000000000E+01 0. -1.
        -11    1    4    4    0    0 -0.87258552897E+01  0.21451346722E+02 -0.26633685728E+02  0.35293824420E+02  0.00000000000E+00 0.  1.
         12    1    4    4    0    0 -0.65012501823E+02  0.56402893189E+02  0.54447156212E+02  0.10184500269E+03  0.00000000000E+00 0. -1.
         -5    1    5    5    0  502  0.75661917601E+02  0.10213317190E+02  0.28258868164E+03  0.29275841682E+03  0.47000000000E+01 0.  1.
         11    1    6    6    0    0 -0.35104622953E+02 -0.22581732530E+02  0.94209232672E+02  0.10304197551E+03  0.00000000000E+00 0. -1.
        -12    1    6    6    0    0  0.29710834696E+02 -0.39734337026E+02  0.38751924903E+02  0.62954451161E+02  0.00000000000E+00 0.  1.
</event>
<event>
12    1  0.8416569E-002  0.2849427E+03  0.7818608E-02  0.1093357E+00
         21   -1    0    0  501  502  0.00000000000E+00  0.00000000000E+00  0.39400708816E+02  0.39400708816E+02  0.00000000000E+00 0. -1.
         21   -1    0    0  502  503 -0.00000000000E+00 -0.00000000000E+00 -0.21021476587E+04  0.21021476587E+04  0.00000000000E+00 0.  1.
         -6    2    1    2    0  503  0.10214529575E+03  0.19964588432E+03 -0.12072644694E+04  0.12398596090E+04  0.17167472220E+03 0.  0.
        -24    2    3    3    0    0  0.80579340098E+02  0.65642685322E+02 -0.40193593157E+03  0.42316009773E+03  0.81914486079E+02 0.  0.
          6    2    1    2  501    0 -0.10214529575E+03 -0.19964588432E+03 -0.85548248049E+03  0.90168875858E+03  0.17578453389E+03 0.  0.
         24    2    5    5    0    0  0.11065801051E+02 -0.10268381097E+03 -0.30971388168E+03  0.33591155017E+03  0.79040901093E+02 0.  0.
          5    1    5    5  501    0 -0.11321109680E+03 -0.96962073350E+02 -0.54576859881E+03  0.56577720840E+03  0.47000000000E+01 0. -1.
        -11    1    6    6    0    0  0.18342826896E+01 -0.91437047882E+02 -0.30796356772E+03  0.32125637327E+03  0.00000000000E+00 0.  1.
         12    1    6    6    0    0  0.92315183614E+01 -0.11246763088E+02 -0.17503139557E+01  0.14655176907E+02  0.00000000000E+00 0. -1.
         -5    1    3    3    0  503  0.21565955649E+02  0.13400319900E+03 -0.80532853784E+03  0.81669951123E+03  0.47000000000E+01 0.  1.
         13    1    4    4    0    0  0.87537923785E+02  0.50664939046E+02 -0.38968546226E+03  0.40259729712E+03  0.00000000000E+00 0. -1.
        -14    1    4    4    0    0 -0.69585836871E+01  0.14977746276E+02 -0.12250469314E+02  0.20562800609E+02  0.00000000000E+00 0.  1.
</event>
<event>
12    1  0.8416569E-002  0.2286582E+03  0.7818608E-02  0.1127608E+00
         21   -1    0    0  503  502  0.00000000000E+00  0.00000000000E+00  0.15925366700E+03  0.15925366700E+03  0.00000000000E+00 0.  1.
         21   -1    0    0  501  503 -0.00000000000E+00 -0.00000000000E+00 -0.33725695889E+03  0.33725695889E+03  0.00000000000E+00 0. -1.
          6    2    1    2  501    0 -0.18446885076E+02 -0.14932240242E+03 -0.12982346782E+03  0.26294239775E+03  0.17218334502E+03 0.  0.
         24    2    3    3    0    0  0.28160317958E+02 -0.82794750541E+02 -0.13784876132E+03  0.18118265720E+03  0.78593257013E+02 0.  0.
         -6    2    1    2    0  502  0.18446885076E+02  0.14932240242E+03 -0.48179824058E+02  0.23356822814E+03  0.17203300357E+03 0.  0.
        -24    2    5    5    0    0 -0.40535472521E+02  0.13414507372E+03 -0.60293723953E+02  0.17129378406E+03  0.77898664789E+02 0.  0.
          5    1    3    3  501    0 -0.46607203035E+02 -0.66527651881E+02  0.80252934955E+01  0.81759740552E+02  0.47000000000E+01 0. -1.
        -11    1    4    4    0    0  0.31512991961E+02  0.22346784021E+01 -0.47714309573E+02  0.57225149960E+02  0.00000000000E+00 0.  1.
         12    1    4    4    0    0 -0.33526740027E+01 -0.85029428943E+02 -0.90134451745E+02  0.12395750724E+03  0.00000000000E+00 0. -1.
         -5    1    5    5    0  502  0.58982357598E+02  0.15177328707E+02  0.12113899894E+02  0.62274444077E+02  0.47000000000E+01 0.  1.
         11    1    6    6    0    0  0.63136048221E+01  0.10179608463E+03 -0.27677369733E+02  0.10568037304E+03  0.00000000000E+00 0. -1.
        -12    1    6    6    0    0 -0.46849077343E+02  0.32348989088E+02 -0.32616354220E+02  0.65613411019E+02  0.00000000000E+00 0.  1.
</event>
<event>
12    1  0.8416569E-002  0.2090224E+03  0.7818608E-02  0.1143282E+00
         21   -1    0    0  501  502  0.00000000000E+00  0.00000000000E+00  0.64876054853E+03  0.64876054853E+03  0.00000000000E+00 0.  1.
         21   -1    0    0  502  503 -0.00000000000E+00 -0.00000000000E+00 -0.73891294816E+02  0.73891294816E+02  0.00000000000E+00 0.  1.
         -6    2    1    2    0  503 -0.10773425306E+03 -0.30971781723E+02  0.40372710555E+03  0.45250377117E+03  0.17087471031E+03 0.  0.
        -24    2    3    3    0    0 -0.28906137753E+02 -0.74004403662E+02  0.20422640374E+03  0.23366981966E+03  0.81123018141E+02 0.  0.
          6    2    1    2  501    0  0.10773425306E+03  0.30971781723E+02  0.17114214816E+03  0.27014807217E+03  0.17642115937E+03 0.  0.
         24    2    5    5    0    0  0.13315215799E+03 -0.13198280607E+02  0.14462062233E+03  0.21250654522E+03  0.79625470595E+02 0.  0.
          5    1    5    5  501    0 -0.25417904926E+02  0.44170062330E+02  0.26521525828E+02  0.57641526952E+02  0.47000000000E+01 0. -1.
        -13    1    6    6    0    0  0.11336672963E+03 -0.21360942598E+02  0.15113707423E+03  0.19013342806E+03  0.00000000000E+00 0.  1.
         14    1    6    6    0    0  0.19785428356E+02  0.81626619908E+01 -0.65164519024E+01  0.22373117159E+02  0.00000000000E+00 0. -1.
         -5    1    3    3    0  503 -0.78828115310E+02  0.43032621939E+02  0.19950070181E+03  0.21883395152E+03  0.47000000000E+01 0.  1.
         11    1    4    4    0    0  0.89137307663E+01  0.14110579755E+02  0.42415535011E+02  0.45581143771E+02  0.00000000000E+00 0. -1.
        -12    1    4    4    0    0 -0.37819868519E+02 -0.88114983416E+02  0.16181086873E+03  0.18808867589E+03  0.00000000000E+00 0.  1.
</event>
<event>
12    1  0.8416569E-002  0.1913047E+03  0.7818608E-02  0.1157483E+00
         21   -1    0    0  501  502  0.00000000000E+00  0.00000000000E+00  0.10243975318E+03  0.10243975318E+03  0.00000000000E+00 0. -1.
         21   -1    0    0  502  503 -0.00000000000E+00 -0.00000000000E+00 -0.41432523980E+03  0.41432523980E+03  0.00000000000E+00 0.  1.
         -6    2    1    2    0  503  0.40282622535E+02  0.74288037726E+02 -0.59011851230E+02  0.20019960696E+03  0.17162774197E+03 0.  0.
        -24    2    3    3    0    0  0.31696819767E+02  0.10231842878E+03 -0.18868228475E+00  0.13430822636E+03  0.81024161927E+02 0.  0.
          6    2    1    2  501    0 -0.40282622535E+02 -0.74288037726E+02 -0.25287363539E+03  0.31656538601E+03  0.17066682724E+03 0.  0.
         24    2    5    5    0    0  0.38725175441E+02 -0.28700265113E+02 -0.95381646737E+02  0.13450415004E+03  0.81672292819E+02 0.  0.
          5    1    5    5  501    0 -0.79007797976E+02 -0.45587772613E+02 -0.15749198865E+03  0.18206123597E+03  0.47000000000E+01 0. -1.
        -11    1    6    6    0    0  0.39943736426E+01 -0.35116463353E+02 -0.28457949782E+01  0.35457292173E+02  0.00000000000E+00 0.  1.
         12    1    6    6    0    0  0.34730801798E+02  0.64161982397E+01 -0.92535851758E+02  0.99046857871E+02  0.00000000000E+00 0. -1.
         -5    1    3    3    0  503  0.85858027682E+01 -0.28030391058E+02 -0.58823168945E+02  0.65891380596E+02  0.47000000000E+01 0.  1.
         13    1    4    4    0    0  0.15883500456E+01  0.28913085915E+02 -0.36884358676E+02  0.46892913195E+02  0.00000000000E+00 0. -1.
        -14    1    4    4    0    0  0.30108469721E+02  0.73405342869E+02  0.36695676391E+02  0.87415313169E+02  0.00000000000E+00 0.  1.
</event>
<event>
12    1  0.8416569E-002  0.1790486E+03  0.7818608E-02  0.1169614E+00
         21   -1    0    0  501  502  0.00000000000E+00  0.00000000000E+00  0.11188286297E+04  0.11188286297E+04  0.00000000000E+00 0.  1.
         21   -1    0    0  502  503 -0.00000000000E+00 -0.00000000000E+00 -0.52964690677E+02  0.52964690677E+02  0.00000000000E+00 0.  1.
         -6    2    1    2    0  503 -0.30894025374E+02 -0.10631647022E+02  0.12847544303E+03  0.21745816814E+03  0.17237935696E+03 0.  0.
        -24    2    3    3    0    0  0.10923844159E+01  0.57030949389E+02  0.53108030364E+02  0.11113933511E+03  0.79232357204E+02 0.  0.
          6    2    1    2  501    0  0.30894025374E+02  0.10631647022E+02  0.93738849603E+03  0.95433515227E+03  0.17604237459E+03 0.  0.
         24    2    5    5    0    0  0.73904458854E+02  0.43016557271E+02  0.47522298726E+03  0.48902049820E+03  0.77407149538E+02 0.  0.
          5    1    5    5  501    0 -0.43010433479E+02 -0.32384910249E+02  0.46216550877E+03  0.46531465408E+03  0.47000000000E+01 0. -1.
        -13    1    6    6    0    0  0.12376106174E+02 -0.62567850146E+00  0.27145649422E+03  0.27173919064E+03  0.00000000000E+00 0.  1.
         14    1    6    6    0    0  0.61528352679E+02  0.43642235772E+02  0.20376649304E+03  0.21728130756E+03  0.00000000000E+00 0. -1.
         -5    1    3    3    0  503 -0.31986409790E+02 -0.67662596411E+02  0.75367412663E+02  0.10631883303E+03  0.47000000000E+01 0.  1.
         11    1    4    4    0    0 -0.15853769883E+02  0.54623979001E+02  0.67859179915E+02  0.88543714628E+02  0.00000000000E+00 0. -1.
        -12    1    4    4    0    0  0.16946154299E+02  0.24069703879E+01 -0.14751149551E+02  0.22595620484E+02  0.00000000000E+00 0.  1.
</event>
<event>
12    1  0.8416569E-002  0.1788609E+03  0.7818608E-02  0.1169216E+00
         21   -1    0    0  503  502  0.00000000000E+00  0.00000000000E+00  0.16104188380E+03  0.16104188380E+03  0.00000000000E+00 0. -1.
         21   -1    0    0  501  503 -0.00000000000E+00 -0.00000000000E+00 -0.20535175295E+03  0.20535175295E+03  0.00000000000E+00 0. -1.
          6    2    1    2  501    0  0.32402557627E+02 -0.33010237160E+02 -0.58580818500E+02  0.18820981030E+03  0.17277621045E+03 0.  0.
         24    2    3    3    0    0  0.15439832278E+02 -0.77730496038E+02  0.20343177578E+00  0.11228014755E+03  0.79538492023E+02 0.  0.
         -6    2    1    2    0  502 -0.32402557627E+02  0.33010237160E+02  0.14270949346E+02  0.17818382645E+03  0.17148240293E+03 0.  0.
        -24    2    5    5    0    0 -0.75430935296E+02 -0.13441817869E+02  0.25307016199E+02  0.11373912556E+03  0.80160059550E+02 0.  0.
          5    1    3    3  501    0  0.16962725349E+02  0.44720258878E+02 -0.58784250276E+02  0.75929662754E+02  0.47000000000E+01 0. -1.
        -11    1    4    4    0    0  0.43524410535E+02 -0.56349311117E+02  0.16981286275E+02  0.73198246286E+02  0.00000000000E+00 0.  1.
         12    1    4    4    0    0 -0.28084578257E+02 -0.21381184921E+02 -0.16777854499E+02  0.39081901260E+02  0.00000000000E+00 0. -1.
         -5    1    5    5    0  502  0.43028377669E+02  0.46452055029E+02 -0.11036066854E+02  0.64444700891E+02  0.47000000000E+01 0.  1.
         11    1    6    6    0    0 -0.29437478230E+02  0.27613843259E+02  0.32295613306E+02  0.51692321508E+02  0.00000000000E+00 0. -1.
        -12    1    6    6    0    0 -0.45993457066E+02 -0.41055661128E+02 -0.69885971063E+01  0.62046804052E+02  0.00000000000E+00 0.  1.
</event>
<event>
12    1  0.8416569E-002  0.2359851E+03  0.7818608E-02  0.1122511E+00
         21   -1    0    0  503  502  0.00000000000E+00  0.00000000000E+00  0.67809563030E+03  0.67809563030E+03  0.00000000000E+00 0.  1.
         21   -1    0    0  501  503 -0.00000000000E+00 -0.00000000000E+00 -0.10797308714E+03  0.10797308714E+03  0.00000000000E+00 0.  1.
          6    2    1    2  501    0  0.44913147504E+02 -0.15500587476E+03  0.92692046533E+02  0.25353653028E+03  0.17217707359E+03 0.  0.
         24    2    3    3    0    0  0.31525929836E+02 -0.77579230697E+01  0.19607431589E+02  0.88537658119E+02  0.80002474395E+02 0.  0.
         -6    2    1    2    0  502 -0.44913147504E+02  0.15500587476E+03  0.47743049663E+03  0.53253218715E+03  0.17206579909E+03 0.  0.
        -24    2    5    5    0    0  0.22231243480E+02  0.93011467826E+02  0.37667815818E+03  0.39642634807E+03  0.78243550895E+02 0.  0.
          5    1    3    3  501    0  0.13387217668E+02 -0.14724795169E+03  0.73084614944E+02  0.16499887216E+03  0.47000000000E+01 0. -1.
        -11    1    4    4    0    0  0.21141236184E+01 -0.41384478578E+02  0.12638985906E+02  0.43323071805E+02  0.00000000000E+00 0.  1.
         12    1    4    4    0    0  0.29411806218E+02  0.33626555508E+02  0.69684456833E+01  0.45214586315E+02  0.00000000000E+00 0. -1.
         -5    1    5    5    0  502 -0.67144390985E+02  0.61994406932E+02  0.10075233845E+03  0.13610583909E+03  0.47000000000E+01 0.  1.
         13    1    6    6    0    0  0.31322444395E+01 -0.63054719668E+01  0.69106691143E+00  0.70744261555E+01  0.00000000000E+00 0. -1.
        -14    1    6    6    0    0  0.19098999041E+02  0.99316939793E+02  0.37598709127E+03  0.38935192191E+03  0.00000000000E+00 0.  1.
</event>
<event>
12    1  0.8416569E-002  0.1808064E+03  0.7818608E-02  0.1167280E+00
         21   -1    0    0  501  502  0.00000000000E+00  0.00000000000E+00  0.57860110435E+02  0.57860110435E+02  0.00000000000E+00 0.  1.
         21   -1    0    0  502  503 -0.00000000000E+00 -0.00000000000E+00 -0.76116360716E+03  0.76116360716E+03  0.00000000000E+00 0. -1.
         -6    2    1    2    0  503  0.25418899548E+02 -0.46602597231E+02 -0.56052094915E+03  0.58863749529E+03  0.17173364231E+03 0.  0.
        -24    2    3    3    0    0  0.74277451548E+02 -0.62608084693E+02 -0.40317992968E+03  0.42304274857E+03  0.83511671905E+02 0.  0.
          6    2    1    2  501    0 -0.25418899548E+02  0.46602597231E+02 -0.14278254757E+03  0.23038622230E+03  0.17283817001E+03 0.  0.
         24    2    5    5    0    0 -0.61776907909E+02  0.44050011421E+02 -0.15460964022E+03  0.19178064516E+03  0.84373486070E+02 0.  0.
          5    1    5    5  501    0  0.36358008361E+02  0.25525858100E+01  0.11827092647E+02  0.38605577146E+02  0.47000000000E+01 0. -1.
        -11    1    6    6    0    0 -0.41995837006E+02 -0.18095316253E+02 -0.44505434463E+02  0.63810849335E+02  0.00000000000E+00 0.  1.
         12    1    6    6    0    0 -0.19781070903E+02  0.62145327674E+02 -0.11010420576E+03  0.12796979582E+03  0.00000000000E+00 0. -1.
         -5    1    3    3    0  503 -0.48858551999E+02  0.16005487462E+02 -0.15734101947E+03  0.16559474672E+03  0.47000000000E+01 0.  1.
         13    1    4    4    0    0  0.46925550390E+02 -0.75184805058E+02 -0.35759523276E+03  0.36841432204E+03  0.00000000000E+00 0. -1.
        -14    1    4    4    0    0  0.27351901158E+02  0.12576720365E+02 -0.45584696926E+02  0.54628426537E+02  0.00000000000E+00 0.  1.
</event>
<event>
12    1  0.8416569E-002  0.2764051E+03  0.7818608E-02  0.1097669E+00
         21   -1    0    0  503  502  0.00000000000E+00  0.00000000000E+00  0.43175696042E+03  0.43175696042E+03  0.00000000000E+00 0. -1.
         21   -1    0    0  501  503 -0.00000000000E+00 -0.00000000000E+00 -0.18331134798E+03  0.18331134798E+03  0.00000000000E+00 0. -1.
          6    2    1    2  501    0  0.21551950023E+03 -0.10294048136E+02  0.66923510200E+02  0.28439155362E+03  0.17275756754E+03 0.  0.
         24    2    3    3    0    0  0.15671461538E+03 -0.72503801525E+02  0.59959572906E+02  0.19837612290E+03  0.77082188881E+02 0.  0.
         -6    2    1    2    0  502 -0.21551950023E+03  0.10294048136E+02  0.18152210224E+03  0.33067675479E+03  0.17274900911E+03 0.  0.
        -24    2    5    5    0    0 -0.18771312134E+03  0.51347099730E+02  0.18485037988E+03  0.28075967170E+03  0.82362550568E+02 0.  0.
          5    1    3    3  501    0  0.58804884853E+02  0.62209753389E+02  0.69639372948E+01  0.86015430720E+02  0.47000000000E+01 0. -1.
        -11    1    4    4    0    0 -0.66256517047E+01  0.43197561793E+01 -0.72756449912E+00  0.79428523882E+01  0.00000000000E+00 0.  1.
         12    1    4    4    0    0  0.16334026709E+03 -0.76823557704E+02  0.60687137405E+02  0.19043327051E+03  0.00000000000E+00 0. -1.
         -5    1    5    5    0  502 -0.27806378892E+02 -0.41053051594E+02 -0.33282776398E+01  0.49917083091E+02  0.47000000000E+01 0.  1.
         11    1    6    6    0    0 -0.32890646034E+02  0.21023504190E+02  0.17608021855E+01  0.39075347078E+02  0.00000000000E+00 0. -1.
        -12    1    6    6    0    0 -0.15482247531E+03  0.30323595540E+02  0.18308957769E+03  0.24168432462E+03  0.00000000000E+00 0.  1.
</event>
<event>
12    1  0.8416569E-002  0.2908460E+03  0.7818608E-02  0.1089991E+00
         21   -1    0    0  503  502  0.00000000000E+00  0.00000000000E+00  0.28850807663E+03  0.28850807663E+03  0.00000000000E+00 0. -1.
         21   -1    0    0  501  503 -0.00000000000E+00 -0.00000000000E+00 -0.30491647260E+03  0.30491647260E+03  0.00000000000E+00 0.  1.
          6    2    1    2  501    0 -0.97633174105E+02  0.21311712579E+03 -0.67940169148E+02  0.29867588463E+03  0.17216350219E+03 0.  0.
         24    2    3    3    0    0 -0.11356742003E+03  0.22664860026E+03 -0.49240027812E+02  0.27023671657E+03  0.79599973315E+02 0.  0.
         -6    2    1    2    0  502  0.97633174105E+02 -0.21311712579E+03  0.51531773178E+02  0.29474866459E+03  0.17108508304E+03 0.  0.
        -24    2    5    5    0    0  0.58444043047E+02 -0.68097743710E+02  0.76014413481E+02  0.14247293163E+03  0.80419750833E+02 0.  0.
          5    1    3    3  501    0  0.15934245920E+02 -0.13531474467E+02 -0.18700141336E+02  0.28439168066E+02  0.47000000000E+01 0. -1.
        -13    1    4    4    0    0 -0.95990830382E+02  0.10777449969E+03 -0.39736883381E+02  0.14969503065E+03  0.00000000000E+00 0.  1.
         14    1    4    4    0    0 -0.17576589643E+02  0.11887410057E+03 -0.95031444309E+01  0.12054168592E+03  0.00000000000E+00 0. -1.
         -5    1    5    5    0  502  0.39189131058E+02 -0.14501938208E+03 -0.24482640303E+02  0.15227573296E+03  0.47000000000E+01 0.  1.
         13    1    6    6    0    0 -0.14088496740E+02 -0.36419987075E+02  0.12533028366E+02  0.41011925082E+02  0.00000000000E+00 0. -1.
        -14    1    6    6    0    0  0.72532539787E+02 -0.31677756635E+02  0.63481385115E+02  0.10146100655E+03  0.00000000000E+00 0.  1.
</event>
<event>
12    1  0.8416569E-002  0.2321459E+03  0.7818608E-02  0.1125321E+00
         21   -1    0    0  501  502  0.00000000000E+00  0.00000000000E+00  0.16785202063E+03  0.16785202063E+03  0.00000000000E+00 0. -1.
         21   -1    0    0  502  503 -0.00000000000E+00 -0.00000000000E+00 -0.90380951355E+03  0.90380951355E+03  0.00000000000E+00 0.  1.
         -6    2    1    2    0  503  0.12810102329E+03 -0.88460012652E+02 -0.79906297877E+03  0.83210178193E+03  0.17221116528E+03 0.  0.
        -24    2    3    3    0    0  0.11280370009E+03 -0.55261939807E+02 -0.33138408610E+03  0.36297306101E+03  0.78456827360E+02 0.  0.
          6    2    1    2  501    0 -0.12810102329E+03  0.88460012652E+02  0.63105485847E+02  0.23955975225E+03  0.17079674045E+03 0.  0.
         24    2    5    5    0    0 -0.38839716233E+02  0.10023825800E+03  0.67495365986E+02  0.14929531269E+03  0.78595381790E+02 0.  0.
          5    1    5    5  501    0 -0.89261307060E+02 -0.11778245347E+02 -0.43898801396E+01  0.90264439560E+02  0.47000000000E+01 0. -1.
        -13    1    6    6    0    0  0.19546160998E+02  0.41274491208E+01  0.48070537283E+01  0.20547408877E+02  0.00000000000E+00 0.  1.
         14    1    6    6    0    0 -0.58385877231E+02  0.96110808879E+02  0.62688312258E+02  0.12874790382E+03  0.00000000000E+00 0. -1.
         -5    1    3    3    0  503  0.15297323205E+02 -0.33198072845E+02 -0.46767889267E+03  0.46912872091E+03  0.47000000000E+01 0.  1.
         13    1    4    4    0    0  0.31662792417E+01 -0.31952979502E+00  0.44374563129E+01  0.54606265259E+01  0.00000000000E+00 0. -1.
        -14    1    4    4    0    0  0.10963742085E+03 -0.54942410012E+02 -0.33582154241E+03  0.35751243449E+03  0.00000000000E+00 0.  1.
</event>
<event>
12    1  0.8416569E-002  0.2029743E+03  0.7818608E-02  0.1148031E+00
         21   -1    0    0  503  502  0.00000000000E+00  0.00000000000E+00  0.69799517815E+03  0.69799517815E+03  0.00000000000E+00 0. -1.
         21   -1    0    0  501  503 -0.00000000000E+00 -0.00000000000E+00 -0.71189113763E+02  0.71189113763E+02  0.00000000000E+00 0. -1.
          6    2    1    2  501    0  0.18739836727E+02  0.10669803248E+03  0.47690778192E+03  0.51685900172E+03  0.16723200529E+03 0.  0.
         24    2    3    3    0    0 -0.34700505567E+02  0.86176519538E+02  0.20879931632E+03  0.24266702153E+03  0.81606441141E+02 0.  0.
         -6    2    1    2    0  502 -0.18739836727E+02 -0.10669803248E+03  0.14989828247E+03  0.25232529019E+03  0.17164761975E+03 0.  0.
        -24    2    5    5    0    0  0.14460121268E+02  0.86983305909E+01  0.63907310174E+02  0.10455826025E+03  0.81015612267E+02 0.  0.
          5    1    3    3  501    0  0.53440342294E+02  0.20521512942E+02  0.26810846559E+03  0.27419198019E+03  0.47000000000E+01 0. -1.
        -11    1    4    4    0    0 -0.23620845821E+02  0.17621758460E+01  0.87441285352E+01  0.25248948589E+02  0.00000000000E+00 0.  1.
         12    1    4    4    0    0 -0.11079659746E+02  0.84414343692E+02  0.20005518779E+03  0.21741807294E+03  0.00000000000E+00 0. -1.
         -5    1    5    5    0  502 -0.33199957995E+02 -0.11539636307E+03  0.85990972297E+02  0.14776702994E+03  0.47000000000E+01 0.  1.
         11    1    6    6    0    0 -0.14095441810E+02 -0.74612979016E+01 -0.13237134582E+02  0.20726171333E+02  0.00000000000E+00 0. -1.
        -12    1    6    6    0    0  0.28555563078E+02  0.16159628492E+02  0.77144444755E+02  0.83832088918E+02  0.00000000000E+00 0.  1.
</event>
<event>
12    1  0.8416569E-002  0.2541236E+03  0.7818608E-02  0.1112085E+00
         21   -1    0    0  503  502  0.00000000000E+00  0.00000000000E+00  0.12571881268E+03  0.12571881268E+03  0.00000000000E+00 0.  1.
         21   -1    0    0  501  503 -0.00000000000E+00 -0.00000000000E+00 -0.51754711624E+03  0.51754711624E+03  0.00000000000E+00 0. -1.
          6    2    1    2  501    0 -0.59272643449E+02  0.17773905308E+03 -0.26416863461E+03  0.36655678733E+03  0.17168108100E+03 0.  0.
         24    2    3    3    0    0 -0.84090178599E+02  0.11597739459E+03 -0.25088397766E+03  0.29852014558E+03  0.75163773696E+02 0.  0.
         -6    2    1    2    0  502  0.59272643449E+02 -0.17773905308E+03 -0.12765966895E+03  0.27670914160E+03  0.15863965682E+03 0.  0.
        -24    2    5    5    0    0  0.10890648714E+01 -0.12303922541E+03 -0.13118733852E+03  0.19663458624E+03  0.79468268308E+02 0.  0.
          5    1    3    3  501    0  0.24817535150E+02  0.61761658485E+02 -0.13284656947E+02  0.68036641745E+02  0.47000000000E+01 0. -1.
        -11    1    4    4    0    0 -0.40194402590E+02  0.20600487166E+02 -0.30780482550E+02  0.54657187790E+02  0.00000000000E+00 0.  1.
         12    1    4    4    0    0 -0.43895776009E+02  0.95376907428E+02 -0.22010349511E+03  0.24386295779E+03  0.00000000000E+00 0. -1.
         -5    1    5    5    0  502  0.58183578578E+02 -0.54699827667E+02  0.35276695642E+01  0.80074555356E+02  0.47000000000E+01 0.  1.
         11    1    6    6    0    0 -0.17731019203E+02 -0.10663872226E+03 -0.65582435615E+02  0.12644074497E+03  0.00000000000E+00 0. -1.
        -12    1    6    6    0    0  0.18820084075E+02 -0.16400503153E+02 -0.65604902901E+02  0.70193841275E+02  0.00000000000E+00 0.  1.
</event>
<event>
12    1  0.8416569E-002  0.1903320E+03  0.7818608E-02  0.1158858E+00
         21   -1    0    0  503  502  0.00000000000E+00  0.00000000000E+00  0.11031691063E+03  0.11031691063E+03  0.00000000000E+00 0.  1.
         21   -1    0    0  501  503 -0.00000000000E+00 -0.00000000000E+00 -0.32451462002E+03  0.32451462002E+03  0.00000000000E+00 0. -1.
          6    2    1    2  501    0  0.55764395278E+02  0.53433975673E+02 -0.91956072414E+02  0.20862522200E+03  0.17059808458E+03 0.  0.
         24    2    3    3    0    0  0.15925219090E+02 -0.45827308889E+02 -0.25701162329E+02  0.82721426649E+02  0.61875114859E+02 0.  0.
         -6    2    1    2    0  502 -0.55764395278E+02 -0.53433975673E+02 -0.12224163698E+03  0.22620630865E+03  0.17395809474E+03 0.  0.
        -24    2    5    5    0    0 -0.23554237508E+02 -0.22097723223E+02 -0.15021739780E+03  0.17306321715E+03  0.79639808211E+02 0.  0.
          5    1    3    3  501    0  0.39839176188E+02  0.99261284562E+02 -0.66254910085E+02  0.12590379535E+03  0.47000000000E+01 0. -1.
        -13    1    4    4    0    0  0.18367254123E+01  0.17452205162E+01  0.17044828338E+02  0.17232107473E+02  0.00000000000E+00 0.  1.
         14    1    4    4    0    0  0.14088493677E+02 -0.47572529405E+02 -0.42745990667E+02  0.65489319176E+02  0.00000000000E+00 0. -1.
         -5    1    5    5    0  502 -0.32210157770E+02 -0.31336252450E+02  0.27975760820E+02  0.53143091504E+02  0.47000000000E+01 0.  1.
         11    1    6    6    0    0 -0.98942063512E+01 -0.46697742707E+02 -0.12979684594E+03  0.13829604372E+03  0.00000000000E+00 0. -1.
        -12    1    6    6    0    0 -0.13660031156E+02  0.24600019484E+02 -0.20420551859E+02  0.34767173426E+02  0.00000000000E+00 0.  1.
</event>
<event>
12    1  0.8416569E-002  0.1792607E+03  0.7818608E-02  0.1168822E+00
         21   -1    0    0  503  502  0.00000000000E+00  0.00000000000E+00  0.43259447413E+03  0.43259447413E+03  0.00000000000E+00 0.  1.
         21   -1    0    0  501  503 -0.00000000000E+00 -0.00000000000E+00 -0.18399773416E+03  0.18399773416E+03  0.00000000000E+00 0.  1.
          6    2    1    2  501    0  0.37513020472E+02  0.24924569529E+02 -0.11449080125E+03  0.21166386117E+03  0.17223526261E+03 0.  0.
         24    2    3    3    0    0 -0.28126069310E+02 -0.26867189876E+02 -0.87963069583E+02  0.12381918577E+03  0.77979276014E+02 0.  0.
         -6    2    1    2    0  502 -0.37513020472E+02 -0.24924569529E+02  0.36308754122E+03  0.40492834711E+03  0.17351064185E+03 0.  0.
        -24    2    5    5    0    0  0.44201315932E+02 -0.19390075169E+02  0.23405073178E+03  0.25202167103E+03  0.80034031972E+02 0.  0.
          5    1    3    3  501    0  0.65639089782E+02  0.51791759405E+02 -0.26527731665E+02  0.87844675404E+02  0.47000000000E+01 0. -1.
        -13    1    4    4    0    0  0.93024795844E+01  0.74793385252E-01 -0.75468472919E+02  0.76039674678E+02  0.00000000000E+00 0.  1.
         14    1    4    4    0    0 -0.37428548894E+02 -0.26941983261E+02 -0.12494596664E+02  0.47779511092E+02  0.00000000000E+00 0. -1.
         -5    1    5    5    0  502 -0.81714336405E+02 -0.55344943602E+01  0.12903680943E+03  0.15290667608E+03  0.47000000000E+01 0.  1.
         11    1    6    6    0    0 -0.37749156304E+01 -0.40142625726E+02  0.85184198863E+02  0.94244512435E+02  0.00000000000E+00 0. -1.
        -12    1    6    6    0    0  0.47976231563E+02  0.20752550558E+02  0.14886653292E+03  0.15777715859E+03  0.00000000000E+00 0.  1.
</event>
<event>
12    1  0.8416569E-002  0.1937948E+03  0.7818608E-02  0.1155692E+00
         21   -1    0    0  503  502  0.00000000000E+00  0.00000000000E+00  0.13270828621E+03  0.13270828621E+03  0.00000000000E+00 0. -1.
         21   -1    0    0  501  503 -0.00000000000E+00 -0.00000000000E+00 -0.29127646821E+03  0.29127646821E+03  0.00000000000E+00 0. -1.
          6    2    1    2  501    0 -0.86449462033E+02 -0.14512368526E+02 -0.12335265330E+03  0.22972219018E+03  0.17283601840E+03 0.  0.
         24    2    3    3    0    0 -0.75161425084E+02  0.18829582038E+02 -0.14906298073E+03  0.18587910198E+03  0.79545429474E+02 0.  0.
         -6    2    1    2    0  502  0.86449462033E+02  0.14512368526E+02 -0.35215528710E+02  0.19426256424E+03  0.16974596336E+03 0.  0.
        -24    2    5    5    0    0 -0.12468264180E+02  0.37492753504E+02 -0.24740184051E+02  0.92063554958E+02  0.79388017154E+02 0.  0.
          5    1    3    3  501    0 -0.11288036949E+02 -0.33341950564E+02  0.25710327431E+02  0.43843088191E+02  0.47000000000E+01 0. -1.
        -13    1    4    4    0    0 -0.58742469847E+02  0.23309934324E+02 -0.38474412969E+02  0.73988588683E+02  0.00000000000E+00 0.  1.
         14    1    4    4    0    0 -0.16418955237E+02 -0.44803522865E+01 -0.11058856776E+03  0.11189051330E+03  0.00000000000E+00 0. -1.
         -5    1    5    5    0  502  0.98917726214E+02 -0.22980384978E+02 -0.10475344659E+02  0.10219900928E+03  0.47000000000E+01 0.  1.
         11    1    6    6    0    0  0.14103716695E+02  0.44278041375E+02  0.10269522409E+02  0.47591205734E+02  0.00000000000E+00 0. -1.
        -12    1    6    6    0    0 -0.26571980875E+02 -0.67852878710E+01 -0.35009706460E+02  0.44472349225E+02  0.00000000000E+00 0.  1.
</event>
<event>
12    1  0.8416569E-002  0.1845797E+03  0.7818608E-02  0.1165017E+00
         21   -1    0    0  501  502  0.00000000000E+00  0.00000000000E+00  0.12905151816E+04  0.12905151816E+04  0.00000000000E+00 0.  1.
         21   -1    0    0  502  503 -0.00000000000E+00 -0.00000000000E+00 -0.26242740292E+02  0.26242740292E+02  0.00000000000E+00 0.  1.
         -6    2    1    2    0  503  0.23047122733E+02 -0.42249724302E+02  0.52999138951E+03  0.56121344150E+03  0.17819496317E+03 0.  0.
        -24    2    3    3    0    0 -0.16424197175E+02  0.34091787159E+02  0.34367298793E+03  0.35597541326E+03  0.84707544011E+02 0.  0.
          6    2    1    2  501    0 -0.23047122733E+02  0.42249724302E+02  0.73428105178E+03  0.75554448037E+03  0.17135515675E+03 0.  0.
         24    2    5    5    0    0 -0.59480099181E+02  0.14192424781E+02  0.66363362085E+03  0.67111863524E+03  0.79065369929E+02 0.  0.
          5    1    5    5  501    0  0.36432976448E+02  0.28057299521E+02  0.70647430932E+02  0.84425845134E+02  0.47000000000E+01 0. -1.
        -13    1    6    6    0    0 -0.48927898822E+02 -0.27910979847E+02  0.35263377281E+03  0.35710438222E+03  0.00000000000E+00 0.  1.
         14    1    6    6    0    0 -0.10552200359E+02  0.42103404628E+02  0.31099984804E+03  0.31401425302E+03  0.00000000000E+00 0. -1.
         -5    1    3    3    0  503  0.39471319908E+02 -0.76341511461E+02  0.18631840158E+03  0.20523802823E+03  0.47000000000E+01 0.  1.
         11    1    4    4    0    0  0.24993858753E+01 -0.71109885297E+00  0.28597518160E+03  0.28598698762E+03  0.00000000000E+00 0. -1.
        -12    1    4    4    0    0 -0.18923583051E+02  0.34802886012E+02  0.57697806324E+02  0.69988425649E+02  0.00000000000E+00 0.  1.
</event>
<event>
12    1  0.8416569E-002  0.3081438E+03  0.7818608E-02  0.1081502E+00
         21   -1    0    0  503  502  0.00000000000E+00  0.00000000000E+00  0.94366550225E+02  0.94366550225E+02  0.00000000000E+00 0. -1.
         21   -1    0    0  501  503 -0.00000000000E+00 -0.00000000000E+00 -0.15010101042E+04  0.15010101042E+04  0.00000000000E+00 0.  1.
          6    2    1    2  501    0 -0.10723703746E+03  0.22963261359E+03 -0.11629161219E+04  0.12024954166E+04  0.17143628827E+03 0.  0.
         24    2    3    3    0    0 -0.86163483718E+02  0.16208676680E+03 -0.10526397525E+04  0.10713866689E+04  0.78247554263E+02 0.  0.
         -6    2    1    2    0  502  0.10723703746E+03 -0.22963261359E+03 -0.24372743213E+03  0.39288123788E+03  0.17527602938E+03 0.  0.
        -24    2    5    5    0    0  0.67220928510E+02 -0.16808089362E+03 -0.83052316976E+02  0.21616540430E+03  0.84023536178E+02 0.  0.
          5    1    3    3  501    0 -0.21073553743E+02  0.67545846792E+02 -0.11027636935E+03  0.13110874770E+03  0.47000000000E+01 0. -1.
        -11    1    4    4    0    0 -0.35812916005E+02  0.13479755081E+02 -0.30997169149E+03  0.31232470007E+03  0.00000000000E+00 0.  1.
         12    1    4    4    0    0 -0.50350567713E+02  0.14860701172E+03 -0.74266806103E+03  0.75906196880E+03  0.00000000000E+00 0. -1.
         -5    1    5    5    0  502  0.40016108951E+02 -0.61551719971E+02 -0.16067511515E+03  0.17671583357E+03  0.47000000000E+01 0.  1.
         13    1    6    6    0    0 -0.87458530738E+01 -0.76327431552E+02 -0.12840071279E+02  0.77892452675E+02  0.00000000000E+00 0. -1.
        -14    1    6    6    0    0  0.75966781584E+02 -0.91753462070E+02 -0.70212245697E+02  0.13827295163E+03  0.00000000000E+00 0.  1.
</event>
<event>
12    1  0.8416569E-002  0.2112315E+03  0.7818608E-02  0.1140742E+00
         21   -1    0    0  501  502  0.00000000000E+00  0.00000000000E+00  0.51898651244E+03  0.51898651244E+03  0.00000000000E+00 0. -1.
         21   -1    0    0  502  503 -0.00000000000E+00 -0.00000000000E+00 -0.89949632272E+02  0.89949632272E+02  0.00000000000E+00 0. -1.
         -6    2    1    2    0  503 -0.20882323155E+02  0.11930100832E+03  0.14845532058E+03  0.25818157129E+03  0.17306050832E+03 0.  0.
        -24    2    3    3    0    0  0.18667648152E+02  0.85976830801E+02  0.16533309535E+03  0.20357708138E+03  0.79800370437E+02 0.  0.
          6    2    1    2  501    0  0.20882323155E+02 -0.11930100832E+03  0.28058155959E+03  0.35075457342E+03  0.17214516313E+03 0.  0.
         24    2    5    5    0    0  0.14047148459E+01 -0.56409084129E+02  0.47619115147E+02  0.10862163086E+03  0.79668818035E+02 0.  0.
          5    1    5    5  501    0  0.19477608309E+02 -0.62891924193E+02  0.23296244444E+03  0.24213294256E+03  0.47000000000E+01 0. -1.
        -13    1    6    6    0    0 -0.20107513142E+02  0.11720223243E+02  0.23856025050E+02  0.33328451042E+02  0.00000000000E+00 0.  1.
         14    1    6    6    0    0  0.21512227988E+02 -0.68129307372E+02  0.23763090096E+02  0.75293179817E+02  0.00000000000E+00 0. -1.
         -5    1    3    3    0  503 -0.39549971306E+02  0.33324177520E+02 -0.16877774768E+02  0.54604489915E+02  0.47000000000E+01 0.  1.
         11    1    4    4    0    0 -0.20879245157E+02  0.38811759444E+02  0.25791602475E+02  0.51063708323E+02  0.00000000000E+00 0. -1.
        -12    1    4    4    0    0  0.39546893309E+02  0.47165071357E+02  0.13954149287E+03  0.15251337305E+03  0.00000000000E+00 0.  1.
</event>
<event>
12    1  0.8416569E-002  0.2331793E+03  0.7818608E-02  0.1124940E+00
         21   -1    0    0  503  502  0.00000000000E+00  0.00000000000E+00  0.50867156386E+03  0.50867156386E+03  0.00000000000E+00 0.  1.
         21   -1    0    0  501  503 -0.00000000000E+00 -0.00000000000E+00 -0.17125203528E+03  0.17125203528E+03  0.00000000000E+00 0.  1.
          6    2    1    2  501    0 -0.12754321696E+03  0.87970453487E+02 -0.42559347173E+02  0.23410240798E+03  0.17025441701E+03 0.  0.
         24    2    3    3    0    0 -0.48148661106E+02  0.11201933272E+03 -0.15815910805E+02  0.14681469132E+03  0.80235815466E+02 0.  0.
         -6    2    1    2    0  502  0.12754321696E+03 -0.87970453487E+02  0.37997887575E+03  0.44582119115E+03  0.17425990813E+03 0.  0.
        -24    2    5    5    0    0  0.11688177097E+03 -0.11211546307E+03  0.22242789605E+03  0.28600551882E+03  0.78062554450E+02 0.  0.
          5    1    3    3  501    0 -0.79394555854E+02 -0.24048879230E+02 -0.26743436368E+02  0.87287716663E+02  0.47000000000E+01 0. -1.
        -11    1    4    4    0    0 -0.26186087746E+02  0.25693031116E+02 -0.40237892540E+02  0.54451180294E+02  0.00000000000E+00 0.  1.
         12    1    4    4    0    0 -0.21962573360E+02  0.86326301601E+02  0.24421981735E+02  0.92363511023E+02  0.00000000000E+00 0. -1.
         -5    1    5    5    0  502  0.10661445992E+02  0.24145009588E+02  0.15755097970E+03  0.15981567233E+03  0.47000000000E+01 0.  1.
         11    1    6    6    0    0  0.50594252014E+02 -0.66468897281E+02  0.54369637468E+02  0.99669203474E+02  0.00000000000E+00 0. -1.
        -12    1    6    6    0    0  0.66287518954E+02 -0.45646565793E+02  0.16805825859E+03  0.18633631535E+03  0.00000000000E+00 0.  1.
</event>
<event>
12    1  0.8416569E-002  0.2162327E+03  0.7818608E-02  0.1136766E+00
         21   -1    0    0  503  502  0.00000000000E+00  0.00000000000E+00  0.76170142314E+02  0.76170142314E+02  0.00000000000E+00 0. -1.
         21   -1    0    0  501  503 -0.00000000000E+00 -0.00000000000E+00 -0.64135981916E+03  0.64135981916E+03  0.00000000000E+00 0.  1.
          6    2    1    2  501    0 -0.33400133262E+02  0.12856276984E+03 -0.20729201219E+03  0.29938248201E+03  0.17034065141E+03 0.  0.
         24    2    3    3    0    0 -0.69389487497E+02  0.14292643205E+03 -0.16502848454E+03  0.24185123676E+03  0.77554845490E+02 0.  0.
         -6    2    1    2    0  502  0.33400133262E+02 -0.12856276984E+03 -0.35789766466E+03  0.41814747947E+03  0.17062421145E+03 0.  0.
        -24    2    5    5    0    0  0.80876842660E+02 -0.59209733316E+02 -0.17504088797E+03  0.21684528776E+03  0.79597174337E+02 0.  0.
          5    1    3    3  501    0  0.35989354235E+02 -0.14363662205E+02 -0.42263527649E+02  0.57531245246E+02  0.47000000000E+01 0. -1.
        -13    1    4    4    0    0 -0.67322114100E+02  0.88898665034E+02 -0.14771203859E+03  0.18507859422E+03  0.00000000000E+00 0.  1.
         14    1    4    4    0    0 -0.20673733968E+01  0.54027767012E+02 -0.17316445952E+02  0.56772642544E+02  0.00000000000E+00 0. -1.
         -5    1    5    5    0  502 -0.47476709398E+02 -0.69353036524E+02 -0.18285677669E+03  0.20130219172E+03  0.47000000000E+01 0.  1.
         13    1    6    6    0    0  0.24063664265E+01 -0.10085697652E+02  0.70725156819E+01  0.12551190166E+02  0.00000000000E+00 0. -1.
        -14    1    6    6    0    0  0.78470476233E+02 -0.49124035664E+02 -0.18211340365E+03  0.20429409759E+03  0.00000000000E+00 0.  1.
</event>
<event>
12    1  0.8416569E-002  0.1881242E+03  0.7818608E-02  0.1160284E+00
         21   -1    0    0  503  502  0.00000000000E+00  0.00000000000E+00  0.41777058900E+02  0.41777058900E+02  0.00000000000E+00 0. -1.
         21   -1    0    0  501  503 -0.00000000000E+00 -0.00000000000E+00 -0.10430195820E+04  0.10430195820E+04  0.00000000000E+00 0. -1.
          6    2    1    2  501    0 -0.67335183846E+02  0.29282201607E+02 -0.73652730388E+03  0.76004309996E+03  0.17263131270E+03 0.  0.
         24    2    3    3    0    0  0.95022317106E+01  0.44406496475E+02 -0.55015947638E+03  0.55783580570E+03  0.80268968695E+02 0.  0.
         -6    2    1    2    0  502  0.67335183846E+02 -0.29282201607E+02 -0.26471521924E+03  0.32475354096E+03  0.17320288899E+03 0.  0.
        -24    2    5    5    0    0  0.50674533270E+02 -0.53367686190E+02 -0.73530230430E+02  0.13128137812E+03  0.80075509388E+02 0.  0.
          5    1    3    3  501    0 -0.76837415557E+02 -0.15124294868E+02 -0.18636782750E+03  0.20220729426E+03  0.47000000000E+01 0. -1.
        -13    1    4    4    0    0  0.14400187677E+02 -0.40789489858E+01 -0.17824012478E+02  0.23274420525E+02  0.00000000000E+00 0.  1.
         14    1    4    4    0    0 -0.48979559662E+01  0.48485445461E+02 -0.53233546390E+03  0.53456138517E+03  0.00000000000E+00 0. -1.
         -5    1    5    5    0  502  0.16660650576E+02  0.24085484583E+02 -0.19118498881E+03  0.19347216283E+03  0.47000000000E+01 0.  1.
         13    1    6    6    0    0  0.40134726438E+02  0.76252850581E+01 -0.89365693830E+01  0.41818698100E+02  0.00000000000E+00 0. -1.
        -14    1    6    6    0    0  0.10539806832E+02 -0.60992971248E+02 -0.64593661047E+02  0.89462680025E+02  0.00000000000E+00 0.  1.
</event>
<event>
12    1  0.8416569E-002  0.1844507E+03  0.7818608E-02  0.1163707E+00
         21   -1    0    0  501  502  0.00000000000E+00  0.00000000000E+00  0.90522416144E+02  0.90522416144E+02  0.00000000000E+00 0. -1.
         21   -1    0    0  502  503 -0.00000000000E+00 -0.00000000000E+00 -0.51317652272E+03  0.51317652272E+03  0.00000000000E+00 0. -1.
         -6    2    1    2    0  503  0.60961522549E+02 -0.21897142217E+02 -0.36792725196E+03  0.41130065755E+03  0.17205224815E+03 0.  0.
        -24    2    3    3    0    0  0.42867521556E+02 -0.73634474274E+02 -0.17312060151E+03  0.20887569501E+03  0.79991581374E+02 0.  0.
          6    2    1    2  501    0 -0.60961522549E+02  0.21897142217E+02 -0.54726854610E+02  0.19239828131E+03  0.17270286033E+03 0.  0.
         24    2    5    5    0    0 -0.46823651012E+02 -0.49702711336E+02 -0.56142515998E+02  0.11925108357E+03  0.80037647525E+02 0.  0.
          5    1    5    5  501    0 -0.14137871537E+02  0.71599853553E+02  0.14156613878E+01  0.73147197743E+02  0.47000000000E+01 0. -1.
        -13    1    6    6    0    0  0.19503538577E+02  0.33012084396E+01 -0.61161619093E+01  0.20704913202E+02  0.00000000000E+00 0.  1.
         14    1    6    6    0    0 -0.66327189590E+02 -0.53003919776E+02 -0.50026354089E+02  0.98546170366E+02  0.00000000000E+00 0. -1.
         -5    1    3    3    0  503  0.18094000994E+02  0.51737332058E+02 -0.19480665045E+03  0.20242496254E+03  0.47000000000E+01 0.  1.
         11    1    4    4    0    0 -0.59433475639E+01  0.52136617448E+01  0.40651142835E+01  0.88899270634E+01  0.00000000000E+00 0. -1.
        -12    1    4    4    0    0  0.48810869120E+02 -0.78848136019E+02 -0.17718571579E+03  0.19998576794E+03  0.00000000000E+00 0.  1.
</event>
<event>
12    1  0.8416569E-002  0.2947837E+03  0.7818608E-02  0.1088084E+00
         21   -1    0    0  503  502  0.00000000000E+00  0.00000000000E+00  0.88348195205E+02  0.88348195205E+02  0.00000000000E+00 0.  1.
         21   -1    0    0  501  503 -0.00000000000E+00 -0.00000000000E+00 -0.16809822967E+04  0.16809822967E+04  0.00000000000E+00 0. -1.
          6    2    1    2  501    0  0.22147045896E+03 -0.87988542816E+02 -0.13670546077E+04  0.13981384216E+04  0.17076767151E+03 0.  0.
         24    2    3    3    0    0  0.13315663123E+03 -0.52503766886E+02 -0.50586936897E+03  0.53169707511E+03  0.79439456418E+02 0.  0.
         -6    2    1    2    0  502 -0.22147045896E+03  0.87988542816E+02 -0.22557949377E+03  0.37119207029E+03  0.17351166294E+03 0.  0.
        -24    2    5    5    0    0 -0.15929284243E+03  0.10437757897E+03 -0.22711809433E+03  0.30670087868E+03  0.78828367810E+02 0.  0.
          5    1    3    3  501    0  0.88313827735E+02 -0.35484775930E+02 -0.86118523876E+03  0.86644134652E+03  0.47000000000E+01 0. -1.
        -13    1    4    4    0    0  0.63989038107E+02 -0.51573360436E+02 -0.37246968467E+03  0.38142899011E+03  0.00000000000E+00 0.  1.
         14    1    4    4    0    0  0.69167593122E+02 -0.93040644992E+00 -0.13339968431E+03  0.15026808499E+03  0.00000000000E+00 0. -1.
         -5    1    5    5    0  502 -0.62177616531E+02 -0.16389036153E+02  0.15386005564E+01  0.64491191609E+02  0.47000000000E+01 0.  1.
         11    1    6    6    0    0  0.80164035673E+01  0.11142015812E+01 -0.17643565294E+02  0.19411325756E+02  0.00000000000E+00 0. -1.
        -12    1    6    6    0    0 -0.16730924600E+03  0.10326337739E+03 -0.20947452903E+03  0.28728955293E+03  0.00000000000E+00 0.  1.
</event>
<event>
12    1  0.8416569E-002  0.1970058E+03  0.7818608E-02  0.1152561E+00
         21   -1    0    0  501  502  0.00000000000E+00  0.00000000000E+00  0.96622702763E+03  0.96622702763E+03  0.00000000000E+00 0.  1.
         21   -1    0    0  502  503 -0.00000000000E+00 -0.00000000000E+00 -0.42833471146E+02  0.42833471146E+02  0.00000000000E+00 0.  1.
         -6    2    1    2    0  503  0.90682738959E+02  0.72365982746E+01  0.32856199608E+03  0.38245386754E+03  0.17332699742E+03 0.  0.
        -24    2    3    3    0    0  0.78326716356E+02 -0.47969238903E+02  0.15313722999E+03  0.19807302714E+03  0.85707587144E+02 0.  0.
          6    2    1    2  501    0 -0.90682738959E+02 -0.72365982746E+01  0.59483156041E+03  0.62660663123E+03  0.17474426327E+03 0.  0.
         24    2    5    5    0    0 -0.30349423557E+02 -0.49503874910E+02  0.18251572120E+03  0.20773544234E+03  0.80438202231E+02 0.  0.
          5    1    5    5  501    0 -0.60333315402E+02  0.42267276635E+02  0.41231583921E+03  0.41887118889E+03  0.47000000000E+01 0. -1.
        -11    1    6    6    0    0 -0.51184706175E+02 -0.12936799630E+02  0.13083986655E+03  0.14108970767E+03  0.00000000000E+00 0.  1.
         12    1    6    6    0    0  0.20835282618E+02 -0.36567075279E+02  0.51675854647E+02  0.66645734670E+02  0.00000000000E+00 0. -1.
         -5    1    3    3    0  503  0.12356022604E+02  0.55205837178E+02  0.17542476608E+03  0.18438084040E+03  0.47000000000E+01 0.  1.
         13    1    4    4    0    0 -0.11389875483E+02 -0.32594343249E+02  0.45200324268E+02  0.56878728794E+02  0.00000000000E+00 0. -1.
        -14    1    4    4    0    0  0.89716591839E+02 -0.15374895655E+02  0.10793690573E+03  0.14119429835E+03  0.00000000000E+00 0.  1.
</event>
<event>
12    1  0.8416569E-002  0.2143502E+03  0.7818608E-02  0.1141862E+00
         21   -1    0    0  501  502  0.00000000000E+00  0.00000000000E+00  0.19567133442E+03  0.19567133442E+03  0.00000000000E+00 0. -1.
         21   -1    0    0  502  503 -0.00000000000E+00 -0.00000000000E+00 -0.21917124517E+03  0.21917124517E+03  0.00000000000E+00 0. -1.
         -6    2    1    2    0  503 -0.21696373944E+01 -0.93301511081E+02 -0.39079102482E+02  0.19992698840E+03  0.17243475620E+03 0.  0.
        -24    2    3    3    0    0 -0.58311604629E+02 -0.50895512786E+02 -0.52299925691E+02  0.12818390969E+03  0.87779473803E+02 0.  0.
          6    2    1    2  501    0  0.21696373944E+01  0.93301511081E+02  0.15579191732E+02  0.21491559119E+03  0.19296663138E+03 0.  0.
         24    2    5    5    0    0  0.65076036020E+02  0.14651298584E+02 -0.22058617635E+02  0.10729697938E+03  0.81095672869E+02 0.  0.
          5    1    5    5  501    0 -0.62906398626E+02  0.78650212496E+02  0.37637809367E+02  0.10761861181E+03  0.47000000000E+01 0. -1.
        -11    1    6    6    0    0 -0.12600107758E+02  0.21388953656E+02  0.38840895998E+01  0.25126404558E+02  0.00000000000E+00 0.  1.
         12    1    6    6    0    0  0.77676143778E+02 -0.67376550717E+01 -0.25942707235E+02  0.82170574823E+02  0.00000000000E+00 0. -1.
         -5    1    3    3    0  503  0.56141967235E+02 -0.42405998295E+02  0.13220823209E+02  0.71743078709E+02  0.47000000000E+01 0.  1.
         13    1    4    4    0    0 -0.71874964589E+02 -0.31675822533E+02 -0.64545687675E+02  0.10166373033E+03  0.00000000000E+00 0. -1.
        -14    1    4    4    0    0  0.13563359960E+02 -0.19219690253E+02  0.12245761984E+02  0.26520179362E+02  0.00000000000E+00 0.  1.
</event>
<event>
12    1  0.8416569E-002  0.1980461E+03  0.7818608E-02  0.1151609E+00
         21   -1    0    0  503  502  0.00000000000E+00  0.00000000000E+00  0.46401080812E+03  0.46401080812E+03  0.00000000000E+00 0. -1.
         21   -1    0    0  501  503 -0.00000000000E+00 -0.00000000000E+00 -0.22425881692E+03  0.22425881692E+03  0.00000000000E+00 0.  1.
          6    2    1    2  501    0 -0.26003898374E+02 -0.94893051347E+02 -0.15206195178E+03  0.24968996425E+03  0.17187596441E+03 0.  0.
         24    2    3    3    0    0 -0.10961490054E+02 -0.10123540832E+03 -0.39844989816E+02  0.13619443089E+03  0.81194443349E+02 0.  0.
         -6    2    1    2    0  502  0.26003898374E+02  0.94893051347E+02  0.39181394298E+03  0.43857966080E+03  0.17074266904E+03 0.  0.
        -24    2    5    5    0    0  0.82535596596E+01  0.57885470449E+02  0.91670806047E+02  0.13560667815E+03  0.81035705353E+02 0.  0.
          5    1    3    3  501    0 -0.15042408319E+02  0.63423569722E+01 -0.11221696196E+03  0.11349553336E+03  0.47000000000E+01 0. -1.
        -11    1    4    4    0    0  0.87159284321E+01 -0.11006551165E+02 -0.41520189837E+02  0.43829644546E+02  0.00000000000E+00 0.  1.
         12    1    4    4    0    0 -0.19677418486E+02 -0.90228857153E+02  0.16752000204E+01  0.92364786345E+02  0.00000000000E+00 0. -1.
         -5    1    5    5    0  502  0.17750338714E+02  0.37007580898E+02  0.30014313693E+03  0.30297298265E+03  0.47000000000E+01 0.  1.
         13    1    6    6    0    0  0.35525170043E+02  0.56958227902E+02  0.42735799663E+02  0.79577798444E+02  0.00000000000E+00 0. -1.
        -14    1    6    6    0    0 -0.27271610383E+02  0.92724254689E+00  0.48935006384E+02  0.56028879709E+02  0.00000000000E+00 0.  1.
</event>
<event>
12    1  0.8416569E-002  0.1910951E+03  0.7818608E-02  0.1157577E+00
         21   -1    0    0  501  502  0.00000000000E+00  0.00000000000E+00  0.67671381263E+02  0.67671381263E+02  0.00000000000E+00 0.  1.
         21   -1    0    0  502  503 -0.00000000000E+00 -0.00000000000E+00 -0.79865319921E+03  0.79865319921E+03  0.00000000000E+00 0. -1.
         -6    2    1    2    0  503  0.66818941576E+02 -0.47495613320E+02 -0.61306312441E+03  0.64215554070E+03  0.17261732157E+03 0.  0.
        -24    2    3    3    0    0  0.28091716609E+02  0.40279782464E+02 -0.22335729996E+03  0.24078658616E+03  0.75353110172E+02 0.  0.
          6    2    1    2  501    0 -0.66818941576E+02  0.47495613320E+02 -0.11791869354E+03  0.22416903977E+03  0.17212302539E+03 0.  0.
         24    2    5    5    0    0 -0.33506289808E+02 -0.23667429392E+00  0.68423394903E+01  0.86417417600E+02  0.79362617040E+02 0.  0.
          5    1    5    5  501    0 -0.33312651767E+02  0.47732287613E+02 -0.12476103303E+03  0.13775162217E+03  0.47000000000E+01 0. -1.
        -13    1    6    6    0    0  0.25849149012E+02 -0.58217236563E+01  0.31911373433E+01  0.26688093385E+02  0.00000000000E+00 0.  1.
         14    1    6    6    0    0 -0.59355438821E+02  0.55850493624E+01  0.36512021470E+01  0.59729324214E+02  0.00000000000E+00 0. -1.
         -5    1    3    3    0  503  0.38727224966E+02 -0.87775395784E+02 -0.38970582445E+03  0.40136895454E+03  0.47000000000E+01 0.  1.
         11    1    4    4    0    0 -0.18148135702E+02  0.23057612629E+02 -0.14681231096E+03  0.14971594096E+03  0.00000000000E+00 0. -1.
        -12    1    4    4    0    0  0.46239852311E+02  0.17222169835E+02 -0.76544989003E+02  0.91070645199E+02  0.00000000000E+00 0.  1.
</event>
<event>
12    1  0.8416569E-002  0.1731331E+03  0.7818608E-02  0.1174688E+00
         21   -1    0    0  501  502  0.00000000000E+00  0.00000000000E+00  0.37991374266E+03  0.37991374266E+03  0.00000000000E+00 0. -1.
         21   -1    0    0  502  503 -0.00000000000E+00 -0.00000000000E+00 -0.79811190531E+02  0.79811190531E+02  0.00000000000E+00 0. -1.
         -6    2    1    2    0  503  0.13555464274E+02 -0.83156925355E+01  0.17610785730E+03  0.24677010614E+03  0.17212962130E+03 0.  0.
        -24    2    3    3    0    0  0.46755341272E+02  0.19576692424E+02  0.38325350222E+02  0.10224908266E+03  0.80104516802E+02 0.  0.
          6    2    1    2  501    0 -0.13555464274E+02  0.83156925355E+01  0.12399469484E+03  0.21295482705E+03  0.17240119682E+03 0.  0.
         24    2    5    5    0    0 -0.19563193665E+02  0.65832422020E+02  0.11184645783E+03  0.15367636009E+03  0.79938521297E+02 0.  0.
          5    1    5    5  501    0  0.60077293902E+01 -0.57516729484E+02  0.12148237009E+02  0.59278466962E+02  0.47000000000E+01 0. -1.
        -13    1    6    6    0    0  0.45073566303E+01 -0.14233736531E+02  0.11775407194E+01  0.14976719319E+02  0.00000000000E+00 0.  1.
         14    1    6    6    0    0 -0.24070550295E+02  0.80066158551E+02  0.11066891711E+03  0.13869964077E+03  0.00000000000E+00 0. -1.
         -5    1    3    3    0  503 -0.33199876998E+02 -0.27892384960E+02  0.13778250708E+03  0.14452102348E+03  0.47000000000E+01 0.  1.
         11    1    4    4    0    0 -0.70291442321E+01 -0.55817365842E+01  0.41816328856E+02  0.42768797165E+02  0.00000000000E+00 0. -1.
        -12    1    4    4    0    0  0.53784485505E+02  0.25158429009E+02 -0.34909786341E+01  0.59480285499E+02  0.00000000000E+00 0.  1.
</event>
<event>
12    1  0.8416569E-002  0.1812819E+03  0.7818608E-02  0.1168534E+00
         21   -1    0    0  503  502  0.00000000000E+00  0.00000000000E+00  0.10884269675E+04  0.10884269675E+04  0.00000000000E+00 0. -1.
         21   -1    0    0  501  503 -0.00000000000E+00 -0.00000000000E+00 -0.56462794738E+02  0.56462794738E+02  0.00000000000E+00 0. -1.
          6    2    1    2  501    0 -0.33064916136E+01 -0.22511527111E+02  0.12185092886E+03  0.21842794312E+03  0.17984831312E+03 0.  0.
         24    2    3    3    0    0 -0.54361450741E+02 -0.59905946439E+02  0.55299050596E+02  0.12647037710E+03  0.79955497252E+02 0.  0.
         -6    2    1    2    0  502  0.33064916136E+01  0.22511527111E+02  0.91011324387E+03  0.92646181909E+03  0.17177800738E+03 0.  0.
        -24    2    5    5    0    0  0.61365526579E+02 -0.99961070212E+01  0.65490127963E+03  0.66267623474E+03  0.79865236618E+02 0.  0.
          5    1    3    3  501    0  0.51054959127E+02  0.37394419328E+02  0.66551878262E+02  0.91957566022E+02  0.47000000000E+01 0. -1.
        -13    1    4    4    0    0 -0.56833302495E+02 -0.37660936436E+02  0.71533913697E+02  0.98820398778E+02  0.00000000000E+00 0.  1.
         14    1    4    4    0    0  0.24718517547E+01 -0.22245010003E+02 -0.16234863101E+02  0.27649978319E+02  0.00000000000E+00 0. -1.
         -5    1    5    5    0  502 -0.58059034966E+02  0.32507634132E+02  0.25521196424E+03  0.26378558435E+03  0.47000000000E+01 0.  1.
         11    1    6    6    0    0 -0.14984304675E+02  0.14645638176E+02  0.14253642738E+03  0.14406823811E+03  0.00000000000E+00 0. -1.
        -12    1    6    6    0    0  0.76349831254E+02 -0.24641745197E+02  0.51236485225E+03  0.51860799662E+03  0.00000000000E+00 0.  1.
</event>
<event>
12    1  0.8416569E-002  0.1754889E+03  0.7818608E-02  0.1172253E+00
         21   -1    0    0  501  502  0.00000000000E+00  0.00000000000E+00  0.39308128079E+03  0.39308128079E+03  0.00000000000E+00 0.  1.
         21   -1    0    0  502  503 -0.00000000000E+00 -0.00000000000E+00 -0.19349204442E+03  0.19349204442E+03  0.00000000000E+00 0.  1.
         -6    2    1    2    0  503 -0.24730627828E+02  0.22364776621E+02 -0.12646884198E+03  0.21631160871E+03  0.17229206855E+03 0.  0.
        -24    2    3    3    0    0  0.34589405346E+02 -0.33958117162E+02 -0.59485354574E+02  0.11048149823E+03  0.79486309255E+02 0.  0.
          6    2    1    2  501    0  0.24730627828E+02 -0.22364776621E+02  0.32605807835E+03  0.37026171650E+03  0.17224424827E+03 0.  0.
         24    2    5    5    0    0 -0.51224766426E+02 -0.27316128646E+01  0.18629148469E+03  0.20991373946E+03  0.82023303670E+02 0.  0.
          5    1    5    5  501    0  0.75955394254E+02 -0.19633163756E+02  0.13976659366E+03  0.16034797704E+03  0.47000000000E+01 0. -1.
        -13    1    6    6    0    0  0.23452554888E+01  0.10380012970E+02  0.13232189387E+03  0.13274911860E+03  0.00000000000E+00 0.  1.
         14    1    6    6    0    0 -0.53570021915E+02 -0.13111625834E+02  0.53969590820E+02  0.77164620865E+02  0.00000000000E+00 0. -1.
         -5    1    3    3    0  503 -0.59320033174E+02  0.56322893782E+02 -0.66983487402E+02  0.10583011048E+03  0.47000000000E+01 0.  1.
         11    1    4    4    0    0  0.12956914376E+02  0.25374670387E+02 -0.27872833929E+02  0.39857877497E+02  0.00000000000E+00 0. -1.
        -12    1    4    4    0    0  0.21632490970E+02 -0.59332787548E+02 -0.31612520645E+02  0.70623620732E+02  0.00000000000E+00 0.  1.
</event>
<event>
12    1  0.8416569E-002  0.2006305E+03  0.7818608E-02  0.1149853E+00
         21   -1    0    0  503  502  0.00000000000E+00  0.00000000000E+00  0.10055244950E+04  0.10055244950E+04  0.00000000000E+00 0. -1.
         21   -1    0    0  501  503 -0.00000000000E+00 -0.00000000000E+00 -0.46484932916E+02  0.46484932916E+02  0.00000000000E+00 0. -1.
          6    2    1    2  501    0 -0.91151511196E+02 -0.45771174006E+02  0.27766592481E+03  0.34256525606E+03  0.17276860392E+03 0.  0.
         24    2    3    3    0    0  0.79969909830E+01 -0.42139628348E+02  0.71278164717E+02  0.11352025803E+03  0.77243589223E+02 0.  0.
         -6    2    1    2    0  502  0.91151511196E+02  0.45771174006E+02  0.68137363723E+03  0.70944417181E+03  0.16922588760E+03 0.  0.
        -24    2    5    5    0    0  0.12549299525E+03  0.59192194248E+02  0.52045651914E+03  0.54429009161E+03  0.78259234551E+02 0.  0.
          5    1    3    3  501    0 -0.99148502179E+02 -0.36315456575E+01  0.20638776009E+03  0.22904499803E+03  0.47000000000E+01 0. -1.
        -13    1    4    4    0    0  0.21183334058E+02 -0.57182363819E+02  0.70894496457E+02  0.93512491153E+02  0.00000000000E+00 0.  1.
         14    1    4    4    0    0 -0.13186343075E+02  0.15042735471E+02  0.38366826049E+00  0.20007766879E+02  0.00000000000E+00 0. -1.
         -5    1    5    5    0  502 -0.34341484051E+02 -0.13421020242E+02  0.16091711809E+03  0.16515408019E+03  0.47000000000E+01 0.  1.
         11    1    6    6    0    0  0.37616514902E+02  0.15438170653E+02  0.53894900502E+02  0.67512958805E+02  0.00000000000E+00 0. -1.
        -12    1    6    6    0    0  0.87876480345E+02  0.43754023596E+02  0.46656161864E+03  0.47677713281E+03  0.00000000000E+00 0.  1.
</event>
<event>
12    1  0.8416569E-002  0.1997253E+03  0.7818608E-02  0.1151407E+00
         21   -1    0    0  501  502  0.00000000000E+00  0.00000000000E+00  0.29523466496E+02  0.29523466496E+02  0.00000000000E+00 0.  1.
         21   -1    0    0  502  503 -0.00000000000E+00 -0.00000000000E+00 -0.13639919499E+04  0.13639919499E+04  0.00000000000E+00 0.  1.
         -6    2    1    2    0  503  0.90857602463E+02 -0.46731303373E+02 -0.79956947949E+03  0.82254507646E+03  0.16379905867E+03 0.  0.
        -24    2    3    3    0    0  0.70359762930E+02  0.17317975646E+02 -0.64447080322E+03  0.65342925534E+03  0.79854661832E+02 0.  0.
          6    2    1    2  501    0 -0.90857602463E+02  0.46731303373E+02 -0.53489900393E+03  0.57097033996E+03  0.17161371177E+03 0.  0.
         24    2    5    5    0    0 -0.32026049609E+02  0.66385965258E+02 -0.16644232223E+03  0.19729953078E+03  0.76100551769E+02 0.  0.
          5    1    5    5  501    0 -0.58831552854E+02 -0.19654661885E+02 -0.36845668170E+03  0.37367080918E+03  0.47000000000E+01 0. -1.
        -13    1    6    6    0    0  0.11559014624E+02  0.32531160017E+02 -0.18009392342E+02  0.38938739113E+02  0.00000000000E+00 0.  1.
         14    1    6    6    0    0 -0.43585064233E+02  0.33854805241E+02 -0.14843292989E+03  0.15836079167E+03  0.00000000000E+00 0. -1.
         -5    1    3    3    0  503  0.20497839532E+02 -0.64049279018E+02 -0.15509867628E+03  0.16911582111E+03  0.47000000000E+01 0.  1.
         13    1    4    4    0    0 -0.10164582602E+02 -0.17059753572E+02 -0.98410302385E+02  0.10039393182E+03  0.00000000000E+00 0. -1.
        -14    1    4    4    0    0  0.80524345533E+02  0.34377729217E+02 -0.54606050083E+03  0.55303532352E+03  0.00000000000E+00 0.  1.
</event>
<event>
12    1  0.8416569E-002  0.2295120E+03  0.7818608E-02  0.1128098E+00
         21   -1    0    0  501  502  0.00000000000E+00  0.00000000000E+00  0.21421615108E+03  0.21421615108E+03  0.00000000000E+00 0.  1.
         21   -1    0    0  502  503 -0.00000000000E+00 -0.00000000000E+00 -0.27507556806E+03  0.27507556806E+03  0.00000000000E+00 0.  1.
         -6    2    1    2    0  503  0.95727273600E+02 -0.10873521740E+03  0.57453993816E+02  0.23659397098E+03  0.17801316604E+03 0.  0.
        -24    2    3    3    0    0  0.63100122117E+02 -0.18547930082E+02 -0.30660661598E+02  0.10626914485E+03  0.77636356530E+02 0.  0.
          6    2    1    2  501    0 -0.95727273600E+02  0.10873521740E+03 -0.11831341079E+03  0.25269774816E+03  0.16991477375E+03 0.  0.
         24    2    5    5    0    0 -0.11931546018E+03  0.42848318272E+02 -0.61167004260E+02  0.16222516777E+03  0.80643941077E+02 0.  0.
          5    1    5    5  501    0  0.23588186576E+02  0.65886899130E+02 -0.57146406528E+02  0.90472580388E+02  0.47000000000E+01 0. -1.
        -13    1    6    6    0    0 -0.59644910367E+02  0.14641967478E+02  0.13174246897E+02  0.62812923238E+02  0.00000000000E+00 0.  1.
         14    1    6    6    0    0 -0.59670549810E+02  0.28206350793E+02 -0.74341251157E+02  0.99412244534E+02  0.00000000000E+00 0. -1.
         -5    1    3    3    0  503  0.32627151483E+02 -0.90187287320E+02  0.88114655413E+02  0.13032482613E+03  0.47000000000E+01 0.  1.
         13    1    4    4    0    0 -0.96692268496E+01  0.62493984592E+01  0.13394528629E+02  0.17662455270E+02  0.00000000000E+00 0. -1.
        -14    1    4    4    0    0  0.72769348966E+02 -0.24797328541E+02 -0.44055190227E+02  0.88606689576E+02  0.00000000000E+00 0.  1.
</event>
<event>
12    1  0.8416569E-002  0.2653480E+03  0.7818608E-02  0.1104002E+00
         21   -1    0    0  503  502  0.00000000000E+00  0.00000000000E+00  0.74027006074E+03  0.74027006074E+03  0.00000000000E+00 0. -1.
         21   -1    0    0  501  503 -0.00000000000E+00 -0.00000000000E+00 -0.17339121851E+03  0.17339121851E+03  0.00000000000E+00 0.  1.
          6    2    1    2  501    0  0.66555125034E+02 -0.18900514431E+03 -0.23590462809E+02  0.26639461642E+03  0.17394554458E+03 0.  0.
         24    2    3    3    0    0  0.60465833040E+02 -0.17748531848E+03  0.34167033617E+02  0.20699929458E+03  0.80772312871E+02 0.  0.
         -6    2    1    2    0  502 -0.66555125034E+02  0.18900514431E+03  0.59046930504E+03  0.64726666282E+03  0.17363065215E+03 0.  0.
        -24    2    5    5    0    0  0.26488855612E+02  0.51120787368E+02  0.27739938668E+03  0.29271886350E+03  0.73613306855E+02 0.  0.
          5    1    3    3  501    0  0.60892919942E+01 -0.11519825830E+02 -0.57757496426E+02  0.59395321849E+02  0.47000000000E+01 0. -1.
        -11    1    4    4    0    0  0.54374120368E+02 -0.16568793173E+03  0.44360351950E+01  0.17443828162E+03  0.00000000000E+00 0.  1.
         12    1    4    4    0    0  0.60917126716E+01 -0.11797386753E+02  0.29730998421E+02  0.32561012954E+02  0.00000000000E+00 0. -1.
         -5    1    5    5    0  502 -0.93043980646E+02  0.13788435694E+03  0.31306991835E+03  0.35454779932E+03  0.47000000000E+01 0.  1.
         13    1    6    6    0    0  0.71329816799E+01 -0.12883579129E+01  0.18214338863E+03  0.18228755667E+03  0.00000000000E+00 0. -1.
        -14    1    6    6    0    0  0.19355873932E+02  0.52409145281E+02  0.95255998051E+02  0.11043130684E+03  0.00000000000E+00 0.  1.
</event>
<event>
12    1  0.8416569E-002  0.2504407E+03  0.7818608E-02  0.1113030E+00
         21   -1    0    0  503  502  0.00000000000E+00  0.00000000000E+00  0.25769312909E+03  0.25769312909E+03  0.00000000000E+00 0.  1.
         21   -1    0    0  501  503 -0.00000000000E+00 -0.00000000000E+00 -0.25484391891E+03  0.25484391891E+03  0.00000000000E+00 0. -1.
          6    2    1    2  501    0 -0.13741362682E+03  0.11943156101E+03  0.55797695579E+02  0.25656029649E+03  0.17194010672E+03 0.  0.
         24    2    3    3    0    0 -0.69468327226E+02  0.31616054806E+02  0.95627229809E+02  0.13850688203E+03  0.64916607127E+02 0.  0.
         -6    2    1    2    0  502  0.13741362682E+03 -0.11943156101E+03 -0.52948485403E+02  0.25597675151E+03  0.17197137147E+03 0.  0.
        -24    2    5    5    0    0  0.11738110754E+03 -0.79110466651E+02  0.26432019264E+02  0.16459597125E+03  0.79726982696E+02 0.  0.
          5    1    3    3  501    0 -0.67945299597E+02  0.87815506206E+02 -0.39829534230E+02  0.11805341446E+03  0.47000000000E+01 0. -1.
        -11    1    4    4    0    0 -0.26639556945E+02  0.15250370579E+02 -0.18848258054E+01  0.30753737421E+02  0.00000000000E+00 0.  1.
         12    1    4    4    0    0 -0.42828770281E+02  0.16365684227E+02  0.97512055614E+02  0.10775314461E+03  0.00000000000E+00 0. -1.
         -5    1    5    5    0  502  0.20032519283E+02 -0.40321094361E+02 -0.79380504668E+02  0.91380780259E+02  0.47000000000E+01 0.  1.
         13    1    6    6    0    0  0.11999376630E+03 -0.67618624958E+02  0.42976135050E+02  0.14428350763E+03  0.00000000000E+00 0. -1.
        -14    1    6    6    0    0 -0.26126587558E+01 -0.11491841693E+02 -0.16544115785E+02  0.20312463622E+02  0.00000000000E+00 0.  1.
</event>
<event>
12    1  0.8416569E-002  0.2454777E+03  0.7818608E-02  0.1116216E+00
         21   -1    0    0  503  502  0.00000000000E+00  0.00000000000E+00  0.41266340143E+03  0.41266340143E+03  0.00000000000E+00 0. -1.
         21   -1    0    0  501  503 -0.00000000000E+00 -0.00000000000E+00 -0.19921054064E+03  0.19921054064E+03  0.00000000000E+00 0. -1.
          6    2    1    2  501    0  0.30689317130E+02 -0.17409823799E+03 -0.51440374173E+02  0.25080950498E+03  0.17031519320E+03 0.  0.
         24    2    3    3    0    0  0.29466518410E+02 -0.15785993852E+02 -0.55485144334E+01  0.85908277959E+02  0.78942845783E+02 0.  0.
         -6    2    1    2    0  502 -0.30689317130E+02  0.17409823799E+03  0.26489323497E+03  0.36106443709E+03  0.17013838821E+03 0.  0.
        -24    2    5    5    0    0  0.10111666872E+02  0.18261699302E+03  0.24047380596E+03  0.31252900678E+03  0.79971974948E+02 0.  0.
          5    1    3    3  501    0  0.12227987190E+01 -0.15831224414E+03 -0.45891859740E+02  0.16490122702E+03  0.47000000000E+01 0. -1.
        -11    1    4    4    0    0 -0.20430725667E+02 -0.12657723233E+00  0.19212807316E+02  0.28045722276E+02  0.00000000000E+00 0.  1.
         12    1    4    4    0    0  0.49897244077E+02 -0.15659416620E+02 -0.24761321749E+02  0.57862555683E+02  0.00000000000E+00 0. -1.
         -5    1    5    5    0  502 -0.40800984002E+02 -0.85187550258E+01  0.24419429003E+02  0.48535430311E+02  0.47000000000E+01 0.  1.
         13    1    6    6    0    0 -0.19401246881E+00  0.82387457926E+02  0.17197741004E+03  0.19069336755E+03  0.00000000000E+00 0. -1.
        -14    1    6    6    0    0  0.10305679341E+02  0.10022953509E+03  0.68496395928E+02  0.12183563923E+03  0.00000000000E+00 0.  1.
</event>
<event>
12    1  0.8416569E-002  0.2435011E+03  0.7818608E-02  0.1117889E+00
         21   -1    0    0  503  502  0.00000000000E+00  0.00000000000E+00  0.64928633271E+02  0.64928633271E+02  0.00000000000E+00 0.  1.
         21   -1    0    0  501  503 -0.00000000000E+00 -0.00000000000E+00 -0.91877778142E+03  0.91877778142E+03  0.00000000000E+00 0. -1.
          6    2    1    2  501    0 -0.16447638965E+03  0.41868671368E+02 -0.48727620342E+03  0.54362856797E+03  0.17113869550E+03 0.  0.
         24    2    3    3    0    0 -0.15030218122E+03  0.71232419265E+02 -0.47327165171E+03  0.50783254384E+03  0.79012866238E+02 0.  0.
         -6    2    1    2    0  502  0.16447638965E+03 -0.41868671368E+02 -0.36657294473E+03  0.44007784672E+03  0.17460618251E+03 0.  0.
        -24    2    5    5    0    0  0.16467600362E+03 -0.51218764708E+02 -0.37898359329E+03  0.42384275236E+03  0.79199537376E+02 0.  0.
          5    1    3    3  501    0 -0.14174208436E+02 -0.29363747897E+02 -0.14004551711E+02  0.35796024137E+02  0.47000000000E+01 0. -1.
        -11    1    4    4    0    0 -0.34887634826E+02  0.16885168789E+01 -0.35540449886E+02  0.49830931469E+02  0.00000000000E+00 0.  1.
         12    1    4    4    0    0 -0.11541454639E+03  0.69543902386E+02 -0.43773120183E+03  0.45800161237E+03  0.00000000000E+00 0. -1.
         -5    1    5    5    0  502 -0.19961397003E+00  0.93500933399E+01  0.12410648558E+02  0.16235094359E+02  0.47000000000E+01 0.  1.
         11    1    6    6    0    0  0.50463816308E+02 -0.55861282261E+02 -0.14134886661E+03  0.16014550166E+03  0.00000000000E+00 0. -1.
        -12    1    6    6    0    0  0.11421218732E+03  0.46425175535E+01 -0.23763472668E+03  0.26369725070E+03  0.00000000000E+00 0.  1.
</event>
<event>
12    1  0.8416569E-002  0.2566760E+03  0.7818608E-02  0.1109534E+00
         21   -1    0    0  503  502  0.00000000000E+00  0.00000000000E+00  0.14271726898E+03  0.14271726898E+03  0.00000000000E+00 0. -1.
         21   -1    0    0  501  503 -0.00000000000E+00 -0.00000000000E+00 -0.61062950995E+03  0.61062950995E+03  0.00000000000E+00 0. -1.
          6    2    1    2  501    0  0.11695947771E+03  0.14911975403E+03 -0.42191167560E+03  0.49258134446E+03  0.16944231593E+03 0.  0.
         24    2    3    3    0    0  0.31351425166E+02  0.19066032980E+02 -0.89751292699E+02  0.12570899746E+03  0.80006449916E+02 0.  0.
         -6    2    1    2    0  502 -0.11695947771E+03 -0.14911975403E+03 -0.46000565369E+02  0.26076543448E+03  0.17310788351E+03 0.  0.
        -24    2    5    5    0    0 -0.14739245428E+02 -0.11218581278E+02  0.33184703330E+01  0.82103276709E+02  0.79917669382E+02 0.  0.
          5    1    3    3  501    0  0.85608052546E+02  0.13005372105E+03 -0.33216038290E+03  0.36687234700E+03  0.47000000000E+01 0. -1.
        -11    1    4    4    0    0  0.52132320846E+02 -0.32826527215E+01 -0.76039548764E+02  0.92252737964E+02  0.00000000000E+00 0.  1.
         12    1    4    4    0    0 -0.20780895679E+02  0.22348685701E+02 -0.13711743935E+02  0.33456259497E+02  0.00000000000E+00 0. -1.
         -5    1    5    5    0  502 -0.10222023228E+03 -0.13790117276E+03 -0.49319035702E+02  0.17866215777E+03  0.47000000000E+01 0.  1.
         11    1    6    6    0    0 -0.34784398409E+01 -0.37800114200E+02 -0.21854133883E+02  0.43801271044E+02  0.00000000000E+00 0. -1.
        -12    1    6    6    0    0 -0.11260805587E+02  0.26581532923E+02  0.25172604216E+02  0.38302005665E+02  0.00000000000E+00 0.  1.
</event>
<event>
12    1  0.8416569E-002  0.2681688E+03  0.7818608E-02  0.1102351E+00
         21   -1    0    0  503  502  0.00000000000E+00  0.00000000000E+00  0.23720739057E+04  0.23720739057E+04  0.00000000000E+00 0. -1.
         21   -1    0    0  501  503 -0.00000000000E+00 -0.00000000000E+00 -0.55763197429E+02  0.55763197429E+02  0.00000000000E+00 0.  1.
          6    2    1    2  501    0 -0.14275459390E+03  0.14800269832E+03  0.33804718523E+03  0.43149784788E+03  0.17213605227E+03 0.  0.
         24    2    3    3    0    0 -0.11788366872E+03  0.16392859425E+03  0.21620908710E+03  0.30604343690E+03  0.78403268786E+02 0.  0.
         -6    2    1    2    0  502  0.14275459390E+03 -0.14800269832E+03  0.19782635230E+04  0.19963392552E+04  0.17193074962E+03 0.  0.
        -24    2    5    5    0    0  0.61997049254E+02 -0.74313138506E+02  0.15213521570E+04  0.15265073506E+04  0.79663222667E+02 0.  0.
          5    1    3    3  501    0 -0.24870925179E+02 -0.15925895928E+02  0.12183809813E+03  0.12545441099E+03  0.47000000000E+01 0. -1.
        -11    1    4    4    0    0 -0.10493430271E+03  0.17164726449E+03  0.20525658476E+03  0.28740956295E+03  0.00000000000E+00 0.  1.
         12    1    4    4    0    0 -0.12949366016E+02 -0.77186702378E+01  0.10952502346E+02  0.18633873942E+02  0.00000000000E+00 0. -1.
         -5    1    5    5    0  502  0.80757544649E+02 -0.73689559814E+02  0.45691136605E+03  0.46983190469E+03  0.47000000000E+01 0.  1.
         13    1    6    6    0    0  0.80697530041E+02 -0.60234328372E+02  0.13094507917E+04  0.13133170377E+04  0.00000000000E+00 0. -1.
        -14    1    6    6    0    0 -0.18700480787E+02 -0.14078810134E+02  0.21190136530E+03  0.21319031285E+03  0.00000000000E+00 0.  1.
</event>
<event>
12    1  0.8416569E-002  0.1982403E+03  0.7818608E-02  0.1153161E+00
         21   -1    0    0  501  502  0.00000000000E+00  0.00000000000E+00  0.68423354297E+02  0.68423354297E+02  0.00000000000E+00 0.  1.
         21   -1    0    0  502  503 -0.00000000000E+00 -0.00000000000E+00 -0.82472017106E+03  0.82472017106E+03  0.00000000000E+00 0.  1.
         -6    2    1    2    0  503 -0.82848835668E+02 -0.14853461118E+01 -0.64200382023E+03  0.67191378088E+03  0.18009188744E+03 0.  0.
        -24    2    3    3    0    0 -0.47775929885E+02  0.71701804404E+02 -0.35885688779E+03  0.37732806657E+03  0.78578086526E+02 0.  0.
          6    2    1    2  501    0  0.82848835668E+02  0.14853461118E+01 -0.11429299653E+03  0.22122974447E+03  0.17033371645E+03 0.  0.
         24    2    5    5    0    0  0.82602905444E+02  0.32911795335E+02 -0.13670895937E+03  0.18234211685E+03  0.81565199354E+02 0.  0.
          5    1    5    5  501    0  0.24593022374E+00 -0.31426449224E+02  0.22415962836E+02  0.38887627626E+02  0.47000000000E+01 0. -1.
        -13    1    6    6    0    0  0.50575606175E+02 -0.22916865159E+02 -0.53100605767E+02  0.76829349740E+02  0.00000000000E+00 0.  1.
         14    1    6    6    0    0  0.32027299269E+02  0.55828660495E+02 -0.83608353601E+02  0.10551276711E+03  0.00000000000E+00 0. -1.
         -5    1    3    3    0  503 -0.35072905783E+02 -0.73187150516E+02 -0.28314693244E+03  0.29458571431E+03  0.47000000000E+01 0.  1.
         11    1    4    4    0    0  0.90511427347E+00  0.46371452126E+02 -0.74750170430E+02  0.87969987970E+02  0.00000000000E+00 0. -1.
        -12    1    4    4    0    0 -0.48681044158E+02  0.25330352278E+02 -0.28410671736E+03  0.28935807860E+03  0.00000000000E+00 0.  1.
</event>
<event>
12    1  0.8416569E-002  0.2750244E+03  0.7818608E-02  0.1098464E+00
         21   -1    0    0  503  502  0.00000000000E+00  0.00000000000E+00  0.43536912678E+03  0.43536912678E+03  0.00000000000E+00 0.  1.
         21   -1    0    0  501  503 -0.00000000000E+00 -0.00000000000E+00 -0.18434855705E+03  0.18434855705E+03  0.00000000000E+00 0.  1.
          6    2    1    2  501    0  0.42562254090E+02  0.21069061608E+03  0.20030702895E+03  0.34023713649E+03  0.17157016647E+03 0.  0.
         24    2    3    3    0    0  0.19142793542E+01  0.89229861611E+02  0.17068439165E+03  0.20869032593E+03  0.80329682668E+02 0.  0.
         -6    2    1    2    0  502 -0.42562254090E+02 -0.21069061608E+03  0.50713540779E+02  0.27948054733E+03  0.17127589422E+03 0.  0.
        -24    2    5    5    0    0 -0.92369347872E+02 -0.12953606594E+03  0.47633872149E+02  0.18409510841E+03  0.79437613002E+02 0.  0.
          5    1    3    3  501    0  0.40647974736E+02  0.12146075447E+03  0.29622637305E+02  0.13154681056E+03  0.47000000000E+01 0. -1.
        -13    1    4    4    0    0  0.30498737335E+02  0.62008729441E+02  0.61199343045E+02  0.92307177917E+02  0.00000000000E+00 0.  1.
         14    1    4    4    0    0 -0.28584457981E+02  0.27221132170E+02  0.10948504860E+03  0.11638314801E+03  0.00000000000E+00 0. -1.
         -5    1    5    5    0  502  0.49807093782E+02 -0.81154550138E+02  0.30796686302E+01  0.95385438920E+02  0.47000000000E+01 0.  1.
         13    1    6    6    0    0 -0.45748977691E+02 -0.62967336112E+02  0.64510144392E+02  0.10109111289E+03  0.00000000000E+00 0. -1.
        -14    1    6    6    0    0 -0.46620370181E+02 -0.66568729833E+02 -0.16876272243E+02  0.83003995520E+02  0.00000000000E+00 0.  1.
</event>
<event>
12    1  0.8416569E-002  0.2132280E+03  0.7818608E-02  0.1139213E+00
         21   -1    0    0  503  502  0.00000000000E+00  0.00000000000E+00  0.22915737068E+03  0.22915737068E+03  0.00000000000E+00 0.  1.
         21   -1    0    0  501  503 -0.00000000000E+00 -0.00000000000E+00 -0.19942702046E+03  0.19942702046E+03  0.00000000000E+00 0.  1.
          6    2    1    2  501    0  0.12366826514E+03 -0.47395426163E+00 -0.59380463804E+01  0.21239372118E+03  0.17257394927E+03 0.  0.
         24    2    3    3    0    0  0.26051911194E+02 -0.49918302778E+02 -0.25505193946E+02  0.10113429721E+03  0.80044313510E+02 0.  0.
         -6    2    1    2    0  502 -0.12366826514E+03  0.47395426163E+00  0.35668396599E+02  0.21619066996E+03  0.17370119984E+03 0.  0.
        -24    2    5    5    0    0 -0.61906856115E+02 -0.49614032299E+02 -0.26026557406E+02  0.11543534558E+03  0.79711519135E+02 0.  0.
          5    1    3    3  501    0  0.97616353947E+02  0.49444348517E+02  0.19567147565E+02  0.11125942397E+03  0.47000000000E+01 0. -1.
        -13    1    4    4    0    0  0.54394437081E+02 -0.25210581538E+02 -0.19587218087E+02  0.63071287598E+02  0.00000000000E+00 0.  1.
         14    1    4    4    0    0 -0.28342525888E+02 -0.24707721241E+02 -0.59179758589E+01  0.38063009614E+02  0.00000000000E+00 0. -1.
         -5    1    5    5    0  502 -0.61761409026E+02  0.50087986560E+02  0.61694954005E+02  0.10075532439E+03  0.47000000000E+01 0.  1.
         11    1    6    6    0    0 -0.11050719912E+02 -0.23641522451E+02 -0.47687099131E+02  0.54360826134E+02  0.00000000000E+00 0. -1.
        -12    1    6    6    0    0 -0.50856136203E+02 -0.25972509848E+02  0.21660541725E+02  0.61074519442E+02  0.00000000000E+00 0.  1.
</event>
<event>
12    1  0.8416569E-002  0.2066638E+03  0.7818608E-02  0.1144269E+00
         21   -1    0    0  503  502  0.00000000000E+00  0.00000000000E+00  0.34409937068E+03  0.34409937068E+03  0.00000000000E+00 0. -1.
         21   -1    0    0  501  503 -0.00000000000E+00 -0.00000000000E+00 -0.23680803361E+03  0.23680803361E+03  0.00000000000E+00 0. -1.
          6    2    1    2  501    0 -0.89325220398E+02  0.70544316032E+02 -0.14681679734E+03  0.25336980740E+03  0.17229507188E+03 0.  0.
         24    2    3    3    0    0 -0.90699052056E+02  0.10318459796E+03 -0.81279370006E+02  0.17999052013E+03  0.83167734417E+02 0.  0.
         -6    2    1    2    0  502  0.89325220398E+02 -0.70544316032E+02  0.25410813440E+03  0.32753759689E+03  0.17249474741E+03 0.  0.
        -24    2    5    5    0    0  0.96933982220E+02  0.87702386348E+00  0.11656197251E+03  0.17229605058E+03  0.81867389910E+02 0.  0.
          5    1    3    3  501    0  0.13738316576E+01 -0.32640281930E+02 -0.65537427337E+02  0.73379287267E+02  0.47000000000E+01 0. -1.
        -11    1    4    4    0    0  0.26325056799E+01  0.14079918536E+02  0.13658252301E+02  0.19791969282E+02  0.00000000000E+00 0.  1.
         12    1    4    4    0    0 -0.93331557736E+02  0.89104679425E+02 -0.94937622307E+02  0.16019855085E+03  0.00000000000E+00 0. -1.
         -5    1    5    5    0  502 -0.76087618221E+01 -0.71421339895E+02  0.13754616189E+03  0.15524154631E+03  0.47000000000E+01 0.  1.
         11    1    6    6    0    0  0.46820579055E+02 -0.11636840960E+02  0.11014385737E+03  0.12024662992E+03  0.00000000000E+00 0. -1.
        -12    1    6    6    0    0  0.50113403166E+02  0.12513864824E+02  0.64181151437E+01  0.52049420666E+02  0.00000000000E+00 0.  1.
</event>
<event>
12    1  0.8416569E-002  0.1871213E+03  0.7818608E-02  0.1161282E+00
         21   -1    0    0  501  502  0.00000000000E+00  0.00000000000E+00  0.17925089674E+03  0.17925089674E+03  0.00000000000E+00 0. -1.
         21   -1    0    0  502  503 -0.00000000000E+00 -0.00000000000E+00 -0.19457983626E+03  0.19457983626E+03  0.00000000000E+00 0. -1.
         -6    2    1    2    0  503 -0.48471096715E+02  0.58051965523E+02 -0.12672471336E+02  0.18754989041E+03  0.17115750625E+03 0.  0.
        -24    2    3    3    0    0  0.78089561471E+01  0.14548118046E+02  0.47407406679E+02  0.94320545046E+02  0.79851584048E+02 0.  0.
          6    2    1    2  501    0  0.48471096715E+02 -0.58051965523E+02 -0.26564681869E+01  0.18628084259E+03  0.17021755953E+03 0.  0.
         24    2    5    5    0    0 -0.14914389958E+02 -0.54811290596E+02  0.44201466945E+02  0.10724934267E+03  0.79510598147E+02 0.  0.
          5    1    5    5  501    0  0.63385486673E+02 -0.32406749270E+01 -0.46857935131E+02  0.79031499920E+02  0.47000000000E+01 0. -1.
        -11    1    6    6    0    0 -0.68152993912E+00 -0.39306653055E+02 -0.16775581579E+02  0.42742222623E+02  0.00000000000E+00 0.  1.
         12    1    6    6    0    0 -0.14232860019E+02 -0.15504637541E+02  0.60977048524E+02  0.64507120043E+02  0.00000000000E+00 0. -1.
         -5    1    3    3    0  503 -0.56280052862E+02  0.43503847477E+02 -0.60079878015E+02  0.93229345368E+02  0.47000000000E+01 0.  1.
         13    1    4    4    0    0 -0.29590083259E+02  0.10268978176E+02 -0.29374526243E+01  0.31458759797E+02  0.00000000000E+00 0. -1.
        -14    1    4    4    0    0  0.37399039406E+02  0.42791398701E+01  0.50344859303E+02  0.62861785250E+02  0.00000000000E+00 0.  1.
</event>
<event>
12    1  0.8416569E-002  0.1774588E+03  0.7818608E-02  0.1170368E+00
         21   -1    0    0  501  502  0.00000000000E+00  0.00000000000E+00  0.28867312573E+02  0.28867312573E+02  0.00000000000E+00 0.  1.
         21   -1    0    0  502  503 -0.00000000000E+00 -0.00000000000E+00 -0.13098029750E+04  0.13098029750E+04  0.00000000000E+00 0.  1.
         -6    2    1    2    0  503 -0.35025308670E+02 -0.27829299016E+02 -0.91487405348E+03  0.93186229802E+03  0.17138134853E+03 0.  0.
        -24    2    3    3    0    0  0.27722754348E+02  0.25108035979E+01 -0.26186416201E+03  0.27512654478E+03  0.79667565882E+02 0.  0.
          6    2    1    2  501    0  0.35025308670E+02  0.27829299016E+02 -0.36606160893E+03  0.40680798952E+03  0.17172768175E+03 0.  0.
         24    2    5    5    0    0 -0.31835584293E+02 -0.87656576285E+01 -0.12129153965E+03  0.15040197034E+03  0.82575867606E+02 0.  0.
          5    1    5    5  501    0  0.66860892963E+02  0.36594956644E+02 -0.24477006928E+03  0.25640601918E+03  0.47000000000E+01 0. -1.
        -11    1    6    6    0    0  0.85589670076E+01 -0.32878979179E+02 -0.21851518135E+02  0.40395198141E+02  0.00000000000E+00 0.  1.
         12    1    6    6    0    0 -0.40394551301E+02  0.24113321550E+02 -0.99440021513E+02  0.11000677220E+03  0.00000000000E+00 0. -1.
         -5    1    3    3    0  503 -0.62748063017E+02 -0.30340102614E+02 -0.65300989146E+03  0.65673575324E+03  0.47000000000E+01 0.  1.
         11    1    4    4    0    0  0.17876576432E+02 -0.37841625338E+02 -0.11027340782E+03  0.11794823044E+03  0.00000000000E+00 0. -1.
        -12    1    4    4    0    0  0.98461779152E+01  0.40352428936E+02 -0.15159075420E+03  0.15717831434E+03  0.00000000000E+00 0.  1.
</event>
<event>
12    1  0.8416569E-002  0.1827964E+03  0.7818608E-02  0.1165449E+00
         21   -1    0    0  501  502  0.00000000000E+00  0.00000000000E+00  0.15908381527E+03  0.15908381527E+03  0.00000000000E+00 0.  1.
         21   -1    0    0  502  503 -0.00000000000E+00 -0.00000000000E+00 -0.21171156953E+03  0.21171156953E+03  0.00000000000E+00 0.  1.
         -6    2    1    2    0  503  0.33435537801E+01  0.63075668190E+02 -0.49335703926E+02  0.18933713460E+03  0.17153664211E+03 0.  0.
        -24    2    3    3    0    0 -0.45216416465E+02 -0.37295398896E+01 -0.45525671164E+02  0.10652642945E+03  0.84952102102E+02 0.  0.
          6    2    1    2  501    0 -0.33435537801E+01 -0.63075668190E+02 -0.32920503344E+01  0.18145825020E+03  0.17007804003E+03 0.  0.
         24    2    5    5    0    0  0.11153878801E+02  0.15010893604E+02 -0.43209279037E+02  0.92446105911E+02  0.79558184772E+02 0.  0.
          5    1    5    5  501    0 -0.14497432581E+02 -0.78086561795E+02  0.39917228702E+02  0.89012144293E+02  0.47000000000E+01 0.  1.
        -11    1    6    6    0    0  0.41992578409E+02 -0.43990293529E+01 -0.10566368586E+02  0.43524432745E+02  0.00000000000E+00 0.  1.
         12    1    6    6    0    0 -0.30838699608E+02  0.19409922957E+02 -0.32642910451E+02  0.48921673166E+02  0.00000000000E+00 0. -1.
         -5    1    3    3    0  503  0.48559970245E+02  0.66805208080E+02 -0.38100327620E+01  0.82810705144E+02  0.47000000000E+01 0.  1.
         11    1    4    4    0    0  0.24807279304E+02 -0.79497961793E+01 -0.14588865342E+02  0.29856914739E+02  0.00000000000E+00 0. -1.
        -12    1    4    4    0    0 -0.70023695768E+02  0.42202562897E+01 -0.30936805822E+02  0.76669514715E+02  0.00000000000E+00 0.  1.
</event>
<event>
12    1  0.8416569E-002  0.2597242E+03  0.7818608E-02  0.1107315E+00
         21   -1    0    0  503  502  0.00000000000E+00  0.00000000000E+00  0.22866417252E+03  0.22866417252E+03  0.00000000000E+00 0.  1.
         21   -1    0    0  501  503 -0.00000000000E+00 -0.00000000000E+00 -0.29506945744E+03  0.29506945744E+03  0.00000000000E+00 0. -1.
          6    2    1    2  501    0 -0.16779384219E+03 -0.98556266433E+02 -0.38328142019E+02  0.26253704034E+03  0.17201319703E+03 0.  0.
         24    2    3    3    0    0 -0.80791979896E+02 -0.12221014893E+03 -0.60292332613E+01  0.16665096364E+03  0.79205602766E+02 0.  0.
         -6    2    1    2    0  502  0.16779384219E+03  0.98556266433E+02 -0.28077142894E+02  0.26119658962E+03  0.17195121792E+03 0.  0.
        -24    2    5    5    0    0  0.11094202738E+03  0.10028873328E+03 -0.76987433469E+02  0.18603385408E+03  0.79470538518E+02 0.  0.
          5    1    3    3  501    0 -0.87001862292E+02  0.23653882500E+02 -0.32298908757E+02  0.95886076708E+02  0.47000000000E+01 0. -1.
        -11    1    4    4    0    0 -0.74030595349E+01 -0.81178200898E+02 -0.11836803271E+02  0.82369991521E+02  0.00000000000E+00 0.  1.
         12    1    4    4    0    0 -0.73388920361E+02 -0.41031948034E+02  0.58075700097E+01  0.84280972115E+02  0.00000000000E+00 0. -1.
         -5    1    5    5    0  502  0.56851814811E+02 -0.17324668452E+01  0.48910290575E+02  0.75162735533E+02  0.47000000000E+01 0.  1.
         11    1    6    6    0    0  0.55930705388E+02  0.46394146287E+02 -0.81122696461E+02  0.10891075473E+03  0.00000000000E+00 0. -1.
        -12    1    6    6    0    0  0.55011321988E+02  0.53894586991E+02  0.41352629922E+01  0.77123099353E+02  0.00000000000E+00 0.  1.
</event>
<event>
12    1  0.8416569E-002  0.2083538E+03  0.7818608E-02  0.1142987E+00
         21   -1    0    0  501  502  0.00000000000E+00  0.00000000000E+00  0.70884195379E+03  0.70884195379E+03  0.00000000000E+00 0.  1.
         21   -1    0    0  502  503 -0.00000000000E+00 -0.00000000000E+00 -0.61295065275E+02  0.61295065275E+02  0.00000000000E+00 0.  1.
         -6    2    1    2    0  503 -0.11537205371E+03 -0.25155392540E+02  0.34616728099E+03  0.40374788927E+03  0.17098849995E+03 0.  0.
        -24    2    3    3    0    0 -0.15147381682E+02  0.27753334213E+01  0.70356767755E+02  0.10892821634E+03  0.81719862332E+02 0.  0.
          6    2    1    2  501    0  0.11537205371E+03  0.25155392540E+02  0.30137960753E+03  0.36638912980E+03  0.17166194117E+03 0.  0.
         24    2    5    5    0    0  0.60953706245E+02  0.30894662686E+02  0.29250138472E+03  0.31075453082E+03  0.79633434411E+02 0.  0.
          5    1    5    5  501    0  0.54418347464E+02 -0.57392701460E+01  0.88782228096E+01  0.55634598972E+02  0.47000000000E+01 0. -1.
        -11    1    6    6    0    0  0.35659851116E+02  0.39820021509E+02  0.77854377196E+02  0.94438144535E+02  0.00000000000E+00 0.  1.
         12    1    6    6    0    0  0.25293855129E+02 -0.89253588229E+01  0.21464700753E+03  0.21631638629E+03  0.00000000000E+00 0. -1.
         -5    1    3    3    0  503 -0.10022467203E+03 -0.27930725962E+02  0.27581051323E+03  0.29481967293E+03  0.47000000000E+01 0.  1.
         11    1    4    4    0    0  0.21812548928E+02  0.34942806657E+01  0.68434222058E+02  0.71911334550E+02  0.00000000000E+00 0. -1.
        -12    1    4    4    0    0 -0.36959930610E+02 -0.71894724438E+00  0.19225456974E+01  0.37016881795E+02  0.00000000000E+00 0.  1.
</event>
<event>
12    1  0.8416569E-002  0.1769302E+03  0.7818608E-02  0.1170828E+00
         21   -1    0    0  503  502  0.00000000000E+00  0.00000000000E+00  0.10156209850E+03  0.10156209850E+03  0.00000000000E+00 0.  1.
         21   -1    0    0  501  503 -0.00000000000E+00 -0.00000000000E+00 -0.32728182105E+03  0.32728182105E+03  0.00000000000E+00 0.  1.
          6    2    1    2  501    0  0.81988750850E+01  0.40683056305E+02 -0.16481320635E+03  0.24180092859E+03  0.17199407972E+03 0.  0.
         24    2    3    3    0    0  0.31217313470E+02 -0.55724497726E+01 -0.19521128583E+02  0.87524234920E+02  0.79207603046E+02 0.  0.
         -6    2    1    2    0  502 -0.81988750850E+01 -0.40683056305E+02 -0.60906516206E+02  0.18704299096E+03  0.17191027930E+03 0.  0.
        -24    2    5    5    0    0  0.49277888061E+02 -0.31907477046E+02 -0.78742354156E+02  0.12604466140E+03  0.78996841628E+02 0.  0.
          5    1    3    3  501    0 -0.23018438385E+02  0.46255506078E+02 -0.14529207777E+03  0.15427669367E+03  0.47000000000E+01 0. -1.
        -13    1    4    4    0    0  0.28733982875E+02  0.13262386396E+02 -0.45448649510E+02  0.55381516836E+02  0.00000000000E+00 0.  1.
         14    1    4    4    0    0  0.24833305950E+01 -0.18834836169E+02  0.25927520927E+02  0.32142718084E+02  0.00000000000E+00 0. -1.
         -5    1    5    5    0  502 -0.57476763146E+02 -0.87755792594E+01  0.17835837950E+02  0.60998329554E+02  0.47000000000E+01 0.  1.
         13    1    6    6    0    0  0.93755973059E+01  0.18704925565E+02 -0.52393100332E+02  0.56416425159E+02  0.00000000000E+00 0. -1.
        -14    1    6    6    0    0  0.39902290755E+02 -0.50612402611E+02 -0.26349253824E+02  0.69628236245E+02  0.00000000000E+00 0.  1.
</event>
<event>
12    1  0.8416569E-002  0.2398107E+03  0.7818608E-02  0.1119996E+00
         21   -1    0    0  501  502  0.00000000000E+00  0.00000000000E+00  0.32666836319E+03  0.32666836319E+03  0.00000000000E+00 0. -1.
         21   -1    0    0  502  503 -0.00000000000E+00 -0.00000000000E+00 -0.21811168263E+03  0.21811168263E+03  0.00000000000E+00 0. -1.
         -6    2    1    2    0  503  0.16425165610E+03  0.32199678612E+02 -0.65867543230E+02  0.24824510095E+03  0.17108965796E+03 0.  0.
        -24    2    3    3    0    0  0.25575749126E+02  0.14018480902E+02 -0.66229845229E+02  0.10830302583E+03  0.80576151901E+02 0.  0.
          6    2    1    2  501    0 -0.16425165610E+03 -0.32199678612E+02  0.17442422379E+03  0.29653494488E+03  0.17173740959E+03 0.  0.
         24    2    5    5    0    0 -0.19104451082E+03 -0.37431312370E+02  0.16340717708E+03  0.26672400101E+03  0.80874464033E+02 0.  0.
          5    1    5    5  501    0  0.26792854723E+02  0.52316337577E+01  0.11017046712E+02  0.29810943867E+02  0.47000000000E+01 0. -1.
        -11    1    6    6    0    0 -0.17405479566E+01  0.12379240272E+02  0.13027885286E+01  0.12568705376E+02  0.00000000000E+00 0.  1.
         12    1    6    6    0    0 -0.18930396286E+03 -0.49810552641E+02  0.16210438855E+03  0.25415529563E+03  0.00000000000E+00 0. -1.
         -5    1    3    3    0  503  0.13867590697E+03  0.18181197710E+02  0.36230199894E+00  0.13994207511E+03  0.47000000000E+01 0.  1.
         11    1    4    4    0    0  0.49952114807E+02 -0.67525260134E+01 -0.54397921282E+02  0.74161608808E+02  0.00000000000E+00 0. -1.
        -12    1    4    4    0    0 -0.24376365681E+02  0.20771006915E+02 -0.11831923948E+02  0.34141417024E+02  0.00000000000E+00 0.  1.
</event>
<event>
12    1  0.8416569E-002  0.1847560E+03  0.7818608E-02  0.1163354E+00
         21   -1    0    0  503  502  0.00000000000E+00  0.00000000000E+00  0.19768642156E+03  0.19768642156E+03  0.00000000000E+00 0. -1.
         21   -1    0    0  501  503 -0.00000000000E+00 -0.00000000000E+00 -0.18188911244E+03  0.18188911244E+03  0.00000000000E+00 0. -1.
          6    2    1    2  501    0  0.61731261128E+02  0.57517802451E+01 -0.35514047989E+02  0.18813836762E+03  0.17404300097E+03 0.  0.
         24    2    3    3    0    0  0.32196588764E+02  0.28007092362E+02 -0.88680278760E+02  0.12320506427E+03  0.74123400289E+02 0.  0.
         -6    2    1    2    0  502 -0.61731261128E+02 -0.57517802451E+01  0.51311357112E+02  0.19143716639E+03  0.17369945806E+03 0.  0.
        -24    2    5    5    0    0 -0.10770483936E+02 -0.11421905008E+02  0.93358016769E+02  0.12496038311E+03  0.81565402060E+02 0.  0.
          5    1    3    3  501    0  0.29534672364E+02 -0.22255312117E+02  0.53166230770E+02  0.64933303345E+02  0.47000000000E+01 0. -1.
        -13    1    4    4    0    0  0.45752945256E+01 -0.22679405108E+02 -0.90272872927E+01  0.24835068993E+02  0.00000000000E+00 0.  1.
         14    1    4    4    0    0  0.27621294238E+02  0.50686497470E+02 -0.79652991467E+02  0.98369995277E+02  0.00000000000E+00 0. -1.
         -5    1    5    5    0  502 -0.50960777192E+02  0.56701247626E+01 -0.42046659657E+02  0.66476783279E+02  0.47000000000E+01 0.  1.
         11    1    6    6    0    0 -0.12085964635E+02 -0.46311866911E+02  0.48824093073E+02  0.68371424018E+02  0.00000000000E+00 0. -1.
        -12    1    6    6    0    0  0.13154806991E+01  0.34889961903E+02  0.44533923696E+02  0.56588959089E+02  0.00000000000E+00 0.  1.
</event>
<event>
12    1  0.8416569E-002  0.2304091E+03  0.7818608E-02  0.1126424E+00
         21   -1    0    0  503  502  0.00000000000E+00  0.00000000000E+00  0.40729347247E+03  0.40729347247E+03  0.00000000000E+00 0. -1.
         21   -1    0    0  501  503 -0.00000000000E+00 -0.00000000000E+00 -0.35541074474E+03  0.35541074474E+03  0.00000000000E+00 0.  1.
          6    2    1    2  501    0  0.14985701477E+03  0.34905762132E+02 -0.27769393451E+03  0.36057348514E+03  0.17094964117E+03 0.  0.
         24    2    3    3    0    0  0.12540703726E+03  0.86392335639E+02 -0.19837324536E+03  0.26278529374E+03  0.80706910957E+02 0.  0.
         -6    2    1    2    0  502 -0.14985701477E+03 -0.34905762132E+02  0.32957666224E+03  0.40213073208E+03  0.17150163929E+03 0.  0.
        -24    2    5    5    0    0 -0.12424024313E+03  0.22342228296E+02  0.29377510779E+03  0.32976089928E+03  0.80645046722E+02 0.  0.
          5    1    3    3  501    0  0.24449977510E+02 -0.51486573507E+02 -0.79320689143E+02  0.97788191403E+02  0.47000000000E+01 0. -1.
        -11    1    4    4    0    0  0.99746553288E+02  0.23764676764E+02 -0.98832730537E+02  0.14241503916E+03  0.00000000000E+00 0.  1.
         12    1    4    4    0    0  0.25660483973E+02  0.62627658875E+02 -0.99540514828E+02  0.12037025457E+03  0.00000000000E+00 0. -1.
         -5    1    5    5    0  502 -0.25616771640E+02 -0.57247990428E+02  0.35801554452E+02  0.72369832793E+02  0.47000000000E+01 0.  1.
         11    1    6    6    0    0 -0.59978011606E+02 -0.15471361002E+02  0.67951937590E+02  0.91946673184E+02  0.00000000000E+00 0. -1.
        -12    1    6    6    0    0 -0.64262231527E+02  0.37813589298E+02  0.22582317020E+03  0.23781422610E+03  0.00000000000E+00 0.  1.
</event>
<event>
12    1  0.8416569E-002  0.1803201E+03  0.7818608E-02  0.1169465E+00
         21   -1    0    0  503  502  0.00000000000E+00  0.00000000000E+00  0.22538486445E+03  0.22538486445E+03  0.00000000000E+00 0.  1.
         21   -1    0    0  501  503 -0.00000000000E+00 -0.00000000000E+00 -0.16366890488E+03  0.16366890488E+03  0.00000000000E+00 0.  1.
          6    2    1    2  501    0 -0.36053564535E+02 -0.12183046069E+02 -0.46814323185E+02  0.17859201917E+03  0.16809295740E+03 0.  0.
         24    2    3    3    0    0 -0.15838214141E+02  0.58031977991E+02 -0.23037735965E+02  0.10161003364E+03  0.78583090815E+02 0.  0.
         -6    2    1    2    0  502  0.36053564535E+02  0.12183046069E+02  0.10853028276E+03  0.21046175016E+03  0.17625844626E+03 0.  0.
        -24    2    5    5    0    0 -0.48537521883E+02  0.55021005376E+01  0.69137239109E+02  0.11679111003E+03  0.80461428082E+02 0.  0.
          5    1    3    3  501    0 -0.20215350394E+02 -0.70215024060E+02 -0.23776587220E+02  0.76981985523E+02  0.47000000000E+01 0. -1.
        -11    1    4    4    0    0 -0.28114664359E+02  0.25563359323E+01  0.16211057406E+02  0.32554071752E+02  0.00000000000E+00 0.  1.
         12    1    4    4    0    0  0.12276450218E+02  0.55475642059E+02 -0.39248793371E+02  0.69055961892E+02  0.00000000000E+00 0. -1.
         -5    1    5    5    0  502  0.84591086417E+02  0.66809455313E+01  0.39393043650E+02  0.93670640130E+02  0.47000000000E+01 0.  1.
         11    1    6    6    0    0  0.46032473515E+01 -0.18634643345E+02 -0.73715464719E+01  0.20561602957E+02  0.00000000000E+00 0. -1.
        -12    1    6    6    0    0 -0.53140769234E+02  0.24136743882E+02  0.76508785581E+02  0.96229507071E+02  0.00000000000E+00 0.  1.
</event>
<event>
12    1  0.8416569E-002  0.1800845E+03  0.7818608E-02  0.1168220E+00
         21   -1    0    0  503  502  0.00000000000E+00  0.00000000000E+00  0.62562734369E+02  0.62562734369E+02  0.00000000000E+00 0. -1.
         21   -1    0    0  501  503 -0.00000000000E+00 -0.00000000000E+00 -0.56611190104E+03  0.56611190104E+03  0.00000000000E+00 0. -1.
          6    2    1    2  501    0 -0.38067074642E+02  0.30872300559E+02 -0.34721931310E+03  0.39020148925E+03  0.17115416943E+03 0.  0.
         24    2    3    3    0    0 -0.82543802750E+02  0.55537837227E+02 -0.25097188639E+03  0.28124174811E+03  0.78816891491E+02 0.  0.
         -6    2    1    2    0  502  0.38067074642E+02 -0.30872300559E+02 -0.15632985357E+03  0.23847314615E+03  0.17328651767E+03 0.  0.
        -24    2    5    5    0    0  0.23063552338E+02  0.37797413581E+02 -0.38924766421E+02  0.10155463093E+03  0.82689985507E+02 0.  0.
          5    1    3    3  501    0  0.44476728108E+02 -0.24665536669E+02 -0.96247426706E+02  0.10895974114E+03  0.47000000000E+01 0. -1.
        -13    1    4    4    0    0  0.39502251583E+01  0.37112091296E+02 -0.92844663545E+02  0.10006519449E+03  0.00000000000E+00 0.  1.
         14    1    4    4    0    0 -0.86494027908E+02  0.18425745932E+02 -0.15812722285E+03  0.18117655362E+03  0.00000000000E+00 0. -1.
         -5    1    5    5    0  502  0.15003522304E+02 -0.68669714140E+02 -0.11740508715E+03  0.13691851522E+03  0.47000000000E+01 0.  1.
         11    1    6    6    0    0  0.43281018026E+02  0.42809625140E+02 -0.41483145050E+01  0.61017366701E+02  0.00000000000E+00 0. -1.
        -12    1    6    6    0    0 -0.20217465688E+02 -0.50122115585E+01 -0.34776451916E+02  0.40537264232E+02  0.00000000000E+00 0.  1.
</event>
<event>
12    1  0.8416569E-002  0.1908120E+03  0.7818608E-02  0.1158041E+00
         21   -1    0    0  501  502  0.00000000000E+00  0.00000000000E+00  0.90213434080E+03  0.90213434080E+03  0.00000000000E+00 0. -1.
         21   -1    0    0  502  503 -0.00000000000E+00 -0.00000000000E+00 -0.43755698723E+02  0.43755698723E+02  0.00000000000E+00 0. -1.
         -6    2    1    2    0  503 -0.80428863465E+02 -0.91973035714E+01  0.29332069005E+03  0.34992322234E+03  0.17278843091E+03 0.  0.
        -24    2    3    3    0    0 -0.81702424217E+02 -0.27834787274E+02  0.30552973208E+03  0.32711689728E+03  0.78784426074E+02 0.  0.
          6    2    1    2  501    0  0.80428863465E+02  0.91973035714E+01  0.56505795203E+03  0.59596681717E+03  0.17126752626E+03 0.  0.
         24    2    5    5    0    0  0.79107475017E+02 -0.20467884166E+01  0.19301311137E+03  0.22372008565E+03  0.80835843630E+02 0.  0.
          5    1    5    5  501    0  0.13213884482E+01  0.11244091988E+02  0.37204484066E+03  0.37224673153E+03  0.47000000000E+01 0. -1.
        -11    1    6    6    0    0 -0.70191406390E+01 -0.23184533219E+02  0.35945345652E+02  0.43345804756E+02  0.00000000000E+00 0.  1.
         12    1    6    6    0    0  0.86126615656E+02  0.21137744803E+02  0.15706776572E+03  0.18037428089E+03  0.00000000000E+00 0. -1.
         -5    1    3    3    0  503  0.12735607523E+01  0.18637483702E+02 -0.12209042035E+02  0.22806325069E+02  0.47000000000E+01 0.  1.
         11    1    4    4    0    0 -0.71363503804E+02 -0.41484309420E+02  0.15493793118E+03  0.17555472116E+03  0.00000000000E+00 0. -1.
        -12    1    4    4    0    0 -0.10338920413E+02  0.13649522146E+02  0.15059180090E+03  0.15156217611E+03  0.00000000000E+00 0.  1.
</event>
<event>
12    1  0.8416569E-002  0.1745354E+03  0.7818608E-02  0.1173385E+00
         21   -1    0    0  501  502  0.00000000000E+00  0.00000000000E+00  0.53532977640E+03  0.53532977640E+03  0.00000000000E+00 0.  1.
         21   -1    0    0  502  503 -0.00000000000E+00 -0.00000000000E+00 -0.58045909992E+02  0.58045909992E+02  0.00000000000E+00 0.  1.
         -6    2    1    2    0  503 -0.25980490811E+02  0.16341278232E+02  0.19237853519E+03  0.25925946098E+03  0.17106707465E+03 0.  0.
        -24    2    3    3    0    0 -0.79737383280E+01  0.13442938515E+02  0.21512860832E+03  0.22972474691E+03  0.79049656063E+02 0.  0.
          6    2    1    2  501    0  0.25980490811E+02 -0.16341278232E+02  0.28490533122E+03  0.33411622541E+03  0.17181554368E+03 0.  0.
         24    2    5    5    0    0  0.31874326018E+02  0.31505951225E+02  0.26702098497E+03  0.28248256874E+03  0.80545624395E+02 0.  0.
          5    1    5    5  501    0 -0.58938352070E+01 -0.47847229458E+02  0.17884346256E+02  0.51633656671E+02  0.47000000000E+01 0. -1.
        -13    1    6    6    0    0  0.56574870815E+02  0.98900257107E+01  0.19604218765E+03  0.20428183462E+03  0.00000000000E+00 0.  1.
         14    1    6    6    0    0 -0.24700544797E+02  0.21615925515E+02  0.70978797315E+02  0.78200734123E+02  0.00000000000E+00 0. -1.
         -5    1    3    3    0  503 -0.18006752483E+02  0.28983397178E+01 -0.22750073132E+02  0.29534714077E+02  0.47000000000E+01 0.  1.
         13    1    4    4    0    0 -0.25132028064E+02  0.40314727118E+02  0.10881341818E+03  0.11873186613E+03  0.00000000000E+00 0. -1.
        -14    1    4    4    0    0  0.17158289736E+02 -0.26871788604E+02  0.10631519014E+03  0.11099288078E+03  0.00000000000E+00 0.  1.
</event>
<event>
12    1  0.8416569E-002  0.2083189E+03  0.7818608E-02  0.1142950E+00
         21   -1    0    0  501  502  0.00000000000E+00  0.00000000000E+00  0.39316239565E+02  0.39316239565E+02  0.00000000000E+00 0. -1.
         21   -1    0    0  502  503 -0.00000000000E+00 -0.00000000000E+00 -0.11039958062E+04  0.11039958062E+04  0.00000000000E+00 0.  1.
         -6    2    1    2    0  503  0.75271231653E+00 -0.11723572915E+03 -0.55258815250E+03  0.59046993463E+03  0.17191944234E+03 0.  0.
        -24    2    3    3    0    0  0.21086465350E+02 -0.14238284790E+03 -0.36909956106E+03  0.40409399122E+03  0.79623824109E+02 0.  0.
          6    2    1    2  501    0 -0.75271231653E+00  0.11723572915E+03 -0.51209141409E+03  0.55284211109E+03  0.17219756283E+03 0.  0.
         24    2    5    5    0    0  0.30610202710E+02  0.11390780345E+03 -0.24185908376E+03  0.28073494491E+03  0.80026999841E+02 0.  0.
          5    1    5    5  501    0 -0.31362915026E+02  0.33279257041E+01 -0.27023233034E+03  0.27210716618E+03  0.47000000000E+01 0. -1.
        -13    1    6    6    0    0  0.52767659685E+01  0.28844151994E+02 -0.15061777893E+03  0.15344557567E+03  0.00000000000E+00 0.  1.
         14    1    6    6    0    0  0.25333436741E+02  0.85063651451E+02 -0.91241304828E+02  0.12728936924E+03  0.00000000000E+00 0. -1.
         -5    1    3    3    0  503 -0.20333753033E+02  0.25147118753E+02 -0.18348859144E+03  0.18637594341E+03  0.47000000000E+01 0.  1.
         13    1    4    4    0    0 -0.23498379983E+02 -0.74054087437E+02 -0.12988114779E+03  0.15134495129E+03  0.00000000000E+00 0. -1.
        -14    1    4    4    0    0  0.44584845333E+02 -0.68328760466E+02 -0.23921841326E+03  0.25274903993E+03  0.00000000000E+00 0.  1.
</event>
<event>
12    1  0.8416569E-002  0.1899635E+03  0.7818608E-02  0.1159195E+00
         21   -1    0    0  503  502  0.00000000000E+00  0.00000000000E+00  0.55115580408E+02  0.55115580408E+02  0.00000000000E+00 0. -1.
         21   -1    0    0  501  503 -0.00000000000E+00 -0.00000000000E+00 -0.64420227625E+03  0.64420227625E+03  0.00000000000E+00 0. -1.
          6    2    1    2  501    0  0.64370990564E+01 -0.82554290861E+02 -0.29481763120E+03  0.34906021221E+03  0.16753790287E+03 0.  0.
         24    2    3    3    0    0  0.28068525424E+02  0.12719069479E+02 -0.15123340953E+03  0.17532636258E+03  0.83175551742E+02 0.  0.
         -6    2    1    2    0  502 -0.64370990564E+01  0.82554290861E+02 -0.29426906464E+03  0.35025764445E+03  0.17096633559E+03 0.  0.
        -24    2    5    5    0    0 -0.40122164450E+02  0.10258681884E+03 -0.15959922452E+03  0.20992218333E+03  0.80383873425E+02 0.  0.
          5    1    3    3  501    0 -0.21631426368E+02 -0.95273360340E+02 -0.14358422166E+03  0.17373384963E+03  0.47000000000E+01 0. -1.
        -11    1    4    4    0    0  0.22225571060E+02  0.11144178212E+02 -0.90838950523E+00  0.24879587787E+02  0.00000000000E+00 0.  1.
         12    1    4    4    0    0  0.58429543640E+01  0.15748912667E+01 -0.15032502003E+03  0.15044677479E+03  0.00000000000E+00 0. -1.
         -5    1    5    5    0  502  0.33685065394E+02 -0.20032527981E+02 -0.13466984012E+03  0.14033546111E+03  0.47000000000E+01 0.  1.
         11    1    6    6    0    0 -0.64983178110E+01  0.47858532486E+02 -0.13098356311E+03  0.13960430176E+03  0.00000000000E+00 0. -1.
        -12    1    6    6    0    0 -0.33623846639E+02  0.54728286357E+02 -0.28615661414E+02  0.70317881570E+02  0.00000000000E+00 0.  1.
</event>
<event>
12    1  0.8416569E-002  0.1851921E+03  0.7818608E-02  0.1163000E+00
         21   -1    0    0  503  502  0.00000000000E+00  0.00000000000E+00  0.38355737737E+03  0.38355737737E+03  0.00000000000E+00 0. -1.
         21   -1    0    0  501  503 -0.00000000000E+00 -0.00000000000E+00 -0.14366337359E+03  0.14366337359E+03  0.00000000000E+00 0. -1.
          6    2    1    2  501    0  0.59236949341E+02 -0.33160018870E+02 -0.42550836688E+02  0.18947648265E+03  0.17170370048E+03 0.  0.
         24    2    3    3    0    0 -0.37684053609E+01  0.72268583648E+01  0.27759146671E+02  0.86683689453E+02  0.81713300217E+02 0.  0.
         -6    2    1    2    0  502 -0.59236949341E+02  0.33160018870E+02  0.28244484047E+03  0.33774426831E+03  0.17230060897E+03 0.  0.
        -24    2    5    5    0    0 -0.24328508819E+02  0.86167421674E+02  0.20780616386E+03  0.23965550231E+03  0.78959845152E+02 0.  0.
          5    1    3    3  501    0  0.63005354702E+02 -0.40386877235E+02 -0.70309983360E+02  0.10279279320E+03  0.47000000000E+01 0. -1.
        -11    1    4    4    0    0 -0.65167699663E+01  0.43525679154E+02  0.63898893985E+01  0.44472280390E+02  0.00000000000E+00 0.  1.
         12    1    4    4    0    0  0.27483646054E+01 -0.36298820789E+02  0.21369257273E+02  0.42211409062E+02  0.00000000000E+00 0. -1.
         -5    1    5    5    0  502 -0.34908440521E+02 -0.53007402804E+02  0.74638676605E+02  0.98088766008E+02  0.47000000000E+01 0.  1.
         13    1    6    6    0    0 -0.28367311734E+02  0.52261626159E+02  0.48510818288E+02  0.76741653844E+02  0.00000000000E+00 0. -1.
        -14    1    6    6    0    0  0.40388029142E+01  0.33905795515E+02  0.15929534558E+03  0.16291384846E+03  0.00000000000E+00 0.  1.
</event>
<event>
12    1  0.8416569E-002  0.1891933E+03  0.7818608E-02  0.1159590E+00
         21   -1    0    0  501  502  0.00000000000E+00  0.00000000000E+00  0.99096003708E+02  0.99096003708E+02  0.00000000000E+00 0. -1.
         21   -1    0    0  502  503 -0.00000000000E+00 -0.00000000000E+00 -0.47599876026E+03  0.47599876026E+03  0.00000000000E+00 0. -1.
         -6    2    1    2    0  503 -0.66099360597E+02  0.39659677059E+02 -0.33235631031E+03  0.38243277757E+03  0.17277759375E+03 0.  0.
        -24    2    3    3    0    0 -0.48758655674E+02  0.75810896023E+02 -0.31714531712E+03  0.33929259915E+03  0.80085062349E+02 0.  0.
          6    2    1    2  501    0  0.66099360597E+02 -0.39659677059E+02 -0.44546446246E+02  0.19266198640E+03  0.17085736646E+03 0.  0.
         24    2    5    5    0    0 -0.11188839142E+02  0.25116017664E+02 -0.69744426121E+01  0.84944290999E+02  0.80068003965E+02 0.  0.
          5    1    5    5  501    0  0.77288199739E+02 -0.64775694723E+02 -0.37572003634E+02  0.10771769540E+03  0.47000000000E+01 0. -1.
        -11    1    6    6    0    0 -0.14090385463E+02 -0.28047165814E+02 -0.36342554145E+01  0.31597314524E+02  0.00000000000E+00 0.  1.
         12    1    6    6    0    0  0.29015463212E+01  0.53163183478E+02 -0.33401871976E+01  0.53346976475E+02  0.00000000000E+00 0. -1.
         -5    1    3    3    0  503 -0.17340704923E+02 -0.36151218964E+02 -0.15210993187E+02  0.43140178413E+02  0.47000000000E+01 0.  1.
         11    1    4    4    0    0 -0.43775236846E+02  0.92937859665E+02 -0.26897229043E+03  0.28792327127E+03  0.00000000000E+00 0. -1.
        -12    1    4    4    0    0 -0.49834188275E+01 -0.17126963642E+02 -0.48173026689E+02  0.51369327883E+02  0.00000000000E+00 0.  1.
</event>
<event>
12    1  0.8416569E-002  0.2080913E+03  0.7818608E-02  0.1143244E+00
         21   -1    0    0  503  502  0.00000000000E+00  0.00000000000E+00  0.92488482427E+03  0.92488482427E+03  0.00000000000E+00 0.  1.
         21   -1    0    0  501  503 -0.00000000000E+00 -0.00000000000E+00 -0.58341709047E+02  0.58341709047E+02  0.00000000000E+00 0.  1.
          6    2    1    2  501    0 -0.11627853758E+03 -0.24640524394E+02  0.21377982727E+03  0.29833506408E+03  0.17080439739E+03 0.  0.
         24    2    3    3    0    0 -0.15878854010E+02  0.36766091459E+02  0.82959844689E+02  0.12230430889E+03  0.80449516194E+02 0.  0.
         -6    2    1    2    0  502  0.11627853758E+03  0.24640524394E+02  0.65276328796E+03  0.68489146925E+03  0.16984864083E+03 0.  0.
        -24    2    5    5    0    0  0.13136541006E+03 -0.22683097303E+02  0.55020577926E+03  0.57084204363E+03  0.73231450793E+02 0.  0.
          5    1    3    3  501    0 -0.10039968357E+03 -0.61406615853E+02  0.13081998258E+03  0.17603075519E+03  0.47000000000E+01 0. -1.
        -11    1    4    4    0    0 -0.47808987684E+02  0.24523300681E+02  0.62632092415E+02  0.82521939991E+02  0.00000000000E+00 0.  1.
         12    1    4    4    0    0  0.31930133674E+02  0.12242790778E+02  0.20327752274E+02  0.39782368896E+02  0.00000000000E+00 0. -1.
         -5    1    5    5    0  502 -0.15086872479E+02  0.47323621697E+02  0.10255750870E+03  0.11404942561E+03  0.47000000000E+01 0.  1.
         11    1    6    6    0    0 -0.74522738673E+01 -0.10225243798E+02  0.41179140111E+02  0.43079154783E+02  0.00000000000E+00 0. -1.
        -12    1    6    6    0    0  0.13881768392E+03 -0.12457853505E+02  0.50902663915E+03  0.52776288885E+03  0.00000000000E+00 0.  1.
</event>
<event>
12    1  0.8416569E-002  0.5670417E+03  0.7818608E-02  0.9976541E-01
         21   -1    0    0  503  502  0.00000000000E+00  0.00000000000E+00  0.25274111158E+03  0.25274111158E+03  0.00000000000E+00 0.  1.
         21   -1    0    0  501  503 -0.00000000000E+00 -0.00000000000E+00 -0.23756643334E+04  0.23756643334E+04  0.00000000000E+00 0. -1.
          6    2    1    2  501    0  0.31853414948E+03 -0.43612627591E+03 -0.19578808290E+04  0.20383408934E+04  0.17281818261E+03 0.  0.
         24    2    3    3    0    0  0.65312671670E+02 -0.15233409107E+03 -0.73414818716E+03  0.75685628963E+03  0.79915343113E+02 0.  0.
         -6    2    1    2    0  502 -0.31853414948E+03  0.43612627591E+03 -0.16504239278E+03  0.59006455153E+03  0.17107615448E+03 0.  0.
        -24    2    5    5    0    0 -0.14893203901E+03  0.20036307300E+03 -0.14890974438E+02  0.26308335612E+03  0.81639438262E+02 0.  0.
          5    1    3    3  501    0  0.25322147781E+03 -0.28379218485E+03 -0.12237326419E+04  0.12814846038E+04  0.47000000000E+01 0. -1.
        -13    1    4    4    0    0  0.58615404729E+02 -0.76838184154E+02 -0.53727452424E+03  0.54589723082E+03  0.00000000000E+00 0.  1.
         14    1    4    4    0    0  0.66972669415E+01 -0.75495906914E+02 -0.19687366291E+03  0.21095905881E+03  0.00000000000E+00 0. -1.
         -5    1    5    5    0  502 -0.16960211047E+03  0.23576320291E+03 -0.15015141834E+03  0.32698119541E+03  0.47000000000E+01 0.  1.
         11    1    6    6    0    0 -0.11282609264E+03  0.90957027734E+02  0.98093340010E+01  0.14525539958E+03  0.00000000000E+00 0. -1.
        -12    1    6    6    0    0 -0.36105946376E+02  0.10940604527E+03 -0.24700308438E+02  0.11782795654E+03  0.00000000000E+00 0.  1.
</event>
<event>
12    1  0.8416569E-002  0.1965017E+03  0.7818608E-02  0.1152771E+00
         21   -1    0    0  501  502  0.00000000000E+00  0.00000000000E+00  0.10235039314E+04  0.10235039314E+04  0.00000000000E+00 0.  1.
         21   -1    0    0  502  503 -0.00000000000E+00 -0.00000000000E+00 -0.59114038056E+02  0.59114038056E+02  0.00000000000E+00 0.  1.
         -6    2    1    2    0  503 -0.67225579975E+02 -0.65059319012E+02  0.15611844329E+03  0.25080330137E+03  0.17256110236E+03 0.  0.
        -24    2    3    3    0    0 -0.51308315542E+02 -0.57094201326E+02  0.18259950606E+02  0.11172110836E+03  0.79094179234E+02 0.  0.
          6    2    1    2  501    0  0.67225579975E+02  0.65059319012E+02  0.80827145006E+03  0.83181466809E+03  0.17280310031E+03 0.  0.
         24    2    5    5    0    0  0.91737539918E+02  0.81389684456E+02  0.76768760336E+03  0.78144944568E+03  0.79239654412E+02 0.  0.
          5    1    5    5  501    0 -0.24511959942E+02 -0.16330365444E+02  0.40583846692E+02  0.50365222407E+02  0.47000000000E+01 0. -1.
        -11    1    6    6    0    0  0.20521112508E+02  0.53917931367E+01  0.31803528257E+02  0.38231556355E+02  0.00000000000E+00 0.  1.
         12    1    6    6    0    0  0.71216427410E+02  0.75997891319E+02  0.73588407511E+03  0.74321788933E+03  0.00000000000E+00 0. -1.
         -5    1    3    3    0  503 -0.15917264433E+02 -0.79651176858E+01  0.13785849268E+03  0.13908219300E+03  0.47000000000E+01 0.  1.
         11    1    4    4    0    0  0.45110990981E+01 -0.51702151164E+02  0.19989690379E+02  0.55615197307E+02  0.00000000000E+00 0. -1.
        -12    1    4    4    0    0 -0.55819414640E+02 -0.53920501624E+01 -0.17297397723E+01  0.56105911056E+02  0.00000000000E+00 0.  1.
</event>
<event>
12    1  0.8416569E-002  0.1919451E+03  0.7818608E-02  0.1156806E+00
         21   -1    0    0  503  502  0.00000000000E+00  0.00000000000E+00  0.38560946493E+03  0.38560946493E+03  0.00000000000E+00 0.  1.
         21   -1    0    0  501  503 -0.00000000000E+00 -0.00000000000E+00 -0.96638405665E+02  0.96638405665E+02  0.00000000000E+00 0.  1.
          6    2    1    2  501    0  0.58269917555E+02 -0.61979464127E+02  0.11677734022E+03  0.22467721431E+03  0.17206413391E+03 0.  0.
         24    2    3    3    0    0  0.90146479045E+02 -0.10379776378E+02  0.10763241146E+03  0.16316004053E+03  0.82476271663E+02 0.  0.
         -6    2    1    2    0  502 -0.58269917555E+02  0.61979464127E+02  0.17219371905E+03  0.25757065628E+03  0.17162496565E+03 0.  0.
        -24    2    5    5    0    0 -0.10222580376E+02 -0.30182010465E+02  0.58469746550E+02  0.10343592324E+03  0.79150641503E+02 0.  0.
          5    1    3    3  501    0 -0.31876561490E+02 -0.51599687748E+02  0.91449287598E+01  0.61517173782E+02  0.47000000000E+01 0. -1.
        -11    1    4    4    0    0  0.88165971834E+02 -0.37048542185E+02  0.88273182318E+02  0.13014602485E+03  0.00000000000E+00 0.  1.
         12    1    4    4    0    0  0.19805072112E+01  0.26668765807E+02  0.19359229138E+02  0.33014015680E+02  0.00000000000E+00 0. -1.
         -5    1    5    5    0  502 -0.48047337179E+02  0.92161474592E+02  0.11372397250E+03  0.15413473304E+03  0.47000000000E+01 0.  1.
         13    1    6    6    0    0 -0.44089528396E+01  0.22640302415E+02 -0.17373523087E+01  0.23130943596E+02  0.00000000000E+00 0. -1.
        -14    1    6    6    0    0 -0.58136275363E+01 -0.52822312880E+02  0.60207098859E+02  0.80304979647E+02  0.00000000000E+00 0.  1.
</event>
<event>
12    1  0.8416569E-002  0.3037453E+03  0.7818608E-02  0.1083467E+00
         21   -1    0    0  503  502  0.00000000000E+00  0.00000000000E+00  0.12842998336E+03  0.12842998336E+03  0.00000000000E+00 0.  1.
         21   -1    0    0  501  503 -0.00000000000E+00 -0.00000000000E+00 -0.19653900915E+04  0.19653900915E+04  0.00000000000E+00 0.  1.
          6    2    1    2  501    0  0.10475951706E+03 -0.22629938651E+03 -0.17525540968E+04  0.17785652689E+04  0.17222829243E+03 0.  0.
         24    2    3    3    0    0  0.35863928042E+02 -0.19321320889E+03 -0.14927112973E+04  0.15076747600E+04  0.79237614285E+02 0.  0.
         -6    2    1    2    0  502 -0.10475951706E+03  0.22629938651E+03 -0.84406011392E+02  0.31525480604E+03  0.17342217049E+03 0.  0.
        -24    2    5    5    0    0 -0.81309331747E+02  0.19714704997E+03 -0.28627914068E+01  0.22541518982E+03  0.72977020239E+02 0.  0.
          5    1    3    3  501    0  0.68895589015E+02 -0.33086177629E+02 -0.25984279953E+03  0.27089050888E+03  0.47000000000E+01 0. -1.
        -13    1    4    4    0    0 -0.82606502238E+01 -0.93133466040E+02 -0.47590133066E+03  0.48499913130E+03  0.00000000000E+00 0.  1.
         14    1    4    4    0    0  0.44124578266E+02 -0.10007974285E+03 -0.10168099666E+04  0.10226756287E+04  0.00000000000E+00 0. -1.
         -5    1    5    5    0  502 -0.23450185310E+02  0.29152336542E+02 -0.81543219985E+02  0.89839616220E+02  0.47000000000E+01 0.  1.
         11    1    6    6    0    0 -0.28598214760E+01 -0.23710626767E+01  0.99748199276E+01  0.10644132171E+02  0.00000000000E+00 0. -1.
        -12    1    6    6    0    0 -0.78449510270E+02  0.19951811265E+03 -0.12837611334E+02  0.21477105764E+03  0.00000000000E+00 0.  1.
</event>
<event>
12    1  0.8416569E-002  0.1790382E+03  0.7818608E-02  0.1169975E+00
         21   -1    0    0  501  502  0.00000000000E+00  0.00000000000E+00  0.11204627393E+03  0.11204627393E+03  0.00000000000E+00 0. -1.
         21   -1    0    0  502  503 -0.00000000000E+00 -0.00000000000E+00 -0.38378831372E+03  0.38378831372E+03  0.00000000000E+00 0. -1.
         -6    2    1    2    0  503  0.74827495070E+01 -0.35833029047E+02 -0.26732839023E+03  0.32174389801E+03  0.17525601323E+03 0.  0.
        -24    2    3    3    0    0  0.61789267626E+02 -0.32801961076E+02 -0.23657912396E+03  0.25908615579E+03  0.79133254619E+02 0.  0.
          6    2    1    2  501    0 -0.74827495070E+01  0.35833029047E+02 -0.44136495724E+01  0.17409068964E+03  0.17014138358E+03 0.  0.
         24    2    5    5    0    0 -0.26072380818E+02 -0.36125616701E+02  0.25198457190E+02  0.93949639258E+02  0.78782886774E+02 0.  0.
          5    1    5    5  501    0  0.18589631311E+02  0.71958645747E+02 -0.29612106763E+02  0.80141050386E+02  0.47000000000E+01 0. -1.
        -13    1    6    6    0    0  0.87249301045E+01  0.17681826718E+00 -0.22812260709E+02  0.24424473560E+02  0.00000000000E+00 0.  1.
         14    1    6    6    0    0 -0.34797310922E+02 -0.36302434968E+02  0.48010717900E+02  0.69525165698E+02  0.00000000000E+00 0. -1.
         -5    1    3    3    0  503 -0.54306518119E+02 -0.30310679706E+01 -0.30749266271E+02  0.62657742214E+02  0.47000000000E+01 0.  1.
         11    1    4    4    0    0  0.79108263531E+02 -0.18533385987E+02 -0.16246310692E+03  0.18164763931E+03  0.00000000000E+00 0. -1.
        -12    1    4    4    0    0 -0.17318995905E+02 -0.14268575089E+02 -0.74116017036E+02  0.77438516486E+02  0.00000000000E+00 0.  1.
</event>
<event>
12    1  0.8416569E-002  0.2291389E+03  0.7818608E-02  0.1128404E+00
         21   -1    0    0  503  502  0.00000000000E+00  0.00000000000E+00  0.41050770589E+03  0.41050770589E+03  0.00000000000E+00 0.  1.
         21   -1    0    0  501  503 -0.00000000000E+00 -0.00000000000E+00 -0.30986884494E+03  0.30986884494E+03  0.00000000000E+00 0. -1.
          6    2    1    2  501    0 -0.14204478985E+03  0.90616506497E+01 -0.22866898090E+03  0.31919296316E+03  0.17127699515E+03 0.  0.
         24    2    3    3    0    0 -0.90412596293E+02  0.73707469095E+02 -0.11919869292E+03  0.18189475048E+03  0.72595752560E+02 0.  0.
         -6    2    1    2    0  502  0.14204478985E+03 -0.90616506497E+01  0.32930784185E+03  0.40118358768E+03  0.17957110146E+03 0.  0.
        -24    2    5    5    0    0  0.38731321914E+02 -0.61775066840E+02  0.19202001005E+03  0.22139922889E+03  0.82641757681E+02 0.  0.
          5    1    3    3  501    0 -0.51632193559E+02 -0.64645818445E+02 -0.10947028798E+03  0.13729821268E+03  0.47000000000E+01 0. -1.
        -11    1    4    4    0    0 -0.48746144605E+02  0.21791289041E+02 -0.10478699595E+02  0.54413693471E+02  0.00000000000E+00 0.  1.
         12    1    4    4    0    0 -0.41666451688E+02  0.51916180055E+02 -0.10871999333E+03  0.12748105701E+03  0.00000000000E+00 0. -1.
         -5    1    5    5    0  502  0.10331346794E+03  0.52713416190E+02  0.13728783180E+03  0.17978435879E+03  0.47000000000E+01 0.  1.
         11    1    6    6    0    0 -0.69617983313E+01 -0.26007892209E+02  0.14277863081E+03  0.14529492252E+03  0.00000000000E+00 0. -1.
        -12    1    6    6    0    0  0.45693120245E+02 -0.35767174631E+02  0.49241379240E+02  0.76104306371E+02  0.00000000000E+00 0.  1.
</event>
<event>
12    1  0.8416569E-002  0.2579688E+03  0.7818608E-02  0.1108439E+00
         21   -1    0    0  501  502  0.00000000000E+00  0.00000000000E+00  0.21485457072E+03  0.21485457072E+03  0.00000000000E+00 0. -1.
         21   -1    0    0  502  503 -0.00000000000E+00 -0.00000000000E+00 -0.33179682756E+03  0.33179682756E+03  0.00000000000E+00 0.  1.
         -6    2    1    2    0  503  0.17542992943E+03 -0.79101972925E+02 -0.12977122840E+03  0.28836382080E+03  0.17111498814E+03 0.  0.
        -24    2    3    3    0    0  0.19230682195E+03 -0.54449108434E+02 -0.13941577868E+03  0.25661952087E+03  0.80437553224E+02 0.  0.
          6    2    1    2  501    0 -0.17542992943E+03  0.79101972925E+02  0.12828971561E+02  0.25828757747E+03  0.17179961555E+03 0.  0.
         24    2    5    5    0    0 -0.13038466953E+03 -0.98485550946E+01  0.34167650184E+02  0.15621553879E+03  0.78349921220E+02 0.  0.
          5    1    5    5  501    0 -0.45045259900E+02  0.88950528020E+02 -0.21338678623E+02  0.10207203868E+03  0.47000000000E+01 0. -1.
        -11    1    6    6    0    0 -0.86921949401E+02  0.10709224489E+02  0.55427829014E+02  0.10364534242E+03  0.00000000000E+00 0.  1.
         12    1    6    6    0    0 -0.43462720130E+02 -0.20557779584E+02 -0.21260178830E+02  0.52570196370E+02  0.00000000000E+00 0. -1.
         -5    1    3    3    0  503 -0.16876892515E+02 -0.24652864491E+02  0.96445502750E+01  0.31744299939E+02  0.47000000000E+01 0.  1.
         11    1    4    4    0    0  0.92844429251E+02 -0.66176277645E+02 -0.60233164619E+02  0.12894736091E+03  0.00000000000E+00 0. -1.
        -12    1    4    4    0    0  0.99462392695E+02  0.11727169211E+02 -0.79182614059E+02  0.12767215996E+03  0.00000000000E+00 0.  1.
</event>
<event>
12    1  0.8416569E-002  0.1746038E+03  0.7818608E-02  0.1173337E+00
         21   -1    0    0  503  502  0.00000000000E+00  0.00000000000E+00  0.11912835816E+04  0.11912835816E+04  0.00000000000E+00 0. -1.
         21   -1    0    0  501  503 -0.00000000000E+00 -0.00000000000E+00 -0.26361221808E+02  0.26361221808E+02  0.00000000000E+00 0. -1.
          6    2    1    2  501    0  0.24356846026E+02  0.11513522883E+02  0.47193251519E+03  0.50319656149E+03  0.17251279211E+03 0.  0.
         24    2    3    3    0    0  0.58638403643E+02 -0.47849364606E+02  0.31665313999E+03  0.33339387610E+03  0.71793046168E+02 0.  0.
         -6    2    1    2    0  502 -0.24356846026E+02 -0.11513522883E+02  0.69298984456E+03  0.71444824188E+03  0.17168444455E+03 0.  0.
        -24    2    5    5    0    0 -0.43123352205E+02 -0.56480697341E+02  0.30006907405E+03  0.31848984706E+03  0.79653253533E+02 0.  0.
          5    1    3    3  501    0 -0.34281557617E+02  0.59362887489E+02  0.15527937520E+03  0.16980268539E+03  0.47000000000E+01 0. -1.
        -13    1    4    4    0    0 -0.15231980189E+02 -0.20367615698E+02  0.82529708221E+02  0.86359745997E+02  0.00000000000E+00 0.  1.
         14    1    4    4    0    0  0.73870383832E+02 -0.27481748908E+02  0.23412343177E+03  0.24703413010E+03  0.00000000000E+00 0. -1.
         -5    1    5    5    0  502  0.18766506179E+02  0.44967174458E+02  0.39292077051E+03  0.39595839482E+03  0.47000000000E+01 0.  1.
         11    1    6    6    0    0 -0.41684914011E+02  0.73812558509E+00  0.70608733004E+02  0.81998597926E+02  0.00000000000E+00 0. -1.
        -12    1    6    6    0    0 -0.14384381940E+01 -0.57218822926E+02  0.22946034105E+03  0.23649124913E+03  0.00000000000E+00 0.  1.
</event>
<event>
12    1  0.8416569E-002  0.2012359E+03  0.7818608E-02  0.1148715E+00
         21   -1    0    0  501  502  0.00000000000E+00  0.00000000000E+00  0.51312853262E+03  0.51312853262E+03  0.00000000000E+00 0. -1.
         21   -1    0    0  502  503 -0.00000000000E+00 -0.00000000000E+00 -0.21184070008E+03  0.21184070008E+03  0.00000000000E+00 0. -1.
         -6    2    1    2    0  503 -0.22633892604E+02  0.10211405174E+03 -0.13650857760E+03  0.24316755359E+03  0.17191944248E+03 0.  0.
        -24    2    3    3    0    0 -0.63323462154E+02  0.64052893600E+02 -0.14294386462E+03  0.18688437894E+03  0.79876082924E+02 0.  0.
          6    2    1    2  501    0  0.22633892604E+02 -0.10211405174E+03  0.43779641013E+03  0.48180167911E+03  0.17183593516E+03 0.  0.
         24    2    5    5    0    0 -0.21392447245E+02 -0.53240291550E+02  0.11092618858E+03  0.14834524302E+03  0.80059517668E+02 0.  0.
          5    1    5    5  501    0  0.44026339849E+02 -0.48873760189E+02  0.32687022155E+03  0.33345643609E+03  0.47000000000E+01 0. -1.
        -11    1    6    6    0    0  0.14465541945E+02 -0.55724967152E+02  0.44304819297E+02  0.72645997004E+02  0.00000000000E+00 0.  1.
         12    1    6    6    0    0 -0.35857989189E+02  0.24846756018E+01  0.66621369286E+02  0.75699246014E+02  0.00000000000E+00 0. -1.
         -5    1    3    3    0  503  0.40689569550E+02  0.38061158139E+02  0.64352870170E+01  0.56283174644E+02  0.47000000000E+01 0.  1.
         13    1    4    4    0    0 -0.30886951188E+02  0.16871614370E+02 -0.12025135167E+03  0.12529582077E+03  0.00000000000E+00 0. -1.
        -14    1    4    4    0    0 -0.32436510966E+02  0.47181279230E+02 -0.22692512949E+02  0.61588558170E+02  0.00000000000E+00 0.  1.
</event>
<event>
12    1  0.8416569E-002  0.1883514E+03  0.7818608E-02  0.1160353E+00
         21   -1    0    0  503  502  0.00000000000E+00  0.00000000000E+00  0.25470093173E+03  0.25470093173E+03  0.00000000000E+00 0.  1.
         21   -1    0    0  501  503 -0.00000000000E+00 -0.00000000000E+00 -0.24500725306E+03  0.24500725306E+03  0.00000000000E+00 0.  1.
          6    2    1    2  501    0 -0.30339085645E+02 -0.65831894652E+02 -0.16025313323E+03  0.24730007990E+03  0.17384465577E+03 0.  0.
         24    2    3    3    0    0 -0.40317741889E+02  0.20140831135E+02 -0.12245140361E+03  0.15273822754E+03  0.79394247383E+02 0.  0.
         -6    2    1    2    0  502  0.30339085645E+02  0.65831894652E+02  0.16994681190E+03  0.25240810488E+03  0.17196986383E+03 0.  0.
        -24    2    5    5    0    0 -0.72900962860E+00  0.26281414348E+01  0.16197664248E+03  0.18137603772E+03  0.81568350289E+02 0.  0.
          5    1    3    3  501    0  0.99786562440E+01 -0.85972725787E+02 -0.37801729617E+02  0.94561852360E+02  0.47000000000E+01 0. -1.
        -11    1    4    4    0    0 -0.34962472596E+02 -0.24838951908E+02 -0.79418148871E+02  0.90258464378E+02  0.00000000000E+00 0.  1.
         12    1    4    4    0    0 -0.53552692933E+01  0.44979783043E+02 -0.43033254739E+02  0.62479763166E+02  0.00000000000E+00 0. -1.
         -5    1    5    5    0  502  0.31068095274E+02  0.63203753217E+02  0.79701694197E+01  0.71032067161E+02  0.47000000000E+01 0.  1.
         13    1    6    6    0    0 -0.14494850913E+02 -0.33536212263E+02  0.43863545466E+02  0.57085802585E+02  0.00000000000E+00 0. -1.
        -14    1    6    6    0    0  0.13765841285E+02  0.36164353697E+02  0.11811309701E+03  0.12429023514E+03  0.00000000000E+00 0.  1.
</event>
<event>
12    1  0.8416569E-002  0.2179145E+03  0.7818608E-02  0.1135698E+00
         21   -1    0    0  501  502  0.00000000000E+00  0.00000000000E+00  0.25893026455E+03  0.25893026455E+03  0.00000000000E+00 0.  1.
         21   -1    0    0  502  503 -0.00000000000E+00 -0.00000000000E+00 -0.48246711732E+03  0.48246711732E+03  0.00000000000E+00 0.  1.
         -6    2    1    2    0  503 -0.11370055007E+03 -0.66842696034E+02 -0.40404115239E+03  0.45843353782E+03  0.17180306947E+03 0.  0.
        -24    2    3    3    0    0 -0.99780590811E+02 -0.20985505780E+02 -0.13962613334E+03  0.18966962755E+03  0.77990722204E+02 0.  0.
          6    2    1    2  501    0  0.11370055007E+03  0.66842696034E+02  0.18050429962E+03  0.28296384405E+03  0.17346750058E+03 0.  0.
         24    2    5    5    0    0  0.28403064267E+02 -0.10673119781E+02  0.13350151292E+03  0.15840175213E+03  0.79673154696E+02 0.  0.
          5    1    5    5  501    0  0.85297485804E+02  0.77515815815E+02  0.47002786701E+02  0.12456209192E+03  0.47000000000E+01 0. -1.
        -11    1    6    6    0    0  0.12896377399E+02 -0.47228570685E+01 -0.80231912524E+01  0.15905770235E+02  0.00000000000E+00 0.  1.
         12    1    6    6    0    0  0.15506686868E+02 -0.59502627128E+01  0.14152470417E+03  0.14249598189E+03  0.00000000000E+00 0. -1.
         -5    1    3    3    0  503 -0.13919959259E+02 -0.45857190254E+02 -0.26441501905E+03  0.26876391027E+03  0.47000000000E+01 0.  1.
         11    1    4    4    0    0 -0.31355794901E+02  0.27013065388E+02 -0.26989459910E+02  0.49409741163E+02  0.00000000000E+00 0. -1.
        -12    1    4    4    0    0 -0.68424795910E+02 -0.47998571168E+02 -0.11263667342E+03  0.14025988639E+03  0.00000000000E+00 0.  1.
</event>
<event>
12    1  0.8416569E-002  0.2197443E+03  0.7818608E-02  0.1134600E+00
         21   -1    0    0  501  502  0.00000000000E+00  0.00000000000E+00  0.14871355594E+03  0.14871355594E+03  0.00000000000E+00 0.  1.
         21   -1    0    0  502  503 -0.00000000000E+00 -0.00000000000E+00 -0.39719201826E+03  0.39719201826E+03  0.00000000000E+00 0. -1.
         -6    2    1    2    0  503  0.13136385782E+03 -0.39884631216E+02 -0.24347068095E+03  0.32610424651E+03  0.16798440452E+03 0.  0.
        -24    2    3    3    0    0  0.20816110494E+02 -0.54005579085E+02 -0.15438043122E+03  0.18334792195E+03  0.80207418042E+02 0.  0.
          6    2    1    2  501    0 -0.13136385782E+03  0.39884631216E+02 -0.50077813738E+01  0.21980132769E+03  0.17158175553E+03 0.  0.
         24    2    5    5    0    0 -0.97071429189E+02 -0.26871851944E+02  0.36550771680E+02  0.13388507755E+03  0.80276374418E+02 0.  0.
          5    1    5    5  501    0 -0.34292428628E+02  0.66756483159E+02 -0.41558553054E+02  0.85916250133E+02  0.47000000000E+01 0. -1.
        -13    1    6    6    0    0 -0.75028586011E+02 -0.23500891551E+02 -0.12867196760E+02  0.79668973729E+02  0.00000000000E+00 0.  1.
         14    1    6    6    0    0 -0.22042843178E+02 -0.33709603931E+01  0.49417968440E+02  0.54216103826E+02  0.00000000000E+00 0. -1.
         -5    1    3    3    0  503  0.11054774732E+03  0.14120947870E+02 -0.89090249727E+02  0.14275632457E+03  0.47000000000E+01 0.  1.
         11    1    4    4    0    0  0.17541034561E+02 -0.59110496754E+01 -0.12611549908E+03  0.12746665254E+03  0.00000000000E+00 0. -1.
        -12    1    4    4    0    0  0.32750759327E+01 -0.48094529410E+02 -0.28264932147E+02  0.55881269410E+02  0.00000000000E+00 0.  1.
</event>
<event>
12    1  0.8416569E-002  0.2605190E+03  0.7818608E-02  0.1107747E+00
         21   -1    0    0  501  502  0.00000000000E+00  0.00000000000E+00  0.13532938074E+04  0.13532938074E+04  0.00000000000E+00 0.  1.
         21   -1    0    0  502  503 -0.00000000000E+00 -0.00000000000E+00 -0.14656891650E+03  0.14656891650E+03  0.00000000000E+00 0. -1.
         -6    2    1    2    0  503 -0.18341716639E+03  0.61114237147E+02 -0.10861073882E+02  0.25471786275E+03  0.16548842789E+03 0.  0.
        -24    2    3    3    0    0 -0.99962688327E+02  0.52679594039E+02 -0.67180025711E+02  0.15357584651E+03  0.79402179382E+02 0.  0.
          6    2    1    2  501    0  0.18341716639E+03 -0.61114237147E+02  0.12175859648E+04  0.12451448612E+04  0.17462341402E+03 0.  0.
         24    2    5    5    0    0  0.20075069010E+03 -0.40733874902E+02  0.11744855425E+04  0.11941983539E+04  0.68799204723E+02 0.  0.
          5    1    5    5  501    0 -0.17333523705E+02 -0.20380362245E+02  0.43100422252E+02  0.50946507315E+02  0.47000000000E+01 0. -1.
        -13    1    6    6    0    0  0.19572128361E+03 -0.52551154389E+02  0.10805933736E+04  0.10994318914E+04  0.00000000000E+00 0.  1.
         14    1    6    6    0    0  0.50294064917E+01  0.11817279487E+02  0.93892168902E+02  0.94766462450E+02  0.00000000000E+00 0. -1.
         -5    1    3    3    0  503 -0.83454478066E+02  0.84346431073E+01  0.56318951829E+02  0.10114201624E+03  0.47000000000E+01 0.  1.
         11    1    4    4    0    0 -0.98029438396E+02  0.64538007912E+02 -0.40232056643E+02  0.12407072031E+03  0.00000000000E+00 0. -1.
        -12    1    4    4    0    0 -0.19332499311E+01 -0.11858413873E+02 -0.26947969068E+02  0.29505126195E+02  0.00000000000E+00 0.  1.
</event>
<event>
12    1  0.8416569E-002  0.2161140E+03  0.7818608E-02  0.1137188E+00
         21   -1    0    0  503  502  0.00000000000E+00  0.00000000000E+00  0.11223314540E+03  0.11223314540E+03  0.00000000000E+00 0.  1.
         21   -1    0    0  501  503 -0.00000000000E+00 -0.00000000000E+00 -0.12200519585E+04  0.12200519585E+04  0.00000000000E+00 0.  1.
          6    2    1    2  501    0 -0.92352518497E+02  0.88730872247E+02 -0.10950480429E+04  0.11157941120E+04  0.17165118369E+03 0.  0.
         24    2    3    3    0    0 -0.98110039537E+02  0.33415586217E+02 -0.97042120771E+03  0.97924057688E+03  0.80328113221E+02 0.  0.
         -6    2    1    2    0  502  0.92352518497E+02 -0.88730872247E+02 -0.12770770198E+02  0.21649099184E+03  0.17407786079E+03 0.  0.
        -24    2    5    5    0    0  0.24155385272E+02 -0.10750251883E+03  0.21254683216E+02  0.13785865005E+03  0.80081031730E+02 0.  0.
          5    1    3    3  501    0  0.57575210405E+01  0.55315286030E+02 -0.12462683515E+03  0.13655353513E+03  0.47000000000E+01 0. -1.
        -11    1    4    4    0    0 -0.72372121078E+00 -0.18239683227E+02 -0.82062044980E+02  0.84067764589E+02  0.00000000000E+00 0.  1.
         12    1    4    4    0    0 -0.97386318326E+02  0.51655269444E+02 -0.88835916273E+03  0.89517281229E+03  0.00000000000E+00 0. -1.
         -5    1    5    5    0  502  0.68197133225E+02  0.18771646584E+02 -0.34025453414E+02  0.78632341791E+02  0.47000000000E+01 0.  1.
         11    1    6    6    0    0 -0.81838074789E+01 -0.38661542641E+02  0.43346480613E+02  0.58656687307E+02  0.00000000000E+00 0. -1.
        -12    1    6    6    0    0  0.32339192751E+02 -0.68840976190E+02 -0.22091797397E+02  0.79201962746E+02  0.00000000000E+00 0.  1.
</event>
<event>
12    1  0.8416569E-002  0.2738568E+03  0.7818608E-02  0.1099695E+00
         21   -1    0    0  501  502  0.00000000000E+00  0.00000000000E+00  0.30955400983E+04  0.30955400983E+04  0.00000000000E+00 0. -1.
         21   -1    0    0  502  503 -0.00000000000E+00 -0.00000000000E+00 -0.25247817491E+02  0.25247817491E+02  0.00000000000E+00 0. -1.
         -6    2    1    2    0  503  0.58056273696E+02 -0.19969635631E+03  0.11570241714E+04  0.11880198413E+04  0.17157227183E+03 0.  0.
        -24    2    3    3    0    0 -0.11797754960E+02 -0.11147758118E+03  0.40437668977E+03  0.42699260183E+03  0.78966680679E+02 0.  0.
          6    2    1    2  501    0 -0.58056273696E+02  0.19969635631E+03  0.19132681094E+04  0.19327680745E+04  0.17818082299E+03 0.  0.
         24    2    5    5    0    0 -0.31381582303E+02  0.49517338661E+02  0.11598142683E+04  0.11640158015E+04  0.79541679262E+02 0.  0.
          5    1    5    5  501    0 -0.26674691394E+02  0.15017901765E+03  0.75345384111E+03  0.76875227297E+03  0.47000000000E+01 0. -1.
        -11    1    6    6    0    0 -0.36018981002E+01 -0.21733749977E+02  0.29956027088E+03  0.30036924851E+03  0.00000000000E+00 0.  1.
         12    1    6    6    0    0 -0.27779684203E+02  0.71251088638E+02  0.86025399740E+03  0.86364655301E+03  0.00000000000E+00 0. -1.
         -5    1    3    3    0  503  0.69854028657E+02 -0.88218775130E+02  0.75264748160E+03  0.76102723943E+03  0.47000000000E+01 0.  1.
         13    1    4    4    0    0  0.39635851865E+01 -0.10688565200E+03  0.39228053144E+03  0.40660087058E+03  0.00000000000E+00 0. -1.
        -14    1    4    4    0    0 -0.15761340147E+02 -0.45919291737E+01  0.12096158331E+02  0.20391731244E+02  0.00000000000E+00 0.  1.
</event>
<event>
12    1  0.8416569E-002  0.2016147E+03  0.7818608E-02  0.1149901E+00
         21   -1    0    0  503  502  0.00000000000E+00  0.00000000000E+00  0.16075193500E+04  0.16075193500E+04  0.00000000000E+00 0.  1.
         21   -1    0    0  501  503 -0.00000000000E+00 -0.00000000000E+00 -0.55692761400E+02  0.55692761400E+02  0.00000000000E+00 0.  1.
          6    2    1    2  501    0  0.19744846681E+02 -0.95897739335E+02  0.14647568263E+03  0.24347282165E+03  0.16804063170E+03 0.  0.
         24    2    3    3    0    0  0.36666557191E+02 -0.12411098683E+03  0.87289634603E+02  0.17559491728E+03  0.80412195583E+02 0.  0.
         -6    2    1    2    0  502 -0.19744846681E+02  0.95897739335E+02  0.14053509060E+04  0.14197392898E+04  0.17624484831E+03 0.  0.
        -24    2    5    5    0    0  0.34436943309E+02  0.88678469213E+02  0.60925674602E+03  0.62175696805E+03  0.79612629554E+02 0.  0.
          5    1    3    3  501    0 -0.16921710510E+02  0.28213247494E+02  0.59186048027E+02  0.67877904371E+02  0.47000000000E+01 0. -1.
        -13    1    4    4    0    0  0.49531649921E+02 -0.46345848037E+02  0.16873329473E+02  0.69900151800E+02  0.00000000000E+00 0.  1.
         14    1    4    4    0    0 -0.12865092730E+02 -0.77765138793E+02  0.70416305130E+02  0.10569476548E+03  0.00000000000E+00 0. -1.
         -5    1    5    5    0  502 -0.54181789990E+02  0.72192701222E+01  0.79609415998E+03  0.79798232172E+03  0.47000000000E+01 0.  1.
         13    1    6    6    0    0 -0.53744242575E+01  0.11884570570E+02  0.10390693152E+02  0.16676149373E+02  0.00000000000E+00 0. -1.
        -14    1    6    6    0    0  0.39811367567E+02  0.76793898644E+02  0.59886605287E+03  0.60508081868E+03  0.00000000000E+00 0.  1.
</event>
<event>
12    1  0.8416569E-002  0.1837713E+03  0.7818608E-02  0.1164785E+00
         21   -1    0    0  501  502  0.00000000000E+00  0.00000000000E+00  0.35367414323E+03  0.35367414323E+03  0.00000000000E+00 0.  1.
         21   -1    0    0  502  503 -0.00000000000E+00 -0.00000000000E+00 -0.13065495379E+03  0.13065495379E+03  0.00000000000E+00 0.  1.
         -6    2    1    2    0  503  0.26368895135E+02 -0.57755871230E+02 -0.16917865159E+02  0.18210122567E+03  0.16983398640E+03 0.  0.
        -24    2    3    3    0    0  0.79482465421E+02 -0.18584860771E+02 -0.18741846990E+02  0.11591333917E+03  0.80136046887E+02 0.  0.
          6    2    1    2  501    0 -0.26368895135E+02  0.57755871230E+02  0.23993705460E+03  0.30222787136E+03  0.17245531817E+03 0.  0.
         24    2    5    5    0    0  0.44833665549E+01  0.90417884171E+02  0.10590841164E+03  0.16079083140E+03  0.80259612824E+02 0.  0.
          5    1    5    5  501    0 -0.30852261690E+02 -0.32662012941E+02  0.13402864295E+03  0.14143703996E+03  0.47000000000E+01 0. -1.
        -13    1    6    6    0    0 -0.18543266840E+02 -0.70384565157E+01  0.25851829853E+02  0.32583887459E+02  0.00000000000E+00 0.  1.
         14    1    6    6    0    0  0.23026633395E+02  0.97456340687E+02  0.80056581792E+02  0.12820694394E+03  0.00000000000E+00 0. -1.
         -5    1    3    3    0  503 -0.53113570286E+02 -0.39171010459E+02  0.18239818306E+01  0.66187886495E+02  0.47000000000E+01 0.  1.
         13    1    4    4    0    0  0.18354340098E+02  0.30612118891E+02 -0.24762456189E+01  0.35778700589E+02  0.00000000000E+00 0. -1.
        -14    1    4    4    0    0  0.61128125323E+02 -0.49196979662E+02 -0.16265601371E+02  0.80134638586E+02  0.00000000000E+00 0.  1.
</event>
<event>
12    1  0.8416569E-002  0.1769806E+03  0.7818608E-02  0.1171141E+00
         21   -1    0    0  503  502  0.00000000000E+00  0.00000000000E+00  0.86185634164E+03  0.86185634164E+03  0.00000000000E+00 0.  1.
         21   -1    0    0  501  503 -0.00000000000E+00 -0.00000000000E+00 -0.11161661196E+03  0.11161661196E+03  0.00000000000E+00 0.  1.
          6    2    1    2  501    0 -0.44157179404E+02 -0.18393641094E+02 -0.25962856982E+02  0.17734947727E+03  0.16879154191E+03 0.  0.
         24    2    3    3    0    0 -0.28595157721E+01 -0.57879105170E+02 -0.55495004769E+02  0.11286043442E+03  0.79370110609E+02 0.  0.
         -6    2    1    2    0  502  0.44157179404E+02  0.18393641094E+02  0.77620258666E+03  0.79612347633E+03  0.17039351955E+03 0.  0.
        -24    2    5    5    0    0 -0.13536584152E+02 -0.30162165541E+02  0.57057950088E+03  0.57705914762E+03  0.79644822056E+02 0.  0.
          5    1    3    3  501    0 -0.41297663632E+02  0.39485464076E+02  0.29532147787E+02  0.64489042849E+02  0.47000000000E+01 0. -1.
        -11    1    4    4    0    0  0.85892232837E+01 -0.80629044127E+01 -0.60374576768E+02  0.61513207558E+02  0.00000000000E+00 0.  1.
         12    1    4    4    0    0 -0.11448739056E+02 -0.49816200757E+02  0.48795719981E+01  0.51347226865E+02  0.00000000000E+00 0. -1.
         -5    1    5    5    0  502  0.57693763556E+02  0.48555806636E+02  0.20562308578E+03  0.21906432872E+03  0.47000000000E+01 0.  1.
         13    1    6    6    0    0  0.11805155456E+02 -0.39094917576E+02  0.14525347852E+03  0.15088521232E+03  0.00000000000E+00 0. -1.
        -14    1    6    6    0    0 -0.25341739608E+02  0.89327520340E+01  0.42532602236E+03  0.42617393529E+03  0.00000000000E+00 0.  1.
</event>
<event>
12    1  0.8416569E-002  0.2047953E+03  0.7818608E-02  0.1146606E+00
         21   -1    0    0  501  502  0.00000000000E+00  0.00000000000E+00  0.38883729892E+03  0.38883729892E+03  0.00000000000E+00 0.  1.
         21   -1    0    0  502  503 -0.00000000000E+00 -0.00000000000E+00 -0.11485896898E+03  0.11485896898E+03  0.00000000000E+00 0. -1.
         -6    2    1    2    0  503  0.11196682257E+03 -0.80553599285E+01  0.64619444295E+02  0.21082725361E+03  0.16634602522E+03 0.  0.
        -24    2    3    3    0    0  0.73993477820E+02  0.35004555517E+02  0.92297832114E+02  0.14691861271E+03  0.79786184776E+02 0.  0.
          6    2    1    2  501    0 -0.11196682257E+03  0.80553599285E+01  0.20935888565E+03  0.29286901429E+03  0.17128823180E+03 0.  0.
         24    2    5    5    0    0 -0.12954956402E+03 -0.17417103730E+02  0.21162789751E+03  0.26148051932E+03  0.80617925655E+02 0.  0.
          5    1    5    5  501    0  0.17582741455E+02  0.25472463659E+02 -0.22690118626E+01  0.31388494974E+02  0.47000000000E+01 0. -1.
        -13    1    6    6    0    0 -0.58294101812E+02  0.18334665966E+02  0.42291124894E+02  0.74316226539E+02  0.00000000000E+00 0.  1.
         14    1    6    6    0    0 -0.71255462212E+02 -0.35751769696E+02  0.16933677262E+03  0.18716429278E+03  0.00000000000E+00 0. -1.
         -5    1    3    3    0  503  0.37973344749E+02 -0.43059915446E+02 -0.27678387819E+02  0.63908640901E+02  0.47000000000E+01 0.  1.
         13    1    4    4    0    0  0.50282520482E+02  0.20373485957E+02  0.40809566842E+01  0.54406479426E+02  0.00000000000E+00 0. -1.
        -14    1    4    4    0    0  0.23710957338E+02  0.14631069560E+02  0.88216875430E+02  0.92512133285E+02  0.00000000000E+00 0.  1.
</event>
<event>
12    1  0.8416569E-002  0.1768909E+03  0.7818608E-02  0.1170898E+00
         21   -1    0    0  501  502  0.00000000000E+00  0.00000000000E+00  0.14020903356E+04  0.14020903356E+04  0.00000000000E+00 0.  1.
         21   -1    0    0  502  503 -0.00000000000E+00 -0.00000000000E+00 -0.50295137118E+02  0.50295137118E+02  0.00000000000E+00 0.  1.
         -6    2    1    2    0  503 -0.35079682712E+02  0.18961988500E+02  0.13384268732E+03  0.22165451160E+03  0.17212413083E+03 0.  0.
        -24    2    3    3    0    0 -0.19778197669E+02 -0.29771599252E+02  0.10273496202E+02  0.87861638041E+02  0.79602748005E+02 0.  0.
          6    2    1    2  501    0  0.35079682712E+02 -0.18961988500E+02  0.12179525112E+04  0.12307309611E+04  0.17233757014E+03 0.  0.
         24    2    5    5    0    0  0.27990689492E+00  0.46514859211E+01  0.30362694844E+03  0.31542667007E+03  0.85340176386E+02 0.  0.
          5    1    5    5  501    0  0.34799775817E+02 -0.23613474421E+02  0.91432556275E+03  0.91530429107E+03  0.47000000000E+01 0. -1.
        -13    1    6    6    0    0 -0.36035539279E+01 -0.11978369160E+02  0.29675514021E+03  0.29701865290E+03  0.00000000000E+00 0.  1.
         14    1    6    6    0    0  0.38834608229E+01  0.16629855081E+02  0.68718082304E+01  0.18408017176E+02  0.00000000000E+00 0. -1.
         -5    1    3    3    0  503 -0.15301485042E+02  0.48733587752E+02  0.12356919112E+03  0.13379287355E+03  0.47000000000E+01 0.  1.
         11    1    4    4    0    0 -0.26217888263E+02 -0.19899787990E+02  0.42379759591E+02  0.53660257640E+02  0.00000000000E+00 0. -1.
        -12    1    4    4    0    0  0.64396905938E+01 -0.98718112619E+01 -0.32106263389E+02  0.34201380401E+02  0.00000000000E+00 0.  1.
</event>
<event>
12    1  0.8416569E-002  0.2537178E+03  0.7818608E-02  0.1111445E+00
         21   -1    0    0  503  502  0.00000000000E+00  0.00000000000E+00  0.34180687683E+03  0.34180687683E+03  0.00000000000E+00 0. -1.
         21   -1    0    0  501  503 -0.00000000000E+00 -0.00000000000E+00 -0.20358872872E+03  0.20358872872E+03  0.00000000000E+00 0.  1.
          6    2    1    2  501    0 -0.18236315382E+03 -0.44530436193E+01 -0.11161547040E+02  0.25096901672E+03  0.17200208648E+03 0.  0.
         24    2    3    3    0    0 -0.51715141132E+02  0.36313417890E+02  0.23211347564E+02  0.10977980507E+03  0.86716312219E+02 0.  0.
         -6    2    1    2    0  502  0.18236315382E+03  0.44530436193E+01  0.14937969515E+03  0.29442658883E+03  0.17634220544E+03 0.  0.
        -24    2    5    5    0    0  0.15233691031E+03  0.33829663362E+02  0.17195849960E+03  0.24650526271E+03  0.82729309154E+02 0.  0.
          5    1    3    3  501    0 -0.13064801268E+03 -0.40766461509E+02 -0.34372894604E+02  0.14118921165E+03  0.47000000000E+01 0. -1.
        -13    1    4    4    0    0 -0.21584779229E+02  0.29356306380E+02 -0.30688709129E+02  0.47639188560E+02  0.00000000000E+00 0.  1.
         14    1    4    4    0    0 -0.30130361903E+02  0.69571115104E+01  0.53900056694E+02  0.62140616512E+02  0.00000000000E+00 0. -1.
         -5    1    5    5    0  502  0.30026243508E+02 -0.29376619743E+02 -0.22578804452E+02  0.47921326121E+02  0.47000000000E+01 0.  1.
         13    1    6    6    0    0  0.82179510074E+02  0.59176930831E+02  0.11017395165E+03  0.14964518249E+03  0.00000000000E+00 0. -1.
        -14    1    6    6    0    0  0.70157400233E+02 -0.25347267470E+02  0.61784547954E+02  0.96860080227E+02  0.00000000000E+00 0.  1.
</event>
<event>
12    1  0.8416569E-002  0.2353035E+03  0.7818608E-02  0.1123044E+00
         21   -1    0    0  501  502  0.00000000000E+00  0.00000000000E+00  0.28288730556E+03  0.28288730556E+03  0.00000000000E+00 0.  1.
         21   -1    0    0  502  503 -0.00000000000E+00 -0.00000000000E+00 -0.38207295978E+03  0.38207295978E+03  0.00000000000E+00 0.  1.
         -6    2    1    2    0  503  0.10941019649E+03  0.11810899790E+03 -0.28206581980E+03  0.36732665946E+03  0.17160251037E+03 0.  0.
        -24    2    3    3    0    0  0.26095881544E+02  0.49143960475E+02 -0.46338260036E+02  0.10792923484E+03  0.80033502396E+02 0.  0.
          6    2    1    2  501    0 -0.10941019649E+03 -0.11810899790E+03  0.18288016558E+03  0.29763360588E+03  0.17093941005E+03 0.  0.
         24    2    5    5    0    0 -0.72740897875E+02 -0.17678437486E+02  0.15244761789E+03  0.18637191038E+03  0.76749250193E+02 0.  0.
          5    1    5    5  501    0 -0.36669298611E+02 -0.10043056042E+03  0.30432547690E+02  0.11126169550E+03  0.47000000000E+01 0. -1.
        -11    1    6    6    0    0 -0.22356302206E+02 -0.96463594030E+01  0.12708195143E+03  0.12939350400E+03  0.00000000000E+00 0.  1.
         12    1    6    6    0    0 -0.50384595669E+02 -0.80320780829E+01  0.25365666453E+02  0.56978406380E+02  0.00000000000E+00 0. -1.
         -5    1    3    3    0  503  0.83314314942E+02  0.68965037429E+02 -0.23572755977E+03  0.25939742461E+03  0.47000000000E+01 0.  1.
         11    1    4    4    0    0  0.35346873120E+02  0.98460173316E+01  0.10542712722E+02  0.38177143531E+02  0.00000000000E+00 0. -1.
        -12    1    4    4    0    0 -0.92509915755E+01  0.39297943143E+02 -0.56880972758E+02  0.69752091312E+02  0.00000000000E+00 0.  1.
</event>
<event>
12    1  0.8416569E-002  0.1921450E+03  0.7818608E-02  0.1156906E+00
         21   -1    0    0  503  502  0.00000000000E+00  0.00000000000E+00  0.14007134367E+04  0.14007134367E+04  0.00000000000E+00 0. -1.
         21   -1    0    0  501  503 -0.00000000000E+00 -0.00000000000E+00 -0.50390630223E+02  0.50390630223E+02  0.00000000000E+00 0. -1.
          6    2    1    2  501    0 -0.45474337011E+02  0.71746680490E+02  0.17026987613E+03  0.25551023048E+03  0.17052315290E+03 0.  0.
         24    2    3    3    0    0 -0.10791681340E+01 -0.15451523540E+02  0.11963137049E+03  0.14523418567E+03  0.80878858162E+02 0.  0.
         -6    2    1    2    0  502  0.45474337011E+02 -0.71746680490E+02  0.11800529304E+04  0.11955938364E+04  0.17234906972E+03 0.  0.
        -24    2    5    5    0    0  0.52946424014E+02 -0.10131228581E+03  0.65949806321E+03  0.67412531697E+03  0.80248018851E+02 0.  0.
          5    1    3    3  501    0 -0.44395168876E+02  0.87198204029E+02  0.50638505638E+02  0.11027604481E+03  0.47000000000E+01 0. -1.
        -11    1    4    4    0    0 -0.18190736185E+02  0.19255406336E+02  0.96681175931E+02  0.10024431822E+03  0.00000000000E+00 0.  1.
         12    1    4    4    0    0  0.17111568051E+02 -0.34706929876E+02  0.22950194557E+02  0.44989867446E+02  0.00000000000E+00 0. -1.
         -5    1    5    5    0  502 -0.74720870039E+01  0.29565605321E+02  0.52055486714E+03  0.52146851948E+03  0.47000000000E+01 0.  1.
         11    1    6    6    0    0  0.37409443891E+02 -0.92483635672E+02  0.63979144876E+03  0.64752280829E+03  0.00000000000E+00 0. -1.
        -12    1    6    6    0    0  0.15536980123E+02 -0.88286501381E+01  0.19706614454E+02  0.26602508676E+02  0.00000000000E+00 0.  1.
</event>
<event>
12    1  0.8416569E-002  0.3666873E+03  0.7818608E-02  0.1055970E+00
         21   -1    0    0  503  502  0.00000000000E+00  0.00000000000E+00  0.63196992451E+03  0.63196992451E+03  0.00000000000E+00 0.  1.
         21   -1    0    0  501  503 -0.00000000000E+00 -0.00000000000E+00 -0.21338719430E+03  0.21338719430E+03  0.00000000000E+00 0. -1.
          6    2    1    2  501    0 -0.30351774708E+03  0.11282384009E+03  0.18612947340E+03  0.41119805485E+03  0.17200993506E+03 0.  0.
         24    2    3    3    0    0 -0.12468735748E+03  0.32798608183E+02  0.45778249136E+02  0.17014847045E+03  0.10115417979E+03 0.  0.
         -6    2    1    2    0  502  0.30351774708E+03 -0.11282384009E+03  0.23245325681E+03  0.43415906396E+03  0.17206781958E+03 0.  0.
        -24    2    5    5    0    0  0.26046736474E+03 -0.14426156470E+03  0.17015892827E+03  0.35203513738E+03  0.79498615945E+02 0.  0.
          5    1    3    3  501    0 -0.17883038961E+03  0.80025231905E+02  0.14035122427E+03  0.24104958440E+03  0.47000000000E+01 0. -1.
        -11    1    4    4    0    0 -0.98326728551E+01  0.20942694697E+02  0.49482454738E+02  0.54624090322E+02  0.00000000000E+00 0.  1.
         12    1    4    4    0    0 -0.11485468462E+03  0.11855913486E+02 -0.37042056021E+01  0.11552438013E+03  0.00000000000E+00 0. -1.
         -5    1    5    5    0  502  0.43050382344E+02  0.31437724615E+02  0.62294328539E+02  0.82123926581E+02  0.47000000000E+01 0.  1.
         13    1    6    6    0    0  0.18472983657E+03 -0.14024555972E+03  0.12038070215E+03  0.26131483500E+03  0.00000000000E+00 0. -1.
        -14    1    6    6    0    0  0.75737528170E+02 -0.40160049866E+01  0.49778226120E+02  0.90720302386E+02  0.00000000000E+00 0.  1.
</event>
<event>
12    1  0.8416569E-002  0.2160006E+03  0.7818608E-02  0.1137358E+00
         21   -1    0    0  503  502  0.00000000000E+00  0.00000000000E+00  0.19592175505E+03  0.19592175505E+03  0.00000000000E+00 0.  1.
         21   -1    0    0  501  503 -0.00000000000E+00 -0.00000000000E+00 -0.29084834939E+03  0.29084834939E+03  0.00000000000E+00 0.  1.
          6    2    1    2  501    0 -0.11196780554E+02  0.12772923902E+03  0.58905082259E+02  0.22159007439E+03  0.17085732632E+03 0.  0.
         24    2    3    3    0    0  0.56844587095E+02  0.10113804771E+03  0.35362356024E+02  0.14469359121E+03  0.78902010984E+02 0.  0.
         -6    2    1    2    0  502  0.11196780554E+02 -0.12772923902E+03 -0.15383167659E+03  0.26518003005E+03  0.17382789540E+03 0.  0.
        -24    2    5    5    0    0  0.40700922407E+02 -0.65524714495E+02 -0.16132685458E+03  0.19576702730E+03  0.79676355797E+02 0.  0.
          5    1    3    3  501    0 -0.68041367649E+02  0.26591191305E+02  0.23542726236E+02  0.76896483178E+02  0.47000000000E+01 0. -1.
        -13    1    4    4    0    0  0.41807673563E+02  0.68287349850E+02 -0.16241528770E+02  0.81699638770E+02  0.00000000000E+00 0.  1.
         14    1    4    4    0    0  0.15036913532E+02  0.32850697864E+02  0.51603884793E+02  0.62993952444E+02  0.00000000000E+00 0. -1.
         -5    1    5    5    0  502 -0.29504141853E+02 -0.62204524524E+02  0.74951779900E+01  0.69413002750E+02  0.47000000000E+01 0.  1.
         11    1    6    6    0    0  0.38182253502E+02 -0.33173803989E+02 -0.15455231117E+03  0.16261858024E+03  0.00000000000E+00 0. -1.
        -12    1    6    6    0    0  0.25186689050E+01 -0.32350910507E+02 -0.67745434175E+01  0.33148447055E+02  0.00000000000E+00 0.  1.
</event>
<event>
12    1  0.8416569E-002  0.2274431E+03  0.7818608E-02  0.1129056E+00
         21   -1    0    0  503  502  0.00000000000E+00  0.00000000000E+00  0.17313482337E+03  0.17313482337E+03  0.00000000000E+00 0.  1.
         21   -1    0    0  501  503 -0.00000000000E+00 -0.00000000000E+00 -0.30854279023E+03  0.30854279023E+03  0.00000000000E+00 0. -1.
          6    2    1    2  501    0 -0.62946142484E+02  0.13509310452E+03 -0.11879194000E+03  0.25362833180E+03  0.16734228975E+03 0.  0.
         24    2    3    3    0    0 -0.10299815924E+03  0.69978491593E+02 -0.72708064346E+02  0.16424214462E+03  0.78634657478E+02 0.  0.
         -6    2    1    2    0  502  0.62946142484E+02 -0.13509310452E+03 -0.16616026859E+02  0.22804928180E+03  0.17180808723E+03 0.  0.
        -24    2    5    5    0    0  0.11885739766E+02 -0.74281139543E+02 -0.71875449718E+02  0.13119395864E+03  0.79917557580E+02 0.  0.
          5    1    3    3  501    0  0.40052016753E+02  0.65114612931E+02 -0.46083875657E+02  0.89386187181E+02  0.47000000000E+01 0. -1.
        -13    1    4    4    0    0 -0.42412039785E+01  0.10791713319E+02  0.15389712902E+02  0.19268942647E+02  0.00000000000E+00 0.  1.
         14    1    4    4    0    0 -0.98756955259E+02  0.59186778274E+02 -0.88097777247E+02  0.14497320197E+03  0.00000000000E+00 0. -1.
         -5    1    5    5    0  502  0.51060402718E+02 -0.60811964982E+02  0.55259422860E+02  0.96855323166E+02  0.47000000000E+01 0.  1.
         11    1    6    6    0    0  0.21637819764E+02 -0.68289921099E+02 -0.86699518348E+02  0.11246561719E+03  0.00000000000E+00 0. -1.
        -12    1    6    6    0    0 -0.97520799984E+01 -0.59912184439E+01  0.14824068630E+02  0.18728341450E+02  0.00000000000E+00 0.  1.
</event>
<event>
12    1  0.8416569E-002  0.2612154E+03  0.7818608E-02  0.1106423E+00
         21   -1    0    0  501  502  0.00000000000E+00  0.00000000000E+00  0.34064748018E+03  0.34064748018E+03  0.00000000000E+00 0.  1.
         21   -1    0    0  502  503 -0.00000000000E+00 -0.00000000000E+00 -0.45675057687E+03  0.45675057687E+03  0.00000000000E+00 0.  1.
         -6    2    1    2    0  503 -0.83493112402E+02 -0.17760435675E+03 -0.35682372767E+03  0.44221789519E+03  0.17239224706E+03 0.  0.
        -24    2    3    3    0    0 -0.51677102867E+02 -0.12517833317E+03 -0.34582387037E+03  0.37973723201E+03  0.79158562410E+02 0.  0.
          6    2    1    2  501    0  0.83493112402E+02  0.17760435675E+03  0.24072063098E+03  0.35518016186E+03  0.17231400942E+03 0.  0.
         24    2    5    5    0    0  0.44921584700E+02  0.19386895986E+03  0.22248371024E+03  0.30927836079E+03  0.80938129210E+02 0.  0.
          5    1    5    5  501    0  0.38571527702E+02 -0.16264603109E+02  0.18236920742E+02  0.45901801072E+02  0.47000000000E+01 0. -1.
        -11    1    6    6    0    0  0.43663426361E+02  0.10975134989E+03  0.76307876138E+02  0.14062270644E+03  0.00000000000E+00 0.  1.
         12    1    6    6    0    0  0.12581583390E+01  0.84117609967E+02  0.14617583410E+03  0.16865565435E+03  0.00000000000E+00 0. -1.
         -5    1    3    3    0  503 -0.31816009535E+02 -0.52426023576E+02 -0.10999857301E+02  0.62480663180E+02  0.47000000000E+01 0.  1.
         11    1    4    4    0    0 -0.14282649922E+02  0.43917200054E+01 -0.82995280655E+02  0.84329697642E+02  0.00000000000E+00 0. -1.
        -12    1    4    4    0    0 -0.37394452945E+02 -0.12957005318E+03 -0.26282858971E+03  0.29540753437E+03  0.00000000000E+00 0.  1.
</event>
<event>
12    1  0.8416569E-002  0.1973259E+03  0.7818608E-02  0.1152096E+00
         21   -1    0    0  501  502  0.00000000000E+00  0.00000000000E+00  0.59944367061E+03  0.59944367061E+03  0.00000000000E+00 0.  1.
         21   -1    0    0  502  503 -0.00000000000E+00 -0.00000000000E+00 -0.77820975556E+02  0.77820975556E+02  0.00000000000E+00 0.  1.
         -6    2    1    2    0  503 -0.13920555079E+01 -0.96453341317E+02  0.12225725467E+03  0.23180950236E+03  0.17170796194E+03 0.  0.
        -24    2    3    3    0    0  0.91437991390E+01 -0.33474492533E+02 -0.27897478044E+01  0.91323978351E+02  0.84428286823E+02 0.  0.
          6    2    1    2  501    0  0.13920555079E+01  0.96453341317E+02  0.39936544038E+03  0.44545514380E+03  0.17214048130E+03 0.  0.
         24    2    5    5    0    0 -0.26539278032E+02  0.12400388766E+03  0.35955347442E+03  0.38936348105E+03  0.79018491358E+02 0.  0.
          5    1    5    5  501    0  0.27931333540E+02 -0.27550546340E+02  0.39811965959E+02  0.56091662753E+02  0.47000000000E+01 0. -1.
        -13    1    6    6    0    0 -0.84405936246E+01  0.75894539062E+01  0.13771404853E+03  0.13818105005E+03  0.00000000000E+00 0.  1.
         14    1    6    6    0    0 -0.18098684408E+02  0.11641443375E+03  0.22183942589E+03  0.25118243100E+03  0.00000000000E+00 0. -1.
         -5    1    3    3    0  503 -0.10535854647E+02 -0.62978848784E+02  0.12504700248E+03  0.14048552401E+03  0.47000000000E+01 0.  1.
         11    1    4    4    0    0 -0.20655031335E+02 -0.19763869301E+02  0.32405612682E+02  0.43213014041E+02  0.00000000000E+00 0. -1.
        -12    1    4    4    0    0  0.29798830474E+02 -0.13710623232E+02 -0.35195360486E+02  0.48110964310E+02  0.00000000000E+00 0.  1.
</event>
<event>
12    1  0.8416569E-002  0.1869527E+03  0.7818608E-02  0.1161257E+00
         21   -1    0    0  501  502  0.00000000000E+00  0.00000000000E+00  0.31080702124E+03  0.31080702124E+03  0.00000000000E+00 0. -1.
         21   -1    0    0  502  503 -0.00000000000E+00 -0.00000000000E+00 -0.11410581538E+03  0.11410581538E+03  0.00000000000E+00 0. -1.
         -6    2    1    2    0  503 -0.40910472642E+02  0.60637615554E+02  0.72394341965E+02  0.20040555706E+03  0.17196179622E+03 0.  0.
        -24    2    3    3    0    0  0.20236777199E+02  0.86651348397E+02  0.56952493578E+02  0.13202250988E+03  0.79173058933E+02 0.  0.
          6    2    1    2  501    0  0.40910472642E+02 -0.60637615554E+02  0.12430686390E+03  0.22450727956E+03  0.17204864129E+03 0.  0.
         24    2    5    5    0    0 -0.10179411510E+02 -0.94586944783E+02  0.87525089125E+02  0.15282937381E+03  0.81522179371E+02 0.  0.
          5    1    5    5  501    0  0.51089884153E+02  0.33949329229E+02  0.36781774778E+02  0.71677905757E+02  0.47000000000E+01 0. -1.
        -13    1    6    6    0    0 -0.69219481427E+01 -0.60251295379E+02  0.20769943928E+01  0.60683159662E+02  0.00000000000E+00 0.  1.
         14    1    6    6    0    0 -0.32574633677E+01 -0.34335649404E+02  0.85448094732E+02  0.92146214143E+02  0.00000000000E+00 0. -1.
         -5    1    3    3    0  503 -0.61147249841E+02 -0.26013732842E+02  0.15441848387E+02  0.68383047176E+02  0.47000000000E+01 0.  1.
         11    1    4    4    0    0 -0.46947306544E+01  0.91981468134E+02  0.52886176344E+02  0.10620536062E+03  0.00000000000E+00 0. -1.
        -12    1    4    4    0    0  0.24931507853E+02 -0.53301197377E+01  0.40663172338E+01  0.25817149263E+02  0.00000000000E+00 0.  1.
</event>
<event>
12    1  0.8416569E-002  0.2282953E+03  0.7818608E-02  0.1128051E+00
         21   -1    0    0  503  502  0.00000000000E+00  0.00000000000E+00  0.11466398329E+04  0.11466398329E+04  0.00000000000E+00 0.  1.
         21   -1    0    0  501  503 -0.00000000000E+00 -0.00000000000E+00 -0.56632121296E+02  0.56632121296E+02  0.00000000000E+00 0. -1.
          6    2    1    2  501    0  0.38761851592E+02  0.14228557227E+03  0.27608228676E+03  0.35824598270E+03  0.17427303247E+03 0.  0.
         24    2    3    3    0    0 -0.15294808970E+02  0.77089125949E+02  0.59954943356E+02  0.12606971835E+03  0.78245217940E+02 0.  0.
         -6    2    1    2    0  502 -0.38761851592E+02 -0.14228557227E+03  0.81392542482E+03  0.84502597147E+03  0.17276177260E+03 0.  0.
        -24    2    5    5    0    0  0.88424908468E+01 -0.10784674210E+03  0.28682452485E+03  0.31463964511E+03  0.70856818943E+02 0.  0.
          5    1    3    3  501    0  0.54056660562E+02  0.65196446318E+02  0.21612734340E+03  0.23217626435E+03  0.47000000000E+01 0. -1.
        -11    1    4    4    0    0 -0.40537735053E+02  0.17976790731E+02  0.12193444661E+02  0.45990793219E+02  0.00000000000E+00 0.  1.
         12    1    4    4    0    0  0.25242926083E+02  0.59112335218E+02  0.47761498694E+02  0.80078925128E+02  0.00000000000E+00 0. -1.
         -5    1    5    5    0  502 -0.47604342438E+02 -0.34438830164E+02  0.52710089997E+03  0.53038632636E+03  0.47000000000E+01 0.  1.
         11    1    6    6    0    0  0.28336967900E+02 -0.47873978015E+02  0.73441972609E+02  0.92133733570E+02  0.00000000000E+00 0. -1.
        -12    1    6    6    0    0 -0.19494477054E+02 -0.59972764088E+02  0.21338255224E+03  0.22250591154E+03  0.00000000000E+00 0.  1.
</event>
<event>
12    1  0.8416569E-002  0.1938998E+03  0.7818608E-02  0.1155375E+00
         21   -1    0    0  501  502  0.00000000000E+00  0.00000000000E+00  0.39809854588E+02  0.39809854588E+02  0.00000000000E+00 0. -1.
         21   -1    0    0  502  503 -0.00000000000E+00 -0.00000000000E+00 -0.15367242338E+04  0.15367242338E+04  0.00000000000E+00 0.  1.
         -6    2    1    2    0  503 -0.79965671857E+02 -0.35435545377E+02 -0.12392644202E+04  0.12540737772E+04  0.17109806808E+03 0.  0.
        -24    2    3    3    0    0  0.76497053461E+01 -0.50092124308E+02 -0.56063403316E+03  0.56963783289E+03  0.87229597128E+02 0.  0.
          6    2    1    2  501    0  0.79965671857E+02  0.35435545377E+02 -0.25764995898E+03  0.32246031117E+03  0.17305191234E+03 0.  0.
         24    2    5    5    0    0 -0.25045450763E+02  0.16349666093E+02 -0.99381422563E+02  0.13150841597E+03  0.80766392357E+02 0.  0.
          5    1    5    5  501    0  0.10501112262E+03  0.19085879284E+02 -0.15826853642E+03  0.19095189521E+03  0.47000000000E+01 0. -1.
        -13    1    6    6    0    0 -0.66438796575E+01  0.17309061429E+02 -0.10910816522E+03  0.11067220275E+03  0.00000000000E+00 0.  1.
         14    1    6    6    0    0 -0.18401571105E+02 -0.95939533645E+00  0.97267426548E+01  0.20836213217E+02  0.00000000000E+00 0. -1.
         -5    1    3    3    0  503 -0.87615377203E+02  0.14656578932E+02 -0.67863038705E+03  0.68443594431E+03  0.47000000000E+01 0.  1.
         13    1    4    4    0    0 -0.90273256165E+01 -0.96829694507E+01 -0.84047127856E+01  0.15680934353E+02  0.00000000000E+00 0. -1.
        -14    1    4    4    0    0  0.16677030963E+02 -0.40409154858E+02 -0.55222932037E+03  0.55395689854E+03  0.00000000000E+00 0.  1.
</event>
<event>
12    1  0.8416569E-002  0.2467700E+03  0.7818608E-02  0.1115432E+00
         21   -1    0    0  501  502  0.00000000000E+00  0.00000000000E+00  0.33479741258E+02  0.33479741258E+02  0.00000000000E+00 0.  1.
         21   -1    0    0  502  503 -0.00000000000E+00 -0.00000000000E+00 -0.28331708547E+04  0.28331708547E+04  0.00000000000E+00 0. -1.
         -6    2    1    2    0  503  0.13766813619E+03  0.10977313286E+03 -0.22595646644E+04  0.22729997595E+04  0.17289528016E+03 0.  0.
        -24    2    3    3    0    0  0.16464624019E+03  0.65093556404E+02 -0.18067348103E+04  0.18171477557E+04  0.79935823112E+02 0.  0.
          6    2    1    2  501    0 -0.13766813619E+03 -0.10977313286E+03 -0.54012644909E+03  0.59365083646E+03  0.17228487512E+03 0.  0.
         24    2    5    5    0    0 -0.10875556681E+03 -0.27170816258E+01 -0.29957599298E+03  0.32872906175E+03  0.80510028120E+02 0.  0.
          5    1    5    5  501    0 -0.28912569376E+02 -0.10705605123E+03 -0.24055045612E+03  0.26492177470E+03  0.47000000000E+01 0. -1.
        -11    1    6    6    0    0 -0.53838529577E+02  0.27193467090E+02 -0.78604279530E+02  0.99079284817E+02  0.00000000000E+00 0.  1.
         12    1    6    6    0    0 -0.54917037235E+02 -0.29910548716E+02 -0.22097171345E+03  0.22964977694E+03  0.00000000000E+00 0. -1.
         -5    1    3    3    0  503 -0.26978104005E+02  0.44679576457E+02 -0.45282985410E+03  0.45585200385E+03  0.47000000000E+01 0.  1.
         13    1    4    4    0    0  0.12101361371E+03  0.93161872576E+01 -0.10083041463E+04  0.10155827575E+04  0.00000000000E+00 0. -1.
        -14    1    4    4    0    0  0.43632626487E+02  0.55777369146E+02 -0.79843066403E+03  0.80156499815E+03  0.00000000000E+00 0.  1.
</event>
<event>
12    1  0.8416569E-002  0.2158543E+03  0.7818608E-02  0.1137361E+00
         21   -1    0    0  503  502  0.00000000000E+00  0.00000000000E+00  0.23659759635E+03  0.23659759635E+03  0.00000000000E+00 0.  1.
         21   -1    0    0  501  503 -0.00000000000E+00 -0.00000000000E+00 -0.19693688742E+03  0.19693688742E+03  0.00000000000E+00 0.  1.
          6    2    1    2  501    0 -0.12225140159E+03 -0.39769528724E+02  0.39818954869E+02  0.21949626518E+03  0.17339561891E+03 0.  0.
         24    2    3    3    0    0 -0.25567336424E+02  0.82643549168E+01  0.68043723186E+02  0.10781014258E+03  0.79190216092E+02 0.  0.
         -6    2    1    2    0  502  0.12225140159E+03  0.39769528724E+02 -0.15824593677E+00  0.21403821858E+03  0.17112952219E+03 0.  0.
        -24    2    5    5    0    0  0.65713327706E+02  0.63749516177E+02 -0.53230059007E+02  0.13273446135E+03  0.80017221877E+02 0.  0.
          5    1    3    3  501    0 -0.96684065168E+02 -0.48033883641E+02 -0.28224768317E+02  0.11168612260E+03  0.47000000000E+01 0. -1.
        -11    1    4    4    0    0 -0.23059201833E+02 -0.30950271187E+02  0.14140898061E+02  0.41104878953E+02  0.00000000000E+00 0.  1.
         12    1    4    4    0    0 -0.25081345909E+01  0.39214626104E+02  0.53902825124E+02  0.66705263630E+02  0.00000000000E+00 0. -1.
         -5    1    5    5    0  502  0.56538073886E+02 -0.23979987453E+02  0.53071813070E+02  0.81303757229E+02  0.47000000000E+01 0.  1.
         13    1    6    6    0    0  0.36603050030E+02 -0.12530134252E+02 -0.83957817259E+01  0.39588845482E+02  0.00000000000E+00 0. -1.
        -14    1    6    6    0    0  0.29110277677E+02  0.76279650429E+02 -0.44834277281E+02  0.93145615867E+02  0.00000000000E+00 0.  1.
</event>
<event>
12    1  0.8416569E-002  0.2227318E+03  0.7818608E-02  0.1134598E+00
         21   -1    0    0  503  502  0.00000000000E+00  0.00000000000E+00  0.17008000586E+03  0.17008000586E+03  0.00000000000E+00 0. -1.
         21   -1    0    0  501  503 -0.00000000000E+00 -0.00000000000E+00 -0.46310748559E+03  0.46310748559E+03  0.00000000000E+00 0. -1.
          6    2    1    2  501    0 -0.89772342034E+02 -0.74687078526E+02 -0.34633057553E+03  0.40416639388E+03  0.17253513642E+03 0.  0.
         24    2    3    3    0    0 -0.87499568142E+02 -0.31207029821E+02 -0.33809691423E+03  0.35960673370E+03  0.79858790220E+02 0.  0.
         -6    2    1    2    0  502  0.89772342034E+02  0.74687078526E+02  0.53303095804E+02  0.22902109756E+03  0.18966341242E+03 0.  0.
        -24    2    5    5    0    0  0.85371413066E+02  0.74438167323E+01 -0.32015130660E+02  0.12019870005E+03  0.77968393126E+02 0.  0.
          5    1    3    3  501    0 -0.22727738922E+01 -0.43480048705E+02 -0.82336612991E+01  0.44559660175E+02  0.47000000000E+01 0. -1.
        -13    1    4    4    0    0 -0.33475594698E+02 -0.13494712520E+02 -0.31879610593E+02  0.48156331650E+02  0.00000000000E+00 0.  1.
         14    1    4    4    0    0 -0.54023973444E+02 -0.17712317301E+02 -0.30621730364E+03  0.31145040205E+03  0.00000000000E+00 0. -1.
         -5    1    5    5    0  502  0.44009289681E+01  0.67243261794E+02  0.85318226464E+02  0.10882239751E+03  0.47000000000E+01 0.  1.
         13    1    6    6    0    0  0.60820145729E+02 -0.28701354031E+02 -0.21760899989E+01  0.67287392707E+02  0.00000000000E+00 0. -1.
        -14    1    6    6    0    0  0.24551267337E+02  0.36145170763E+02 -0.29839040662E+02  0.52911307345E+02  0.00000000000E+00 0.  1.
</event>
<event>
12    1  0.8416569E-002  0.1960007E+03  0.7818608E-02  0.1153354E+00
         21   -1    0    0  503  502  0.00000000000E+00  0.00000000000E+00  0.25127385016E+03  0.25127385016E+03  0.00000000000E+00 0.  1.
         21   -1    0    0  501  503 -0.00000000000E+00 -0.00000000000E+00 -0.42428692123E+03  0.42428692123E+03  0.00000000000E+00 0.  1.
          6    2    1    2  501    0 -0.58872626389E+02 -0.69270275584E+02 -0.35708156024E+03  0.40733710179E+03  0.17364307244E+03 0.  0.
         24    2    3    3    0    0 -0.93870046628E+02 -0.77468946919E+02 -0.33399533651E+03  0.36435918465E+03  0.79948153441E+02 0.  0.
         -6    2    1    2    0  502  0.58872626389E+02  0.69270275584E+02  0.18406848917E+03  0.26822366960E+03  0.17262204671E+03 0.  0.
        -24    2    5    5    0    0  0.96251947632E+02  0.17130508861E+02  0.92844659380E+02  0.15660088495E+03  0.79660621616E+02 0.  0.
          5    1    3    3  501    0  0.34997420238E+02  0.81986713345E+01 -0.23086223739E+02  0.42977917138E+02  0.47000000000E+01 0. -1.
        -11    1    4    4    0    0 -0.27201162213E+02 -0.59088455873E+02 -0.91982347815E+02  0.11265922578E+03  0.00000000000E+00 0.  1.
         12    1    4    4    0    0 -0.66668884414E+02 -0.18380491046E+02 -0.24201298869E+03  0.25169995887E+03  0.00000000000E+00 0. -1.
         -5    1    5    5    0  502 -0.37379321243E+02  0.52139766723E+02  0.91223829791E+02  0.11162278465E+03  0.47000000000E+01 0.  1.
         13    1    6    6    0    0  0.14963252854E+02 -0.23960390928E+02  0.25797022980E+01  0.28366426164E+02  0.00000000000E+00 0. -1.
        -14    1    6    6    0    0  0.81288694778E+02  0.41090899789E+02  0.90264957082E+02  0.12823445879E+03  0.00000000000E+00 0.  1.
</event>
<event>
12    1  0.8416569E-002  0.3255556E+03  0.7818608E-02  0.1073245E+00
         21   -1    0    0  501  502  0.00000000000E+00  0.00000000000E+00  0.18246525566E+04  0.18246525566E+04  0.00000000000E+00 0. -1.
         21   -1    0    0  502  503 -0.00000000000E+00 -0.00000000000E+00 -0.89204032667E+02  0.89204032667E+02  0.00000000000E+00 0.  1.
         -6    2    1    2    0  503 -0.10068368644E+03 -0.25613293299E+03  0.29979487478E+03  0.44175338252E+03  0.17183655008E+03 0.  0.
        -24    2    3    3    0    0 -0.31482558805E+02 -0.44279897642E+02  0.14730839918E+03  0.17167058060E+03  0.69420191082E+02 0.  0.
          6    2    1    2  501    0  0.10068368644E+03  0.25613293299E+03  0.14356536491E+04  0.14721032067E+04  0.17391137661E+03 0.  0.
         24    2    5    5    0    0 -0.55260743721E+01  0.15256604770E+03  0.89826450034E+03  0.91459464154E+03  0.79355588021E+02 0.  0.
          5    1    5    5  501    0  0.10620976082E+03  0.10356688529E+03  0.53738914880E+03  0.55750856519E+03  0.47000000000E+01 0. -1.
        -11    1    6    6    0    0 -0.25083159868E+02  0.89647725341E+02  0.34205039729E+03  0.35449168376E+03  0.00000000000E+00 0.  1.
         12    1    6    6    0    0  0.19557085496E+02  0.62918322362E+02  0.55621410305E+03  0.56010295778E+03  0.00000000000E+00 0. -1.
         -5    1    3    3    0  503 -0.69201127638E+02 -0.21185303535E+03  0.15248647560E+03  0.27008280192E+03  0.47000000000E+01 0.  1.
         11    1    4    4    0    0 -0.41686305552E+02 -0.45102250248E+02  0.67701427756E+02  0.91408119816E+02  0.00000000000E+00 0. -1.
        -12    1    4    4    0    0  0.10203746747E+02  0.82235260612E+00  0.79606971427E+02  0.80262460785E+02  0.00000000000E+00 0.  1.
</event>
<event>
12    1  0.8416569E-002  0.1863637E+03  0.7818608E-02  0.1162074E+00
         21   -1    0    0  501  502  0.00000000000E+00  0.00000000000E+00  0.27410372207E+03  0.27410372207E+03  0.00000000000E+00 0.  1.
         21   -1    0    0  502  503 -0.00000000000E+00 -0.00000000000E+00 -0.19355895986E+03  0.19355895986E+03  0.00000000000E+00 0.  1.
         -6    2    1    2    0  503 -0.70024074967E+02  0.18286592113E+01 -0.97931041563E+02  0.21052772497E+03  0.17269834686E+03 0.  0.
        -24    2    3    3    0    0 -0.60160697172E+02  0.10817311500E+02  0.10879467216E+02  0.10080125181E+03  0.79411622868E+02 0.  0.
          6    2    1    2  501    0  0.70024074967E+02 -0.18286592113E+01  0.17847580377E+03  0.25713495696E+03  0.17134193442E+03 0.  0.
         24    2    5    5    0    0  0.25839745494E+02  0.47548387151E+02  0.16405317907E+03  0.18916106652E+03  0.77070889166E+02 0.  0.
          5    1    5    5  501    0  0.44184329473E+02 -0.49377046362E+02  0.14422624699E+02  0.67973890441E+02  0.47000000000E+01 0. -1.
        -13    1    6    6    0    0 -0.20751256009E+02  0.85166805899E+01  0.92960078162E+02  0.95628053448E+02  0.00000000000E+00 0.  1.
         14    1    6    6    0    0  0.46591001503E+02  0.39031706561E+02  0.71093100908E+02  0.93533013074E+02  0.00000000000E+00 0. -1.
         -5    1    3    3    0  503 -0.98633777948E+01 -0.89886522888E+01 -0.10881050878E+03  0.10972647316E+03  0.47000000000E+01 0.  1.
         11    1    4    4    0    0 -0.25503989156E+02 -0.26450148542E+02 -0.19433490827E+02  0.41565904134E+02  0.00000000000E+00 0. -1.
        -12    1    4    4    0    0 -0.34656708017E+02  0.37267460042E+02  0.30312958043E+02  0.59235347672E+02  0.00000000000E+00 0.  1.
</event>
<event>
12    1  0.8416569E-002  0.3825514E+03  0.7818608E-02  0.1049999E+00
         21   -1    0    0  501  502  0.00000000000E+00  0.00000000000E+00  0.15704167312E+03  0.15704167312E+03  0.00000000000E+00 0. -1.
         21   -1    0    0  502  503 -0.00000000000E+00 -0.00000000000E+00 -0.16257121524E+04  0.16257121524E+04  0.00000000000E+00 0. -1.
         -6    2    1    2    0  503 -0.15972570842E+03 -0.30212413712E+03 -0.13166789773E+04  0.13711143969E+04  0.17181345648E+03 0.  0.
        -24    2    3    3    0    0 -0.28721415277E+02 -0.15036683279E+03 -0.45917857786E+03  0.49047745163E+03  0.79297289352E+02 0.  0.
          6    2    1    2  501    0  0.15972570842E+03  0.30212413712E+03 -0.15199150202E+03  0.41163942870E+03  0.17191365977E+03 0.  0.
         24    2    5    5    0    0  0.11576568730E+03  0.14826727044E+03 -0.21455210029E+02  0.20508136808E+03  0.78823623719E+02 0.  0.
          5    1    5    5  501    0  0.43960021116E+02  0.15385686669E+03 -0.13053629199E+03  0.20655806062E+03  0.47000000000E+01 0. -1.
        -11    1    6    6    0    0 -0.30154809547E+01 -0.36770405895E+01  0.86617601417E+01  0.98812874484E+01  0.00000000000E+00 0.  1.
         12    1    6    6    0    0  0.11878116826E+03  0.15194431103E+03 -0.30116970171E+02  0.19520008063E+03  0.00000000000E+00 0. -1.
         -5    1    3    3    0  503 -0.13100429314E+03 -0.15175730433E+03 -0.85750039946E+03  0.88063694523E+03  0.47000000000E+01 0.  1.
         13    1    4    4    0    0 -0.47706648948E+02 -0.11401120959E+03 -0.39859988886E+03  0.41732044242E+03  0.00000000000E+00 0. -1.
        -14    1    4    4    0    0  0.18985233671E+02 -0.36355623198E+02 -0.60578688998E+02  0.73157009208E+02  0.00000000000E+00 0.  1.
</event>
<event>
12    1  0.8416569E-002  0.1917367E+03  0.7818608E-02  0.1158865E+00
         21   -1    0    0  503  502  0.00000000000E+00  0.00000000000E+00  0.33561762187E+02  0.33561762187E+02  0.00000000000E+00 0.  1.
         21   -1    0    0  501  503 -0.00000000000E+00 -0.00000000000E+00 -0.11207167078E+04  0.11207167078E+04  0.00000000000E+00 0.  1.
          6    2    1    2  501    0  0.39948679441E+02 -0.47622001576E+02 -0.68005688971E+03  0.70428758292E+03  0.17227847859E+03 0.  0.
         24    2    3    3    0    0  0.70192031381E+02  0.19137628365E+01 -0.56847567770E+03  0.57842690929E+03  0.80514032906E+02 0.  0.
         -6    2    1    2    0  502 -0.39948679441E+02  0.47622001576E+02 -0.40709805592E+03  0.44999088708E+03  0.18138141940E+03 0.  0.
        -24    2    5    5    0    0  0.66202451241E+01 -0.39620769909E-01 -0.35867236818E+03  0.36748372247E+03  0.79715678325E+02 0.  0.
          5    1    3    3  501    0 -0.30243351940E+02 -0.49535764413E+02 -0.11158121201E+03  0.12586067363E+03  0.47000000000E+01 0. -1.
        -11    1    4    4    0    0  0.21175635310E+02 -0.14596254218E+02 -0.42732519592E+03  0.42809844806E+03  0.00000000000E+00 0.  1.
         12    1    4    4    0    0  0.49016396071E+02  0.16510017054E+02 -0.14115048178E+03  0.15032846123E+03  0.00000000000E+00 0. -1.
         -5    1    5    5    0  502 -0.46568924565E+02  0.47661622346E+02 -0.48425687740E+02  0.82507164615E+02  0.47000000000E+01 0.  1.
         13    1    6    6    0    0 -0.25081415745E+02 -0.27118352276E+02 -0.20252444725E+03  0.20586557308E+03  0.00000000000E+00 0. -1.
        -14    1    6    6    0    0  0.31701660869E+02  0.27078731507E+02 -0.15614792093E+03  0.16161814939E+03  0.00000000000E+00 0.  1.
</event>
<event>
12    1  0.8416569E-002  0.1923274E+03  0.7818608E-02  0.1156680E+00
         21   -1    0    0  503  502  0.00000000000E+00  0.00000000000E+00  0.15113817302E+03  0.15113817302E+03  0.00000000000E+00 0.  1.
         21   -1    0    0  501  503 -0.00000000000E+00 -0.00000000000E+00 -0.45701288177E+03  0.45701288177E+03  0.00000000000E+00 0.  1.
          6    2    1    2  501    0 -0.72828516050E+02  0.43536025273E+02 -0.36129669168E+03  0.40929833399E+03  0.17259909773E+03 0.  0.
         24    2    3    3    0    0 -0.52642420365E+02  0.92931435246E+02 -0.29802015117E+03  0.32639238991E+03  0.79426101530E+02 0.  0.
         -6    2    1    2    0  502  0.72828516050E+02 -0.43536025273E+02  0.55421982932E+02  0.19885272080E+03  0.17108895386E+03 0.  0.
        -24    2    5    5    0    0  0.51017213996E+02  0.22664372922E+02 -0.14415462135E+02  0.10007223512E+03  0.81793745295E+02 0.  0.
          5    1    3    3  501    0 -0.20186095685E+02 -0.49395409972E+02 -0.63276540510E+02  0.82905944083E+02  0.47000000000E+01 0. -1.
        -11    1    4    4    0    0 -0.21092663727E+02  0.61414336855E+02 -0.25938337095E+03  0.26738802209E+03  0.00000000000E+00 0.  1.
         12    1    4    4    0    0 -0.31549756638E+02  0.31517098391E+02 -0.38636780228E+02  0.59004367815E+02  0.00000000000E+00 0. -1.
         -5    1    5    5    0  502  0.21811302053E+02 -0.66200398195E+02  0.69837445067E+02  0.98780485684E+02  0.47000000000E+01 0.  1.
         13    1    6    6    0    0  0.19665939238E+02  0.17070086456E+02 -0.47487943013E+02  0.54159410533E+02  0.00000000000E+00 0. -1.
        -14    1    6    6    0    0  0.31351274759E+02  0.55942864658E+01  0.33072480878E+02  0.45912824586E+02  0.00000000000E+00 0.  1.
</event>
<event>
12    1  0.8416569E-002  0.2141315E+03  0.7818608E-02  0.1138421E+00
         21   -1    0    0  503  502  0.00000000000E+00  0.00000000000E+00  0.86224013366E+03  0.86224013366E+03  0.00000000000E+00 0.  1.
         21   -1    0    0  501  503 -0.00000000000E+00 -0.00000000000E+00 -0.57264260899E+02  0.57264260899E+02  0.00000000000E+00 0.  1.
          6    2    1    2  501    0  0.12240115069E+03  0.30065346991E+02  0.27841800518E+03  0.35123908854E+03  0.17310789968E+03 0.  0.
         24    2    3    3    0    0  0.10036505974E+03  0.86004727389E+02  0.20570231953E+03  0.25676970449E+03  0.78404582348E+02 0.  0.
         -6    2    1    2    0  502 -0.12240115069E+03 -0.30065346991E+02  0.52655786758E+03  0.56826530602E+03  0.17255811581E+03 0.  0.
        -24    2    5    5    0    0 -0.15166586001E+03 -0.25485289378E+02  0.49437584203E+03  0.52427470579E+03  0.82489156181E+02 0.  0.
          5    1    3    3  501    0  0.22036090949E+02 -0.55939380398E+02  0.72715685651E+02  0.94469384053E+02  0.47000000000E+01 0. -1.
        -13    1    4    4    0    0  0.99790230278E+02  0.71606852108E+02  0.12668886040E+03  0.17645310617E+03  0.00000000000E+00 0.  1.
         14    1    4    4    0    0  0.57482946387E+00  0.14397875281E+02  0.79013459135E+02  0.80316598322E+02  0.00000000000E+00 0. -1.
         -5    1    5    5    0  502  0.29264709322E+02 -0.45800576129E+01  0.32182025556E+02  0.43990600227E+02  0.47000000000E+01 0.  1.
         13    1    6    6    0    0 -0.35387873570E+00  0.15240653586E+02  0.76075383339E+02  0.77587799956E+02  0.00000000000E+00 0. -1.
        -14    1    6    6    0    0 -0.15131198128E+03 -0.40725942964E+02  0.41830045869E+03  0.44668690584E+03  0.00000000000E+00 0.  1.
</event>
<event>
12    1  0.8416569E-002  0.3497474E+03  0.7818608E-02  0.1063658E+00
         21   -1    0    0  503  502  0.00000000000E+00  0.00000000000E+00  0.21266994255E+03  0.21266994255E+03  0.00000000000E+00 0.  1.
         21   -1    0    0  501  503 -0.00000000000E+00 -0.00000000000E+00 -0.56141214063E+03  0.56141214063E+03  0.00000000000E+00 0. -1.
          6    2    1    2  501    0  0.29199602010E+03 -0.88923663922E+02 -0.16058573960E+03  0.38485198602E+03  0.17074594468E+03 0.  0.
         24    2    3    3    0    0  0.18675357370E+03 -0.46517405536E+02 -0.17292621334E+03  0.27062133967E+03  0.79320034786E+02 0.  0.
         -6    2    1    2    0  502 -0.29199602010E+03  0.88923663922E+02 -0.18815645848E+03  0.38923009716E+03  0.15142034839E+03 0.  0.
        -24    2    5    5    0    0 -0.26579376162E+03  0.71390760332E+02 -0.11355702618E+03  0.30810595551E+03  0.79316563523E+02 0.  0.
          5    1    3    3  501    0  0.10524244640E+03 -0.42406258386E+02  0.12340473736E+02  0.11423064636E+03  0.47000000000E+01 0. -1.
        -11    1    4    4    0    0  0.79767567251E+02  0.17476425281E+02 -0.86324439813E+02  0.11882844413E+03  0.00000000000E+00 0.  1.
         12    1    4    4    0    0  0.10698600644E+03 -0.63993830817E+02 -0.86601773523E+02  0.15179289553E+03  0.00000000000E+00 0. -1.
         -5    1    5    5    0  502 -0.26202258478E+02  0.17532903590E+02 -0.74599432309E+02  0.81124141650E+02  0.47000000000E+01 0.  1.
         11    1    6    6    0    0 -0.46064225983E+02  0.28911873678E+02  0.54069923978E+01  0.54653864656E+02  0.00000000000E+00 0. -1.
        -12    1    6    6    0    0 -0.21972953563E+03  0.42478886654E+02 -0.11896401857E+03  0.25345209085E+03  0.00000000000E+00 0.  1.
</event>
<event>
12    1  0.8416569E-002  0.2555146E+03  0.7818608E-02  0.1109978E+00
         21   -1    0    0  503  502  0.00000000000E+00  0.00000000000E+00  0.44795851405E+02  0.44795851405E+02  0.00000000000E+00 0.  1.
         21   -1    0    0  501  503 -0.00000000000E+00 -0.00000000000E+00 -0.20279105755E+04  0.20279105755E+04  0.00000000000E+00 0. -1.
          6    2    1    2  501    0 -0.70385867132E+01 -0.18873700505E+03 -0.15421816586E+04  0.15630892611E+04  0.17103383031E+03 0.  0.
         24    2    3    3    0    0 -0.25714392110E+02 -0.34393803791E+02 -0.37110994741E+03  0.38173340771E+03  0.78445125988E+02 0.  0.
         -6    2    1    2    0  502  0.70385867132E+01  0.18873700505E+03 -0.44093306550E+03  0.50961716586E+03  0.17209441800E+03 0.  0.
        -24    2    5    5    0    0  0.42992113049E+02  0.36981866802E+02 -0.17133011765E+03  0.19812058878E+03  0.81742144750E+02 0.  0.
          5    1    3    3  501    0  0.18675805396E+02 -0.15434320126E+03 -0.11710717112E+04  0.11813558533E+04  0.47000000000E+01 0. -1.
        -13    1    4    4    0    0 -0.40022714936E+02 -0.47426567097E+02 -0.19680435017E+03  0.20635660693E+03  0.00000000000E+00 0.  1.
         14    1    4    4    0    0  0.14308322827E+02  0.13032763306E+02 -0.17430559724E+03  0.17537680078E+03  0.00000000000E+00 0. -1.
         -5    1    5    5    0  502 -0.35953526336E+02  0.15175513825E+03 -0.26960294785E+03  0.31149657708E+03  0.47000000000E+01 0.  1.
         13    1    6    6    0    0  0.10779852848E+00  0.18104189922E+02 -0.14132788470E+03  0.14248278600E+03  0.00000000000E+00 0. -1.
        -14    1    6    6    0    0  0.42884314521E+02  0.18877676881E+02 -0.30002232956E+02  0.55637802784E+02  0.00000000000E+00 0.  1.
</event>
<event>
12    1  0.8416569E-002  0.1940530E+03  0.7818608E-02  0.1155075E+00
         21   -1    0    0  501  502  0.00000000000E+00  0.00000000000E+00  0.17907041206E+03  0.17907041206E+03  0.00000000000E+00 0.  1.
         21   -1    0    0  502  503 -0.00000000000E+00 -0.00000000000E+00 -0.24697442074E+03  0.24697442074E+03  0.00000000000E+00 0.  1.
         -6    2    1    2    0  503  0.66098304226E+02  0.57545141140E+02 -0.11717813002E+03  0.22583367961E+03  0.17201659106E+03 0.  0.
        -24    2    3    3    0    0 -0.24053191110E+02  0.11275553747E+02 -0.28020484948E+02  0.90780569668E+02  0.82160027614E+02 0.  0.
          6    2    1    2  501    0 -0.66098304226E+02 -0.57545141140E+02  0.49274121347E+02  0.20021115320E+03  0.17313618264E+03 0.  0.
         24    2    5    5    0    0 -0.32416092505E+02  0.31322622763E+02 -0.22278171680E+01  0.92014524236E+02  0.80186032144E+02 0.  0.
          5    1    5    5  501    0 -0.33682211720E+02 -0.88867763903E+02  0.51501938515E+02  0.10819662896E+03  0.47000000000E+01 0. -1.
        -13    1    6    6    0    0 -0.33447604184E+01  0.15895870879E+02  0.37238133491E+02  0.40626896499E+02  0.00000000000E+00 0.  1.
         14    1    6    6    0    0 -0.29071332087E+02  0.15426751883E+02 -0.39465950659E+02  0.51387627737E+02  0.00000000000E+00 0. -1.
         -5    1    3    3    0  503  0.90151495336E+02  0.46269587393E+02 -0.89157645073E+02  0.13505310994E+03  0.47000000000E+01 0.  1.
         11    1    4    4    0    0 -0.39900753387E+02 -0.20582316740E+01 -0.47692359136E+02  0.62216296566E+02  0.00000000000E+00 0. -1.
        -12    1    4    4    0    0  0.15847562276E+02  0.13333785421E+02  0.19671874188E+02  0.28564273102E+02  0.00000000000E+00 0.  1.
</event>
<event>
12    1  0.8416569E-002  0.3831957E+03  0.7818608E-02  0.1049763E+00
         21   -1    0    0  503  502  0.00000000000E+00  0.00000000000E+00  0.47460650860E+03  0.47460650860E+03  0.00000000000E+00 0.  1.
         21   -1    0    0  501  503 -0.00000000000E+00 -0.00000000000E+00 -0.42308166830E+03  0.42308166830E+03  0.00000000000E+00 0. -1.
          6    2    1    2  501    0 -0.18723549702E+03 -0.28670951952E+03 -0.20694765476E+03  0.43546851760E+03  0.17188955198E+03 0.  0.
         24    2    3    3    0    0 -0.16402580014E+03 -0.13190914025E+03 -0.10523832597E+03  0.24873682502E+03  0.80563133467E+02 0.  0.
         -6    2    1    2    0  502  0.18723549702E+03  0.28670951952E+03  0.25847249506E+03  0.46221965929E+03  0.17198692626E+03 0.  0.
        -24    2    5    5    0    0  0.58923650916E+02  0.66992596006E+02  0.39967812365E+02  0.12680075301E+03  0.80752711299E+02 0.  0.
          5    1    3    3  501    0 -0.23209696885E+02 -0.15480037927E+03 -0.10170932879E+03  0.18673169258E+03  0.47000000000E+01 0. -1.
        -11    1    4    4    0    0 -0.81150768276E+02 -0.11374891371E+03 -0.55192032764E+02  0.15023456008E+03  0.00000000000E+00 0.  1.
         12    1    4    4    0    0 -0.82875031862E+02 -0.18160226543E+02 -0.50046293206E+02  0.98502264938E+02  0.00000000000E+00 0. -1.
         -5    1    5    5    0  502  0.12831184611E+03  0.21971692352E+03  0.21850468269E+03  0.33541890628E+03  0.47000000000E+01 0.  1.
         13    1    6    6    0    0  0.22519794900E+02  0.17565717406E+02  0.56429740676E+02  0.63245641929E+02  0.00000000000E+00 0. -1.
        -14    1    6    6    0    0  0.36403856016E+02  0.49426878600E+02 -0.16461928311E+02  0.63555111083E+02  0.00000000000E+00 0.  1.
</event>
<event>
12    1  0.8416569E-002  0.1773320E+03  0.7818608E-02  0.1170853E+00
         21   -1    0    0  501  502  0.00000000000E+00  0.00000000000E+00  0.97097894381E+02  0.97097894381E+02  0.00000000000E+00 0. -1.
         21   -1    0    0  502  503 -0.00000000000E+00 -0.00000000000E+00 -0.34403828898E+03  0.34403828898E+03  0.00000000000E+00 0. -1.
         -6    2    1    2    0  503  0.39823071691E+02  0.79395087914E+01 -0.66498725911E+02  0.18939034586E+03  0.17262013127E+03 0.  0.
        -24    2    3    3    0    0  0.33269233419E+02 -0.61721899950E+02 -0.40096677007E+02  0.11445822424E+03  0.81095664276E+02 0.  0.
          6    2    1    2  501    0 -0.39823071691E+02 -0.79395087914E+01 -0.18044166869E+03  0.25174583750E+03  0.17078600077E+03 0.  0.
         24    2    5    5    0    0  0.40008500772E+02 -0.45477939585E+01 -0.12989750875E+03  0.15708124119E+03  0.78611646648E+02 0.  0.
          5    1    5    5  501    0 -0.79831572463E+02 -0.33917148329E+01 -0.50544159938E+02  0.94664596314E+02  0.47000000000E+01 0. -1.
        -13    1    6    6    0    0  0.44004832355E+02 -0.34366775560E+02 -0.10077675155E+03  0.11521047776E+03  0.00000000000E+00 0.  1.
         14    1    6    6    0    0 -0.39963315825E+01  0.29818981602E+02 -0.29120757207E+02  0.41870763430E+02  0.00000000000E+00 0. -1.
         -5    1    3    3    0  503  0.65538382718E+01  0.69661408741E+02 -0.26402048904E+02  0.74932121618E+02  0.47000000000E+01 0.  1.
         13    1    4    4    0    0 -0.17730289595E+02 -0.52052567893E+02 -0.16291963013E+02  0.57352079755E+02  0.00000000000E+00 0. -1.
        -14    1    4    4    0    0  0.50999523015E+02 -0.96693320571E+01 -0.23804713994E+02  0.57106144490E+02  0.00000000000E+00 0.  1.
</event>
<event>
12    1  0.8416569E-002  0.1755954E+03  0.7818608E-02  0.1172373E+00
         21   -1    0    0  501  502  0.00000000000E+00  0.00000000000E+00  0.14566516101E+03  0.14566516101E+03  0.00000000000E+00 0. -1.
         21   -1    0    0  502  503 -0.00000000000E+00 -0.00000000000E+00 -0.29871721124E+03  0.29871721124E+03  0.00000000000E+00 0. -1.
         -6    2    1    2    0  503 -0.17156999683E+02 -0.32619629956E+02 -0.19710176629E+03  0.26334612472E+03  0.17071517869E+03 0.  0.
        -24    2    3    3    0    0  0.43608648817E+02  0.16454372885E+01 -0.60168691975E+02  0.10959530127E+03  0.80538418480E+02 0.  0.
          6    2    1    2  501    0  0.17156999683E+02  0.32619629956E+02  0.44049716064E+02  0.18103624753E+03  0.17168384472E+03 0.  0.
         24    2    5    5    0    0  0.36268118096E+01  0.32993302235E+02  0.94184797485E+02  0.12889392303E+03  0.81493285374E+02 0.  0.
          5    1    5    5  501    0  0.13530187873E+02 -0.37367227939E+00 -0.50135081421E+02  0.52142324497E+02  0.47000000000E+01 0. -1.
        -13    1    6    6    0    0  0.40620500341E+01  0.58483495964E+02  0.46519169870E+02  0.74838844968E+02  0.00000000000E+00 0.  1.
         14    1    6    6    0    0 -0.43523822453E+00 -0.25490193729E+02  0.47665627615E+02  0.54055078065E+02  0.00000000000E+00 0. -1.
         -5    1    3    3    0  503 -0.60765648500E+02 -0.34265067244E+02 -0.13693307431E+03  0.15375082345E+03  0.47000000000E+01 0.  1.
         11    1    4    4    0    0 -0.13550056307E+02 -0.25006936021E+02 -0.16445834769E+02  0.32854472394E+02  0.00000000000E+00 0. -1.
        -12    1    4    4    0    0  0.57158705124E+02  0.26652373309E+02 -0.43722857206E+02  0.76740828877E+02  0.00000000000E+00 0.  1.
</event>
<event>
12    1  0.8416569E-002  0.2471523E+03  0.7818608E-02  0.1115252E+00
         21   -1    0    0  503  502  0.00000000000E+00  0.00000000000E+00  0.33957182126E+03  0.33957182126E+03  0.00000000000E+00 0. -1.
         21   -1    0    0  501  503 -0.00000000000E+00 -0.00000000000E+00 -0.26716449564E+03  0.26716449564E+03  0.00000000000E+00 0.  1.
          6    2    1    2  501    0  0.17621721618E+03  0.11325370213E+02 -0.13783436374E+03  0.28225854643E+03  0.17172886745E+03 0.  0.
         24    2    3    3    0    0  0.14223229165E+03 -0.20521820506E+02 -0.30352393829E+02  0.16502509340E+03  0.75238578785E+02 0.  0.
         -6    2    1    2    0  502 -0.17621721618E+03 -0.11325370213E+02  0.21024168936E+03  0.32447777048E+03  0.17292623948E+03 0.  0.
        -24    2    5    5    0    0 -0.17318940932E+03 -0.14335081792E+02  0.23264765416E+03  0.30118950655E+03  0.79938237412E+02 0.  0.
          5    1    3    3  501    0  0.33984924531E+02  0.31847190719E+02 -0.10748196991E+03  0.11723345302E+03  0.47000000000E+01 0. -1.
        -13    1    4    4    0    0  0.74482506656E+02 -0.21096739877E+02 -0.52738901289E+02  0.93670208393E+02  0.00000000000E+00 0.  1.
         14    1    4    4    0    0  0.67749784990E+02  0.57491937092E+00  0.22386507460E+02  0.71354885010E+02  0.00000000000E+00 0. -1.
         -5    1    5    5    0  502 -0.30278068531E+01  0.30097115793E+01 -0.22405964796E+02  0.23288263924E+02  0.47000000000E+01 0.  1.
         13    1    6    6    0    0 -0.18110551847E+03 -0.91260683664E+01  0.22522773346E+03  0.28915398297E+03  0.00000000000E+00 0. -1.
        -14    1    6    6    0    0  0.79161091466E+01 -0.52090134257E+01  0.74199206945E+01  0.12035523587E+02  0.00000000000E+00 0.  1.
</event>
<event>
12    1  0.8416569E-002  0.2084496E+03  0.7818608E-02  0.1142976E+00
         21   -1    0    0  501  502  0.00000000000E+00  0.00000000000E+00  0.35034401066E+03  0.35034401066E+03  0.00000000000E+00 0.  1.
         21   -1    0    0  502  503 -0.00000000000E+00 -0.00000000000E+00 -0.12515499487E+03  0.12515499487E+03  0.00000000000E+00 0. -1.
         -6    2    1    2    0  503  0.97866865492E+01  0.11593094905E+03  0.85493280791E+02  0.22530051676E+03  0.17296085572E+03 0.  0.
        -24    2    3    3    0    0 -0.21964274382E+02  0.11851998531E+03  0.10585933677E+02  0.14376508102E+03  0.77633241991E+02 0.  0.
          6    2    1    2  501    0 -0.97866865492E+01 -0.11593094905E+03  0.13969573500E+03  0.25019848877E+03  0.17189712396E+03 0.  0.
         24    2    5    5    0    0 -0.51147684142E+02 -0.25178159319E+02  0.31899866330E+02  0.10326707529E+03  0.79977884862E+02 0.  0.
          5    1    5    5  501    0  0.41360997593E+02 -0.90752789731E+02  0.10779586867E+03  0.14693141348E+03  0.47000000000E+01 0. -1.
        -11    1    6    6    0    0 -0.43746614407E+02 -0.48614581909E+02  0.31947633981E+01  0.65477861598E+02  0.00000000000E+00 0.  1.
         12    1    6    6    0    0 -0.74010697349E+01  0.23436422590E+02  0.28705102931E+02  0.37789213690E+02  0.00000000000E+00 0. -1.
         -5    1    3    3    0  503  0.31750960931E+02 -0.25890362651E+01  0.74907347113E+02  0.81535435734E+02  0.47000000000E+01 0.  1.
         13    1    4    4    0    0 -0.17280675581E+02 -0.55171222705E+01  0.74208874076E+01  0.19599233572E+02  0.00000000000E+00 0. -1.
        -14    1    4    4    0    0 -0.46835988007E+01  0.12403710758E+03  0.31650462696E+01  0.12416584745E+03  0.00000000000E+00 0.  1.
</event>
<event>
12    1  0.8416569E-002  0.1792887E+03  0.7818608E-02  0.1170124E+00
         21   -1    0    0  503  502  0.00000000000E+00  0.00000000000E+00  0.24486982200E+03  0.24486982200E+03  0.00000000000E+00 0.  1.
         21   -1    0    0  501  503 -0.00000000000E+00 -0.00000000000E+00 -0.36894235910E+03  0.36894235910E+03  0.00000000000E+00 0. -1.
          6    2    1    2  501    0  0.52080828921E+02 -0.12879934442E+02 -0.31041114755E+03  0.35522658113E+03  0.16417228135E+03 0.  0.
         24    2    3    3    0    0  0.77361120182E+02 -0.38608427580E+02 -0.29258305593E+03  0.31471757798E+03  0.77246072239E+02 0.  0.
         -6    2    1    2    0  502 -0.52080828921E+02  0.12879934442E+02  0.18633861045E+03  0.25858559997E+03  0.17107346175E+03 0.  0.
        -24    2    5    5    0    0 -0.29627346123E+02  0.65326678538E+02  0.16666045650E+03  0.19805346306E+03  0.79398437650E+02 0.  0.
          5    1    3    3  501    0 -0.25280291262E+02  0.25728493137E+02 -0.17828091624E+02  0.40509003152E+02  0.47000000000E+01 0. -1.
        -13    1    4    4    0    0  0.24432551721E+02 -0.26067352061E+02 -0.30277117024E+02  0.46831188778E+02  0.00000000000E+00 0.  1.
         14    1    4    4    0    0  0.52928568461E+02 -0.12541075519E+02 -0.26230593890E+03  0.26788638920E+03  0.00000000000E+00 0. -1.
         -5    1    5    5    0  502 -0.22453482797E+02 -0.52446744096E+02  0.19678153944E+02  0.60532136908E+02  0.47000000000E+01 0.  1.
         11    1    6    6    0    0 -0.34964727395E+02  0.22421983417E+02  0.21863122953E+02  0.46939041825E+02  0.00000000000E+00 0. -1.
        -12    1    6    6    0    0  0.53373812716E+01  0.42904695121E+02  0.14479733355E+03  0.15111442124E+03  0.00000000000E+00 0.  1.
</event>
<event>
12    1  0.8416569E-002  0.2260791E+03  0.7818608E-02  0.1130715E+00
         21   -1    0    0  503  502  0.00000000000E+00  0.00000000000E+00  0.29634856739E+03  0.29634856739E+03  0.00000000000E+00 0.  1.
         21   -1    0    0  501  503 -0.00000000000E+00 -0.00000000000E+00 -0.18404400020E+03  0.18404400020E+03  0.00000000000E+00 0.  1.
          6    2    1    2  501    0 -0.13434411755E+02  0.14542078103E+03  0.12970354127E+03  0.26064294976E+03  0.17258056573E+03 0.  0.
         24    2    3    3    0    0 -0.43420661034E+01  0.15877761273E+03  0.15091711381E+03  0.23356562785E+03  0.80918127930E+02 0.  0.
         -6    2    1    2    0  502  0.13434411755E+02 -0.14542078103E+03 -0.17398974080E+02  0.21974961782E+03  0.16327732010E+03 0.  0.
        -24    2    5    5    0    0 -0.56833658040E+02 -0.98556752829E+02 -0.10109487726E+01  0.13358410184E+03  0.70001371638E+02 0.  0.
          5    1    3    3  501    0 -0.90923456513E+01 -0.13356831693E+02 -0.21213572540E+02  0.27077321917E+02  0.47000000000E+01 0. -1.
        -13    1    4    4    0    0 -0.25569868245E+02  0.11386056982E+03  0.14078588106E+03  0.18286254900E+03  0.00000000000E+00 0.  1.
         14    1    4    4    0    0  0.21227802142E+02  0.44917042903E+02  0.10131232756E+02  0.50703078843E+02  0.00000000000E+00 0. -1.
         -5    1    5    5    0  502  0.70268069795E+02 -0.46864028204E+02 -0.16388025308E+02  0.86165515989E+02  0.47000000000E+01 0.  1.
         13    1    6    6    0    0 -0.53606485216E+02 -0.59140410222E+02  0.27943064955E+02  0.84569842482E+02  0.00000000000E+00 0. -1.
        -14    1    6    6    0    0 -0.32271728244E+01 -0.39416342608E+02 -0.28954013727E+02  0.49014259353E+02  0.00000000000E+00 0.  1.
</event>
<event>
12    1  0.8416569E-002  0.1791133E+03  0.7818608E-02  0.1168726E+00
         21   -1    0    0  501  502  0.00000000000E+00  0.00000000000E+00  0.72816791310E+03  0.72816791310E+03  0.00000000000E+00 0.  1.
         21   -1    0    0  502  503 -0.00000000000E+00 -0.00000000000E+00 -0.55989735687E+02  0.55989735687E+02  0.00000000000E+00 0.  1.
         -6    2    1    2    0  503  0.47111282942E+02 -0.14349514323E+02  0.51775217821E+03  0.54785845446E+03  0.17220971674E+03 0.  0.
        -24    2    3    3    0    0  0.32189330554E+02  0.55134902635E+02  0.23843923314E+03  0.25960759124E+03  0.80416559484E+02 0.  0.
          6    2    1    2  501    0 -0.47111282942E+02  0.14349514323E+02  0.15442599920E+03  0.23629919432E+03  0.17194341647E+03 0.  0.
         24    2    5    5    0    0 -0.13180687189E+02  0.43478325046E+02  0.18330010002E+02  0.92967476907E+02  0.79011817041E+02 0.  0.
          5    1    5    5  501    0 -0.33930595753E+02 -0.29128810723E+02  0.13609598920E+03  0.14333171742E+03  0.47000000000E+01 0. -1.
        -13    1    6    6    0    0 -0.36058702483E+02  0.24152005825E+02 -0.17036722018E+02  0.46624020710E+02  0.00000000000E+00 0.  1.
         14    1    6    6    0    0  0.22878015293E+02  0.19326319221E+02  0.35366732020E+02  0.46343456196E+02  0.00000000000E+00 0. -1.
         -5    1    3    3    0  503  0.14921952388E+02 -0.69484416958E+02  0.27931294507E+03  0.28825086322E+03  0.47000000000E+01 0.  1.
         11    1    4    4    0    0  0.15490837461E+02  0.51155307952E+02  0.23634587684E+03  0.24231426923E+03  0.00000000000E+00 0. -1.
        -12    1    4    4    0    0  0.16698493093E+02  0.39795946829E+01  0.20933563046E+01  0.17293322007E+02  0.00000000000E+00 0.  1.
</event>
<event>
12    1  0.8416569E-002  0.2545857E+03  0.7818608E-02  0.1110476E+00
         21   -1    0    0  503  502  0.00000000000E+00  0.00000000000E+00  0.20820191970E+03  0.20820191970E+03  0.00000000000E+00 0. -1.
         21   -1    0    0  501  503 -0.00000000000E+00 -0.00000000000E+00 -0.45520024964E+03  0.45520024964E+03  0.00000000000E+00 0. -1.
          6    2    1    2  501    0 -0.27037228141E+01 -0.18725766273E+03 -0.31014167617E+03  0.40110282186E+03  0.17211296302E+03 0.  0.
         24    2    3    3    0    0 -0.18452437637E+02 -0.35501499996E+02 -0.17422496319E+03  0.19671740699E+03  0.82113040722E+02 0.  0.
         -6    2    1    2    0  502  0.27037228141E+01  0.18725766273E+03  0.63143346225E+02  0.26229934748E+03  0.17245614848E+03 0.  0.
        -24    2    5    5    0    0  0.58667736874E+02  0.67391148836E+02  0.12527147605E+02  0.12058117086E+03  0.79996368959E+02 0.  0.
          5    1    3    3  501    0  0.15748714823E+02 -0.15175616274E+03 -0.13591671298E+03  0.20438541487E+03  0.47000000000E+01 0. -1.
        -11    1    4    4    0    0  0.31491805443E+00 -0.39820378264E+02 -0.17288615778E+03  0.17741303574E+03  0.00000000000E+00 0.  1.
         12    1    4    4    0    0 -0.18767355692E+02  0.43188782679E+01 -0.13388054045E+01  0.19304371242E+02  0.00000000000E+00 0. -1.
         -5    1    5    5    0  502 -0.55964014060E+02  0.11986651390E+03  0.50616198620E+02  0.14171817663E+03  0.47000000000E+01 0.  1.
         13    1    6    6    0    0  0.50810086901E+01  0.47716319663E+02  0.34830420134E+02  0.59294367171E+02  0.00000000000E+00 0. -1.
        -14    1    6    6    0    0  0.53586728184E+02  0.19674829173E+02 -0.22303272529E+02  0.61286803686E+02  0.00000000000E+00 0.  1.
</event>
<event>
12    1  0.8416569E-002  0.3069552E+03  0.7818608E-02  0.1082039E+00
         21   -1    0    0  503  502  0.00000000000E+00  0.00000000000E+00  0.16531805268E+03  0.16531805268E+03  0.00000000000E+00 0.  1.
         21   -1    0    0  501  503 -0.00000000000E+00 -0.00000000000E+00 -0.72404189295E+03  0.72404189295E+03  0.00000000000E+00 0. -1.
          6    2    1    2  501    0 -0.25202857774E+03  0.30247421654E+02 -0.48742601463E+03  0.57602571759E+03  0.17259257540E+03 0.  0.
         24    2    3    3    0    0 -0.14784444316E+03  0.28071273833E+00 -0.16415695475E+03  0.23503112436E+03  0.80212626521E+02 0.  0.
         -6    2    1    2    0  502  0.25202857774E+03 -0.30247421654E+02 -0.71297825647E+02  0.31333422804E+03  0.16929751329E+03 0.  0.
        -24    2    5    5    0    0  0.12408582054E+03 -0.58477252091E+02 -0.88182016764E+02  0.18114709419E+03  0.78875355990E+02 0.  0.
          5    1    3    3  501    0 -0.10418413458E+03  0.29966708916E+02 -0.32326905987E+03  0.34099459323E+03  0.47000000000E+01 0. -1.
        -11    1    4    4    0    0 -0.49137305250E+02 -0.35753814547E+02 -0.79663267528E+02  0.10019504087E+03  0.00000000000E+00 0.  1.
         12    1    4    4    0    0 -0.98707137909E+02  0.36034527285E+02 -0.84493687223E+02  0.13483608349E+03  0.00000000000E+00 0. -1.
         -5    1    5    5    0  502  0.12794275719E+03  0.28229830437E+02  0.16884191117E+02  0.13218713385E+03  0.47000000000E+01 0.  1.
         13    1    6    6    0    0  0.14749319630E+02  0.81188893532E+01 -0.41662155950E+02  0.44935442941E+02  0.00000000000E+00 0. -1.
        -14    1    6    6    0    0  0.10933650091E+03 -0.66596141444E+02 -0.46519860814E+02  0.13621165125E+03  0.00000000000E+00 0.  1.
</event>
<event>
12    1  0.8416569E-002  0.2000869E+03  0.7818608E-02  0.1149815E+00
         21   -1    0    0  501  502  0.00000000000E+00  0.00000000000E+00  0.49237786762E+02  0.49237786762E+02  0.00000000000E+00 0.  1.
         21   -1    0    0  502  503 -0.00000000000E+00 -0.00000000000E+00 -0.12159345521E+04  0.12159345521E+04  0.00000000000E+00 0.  1.
         -6    2    1    2    0  503 -0.95167992688E+02 -0.28840272114E+02 -0.94944355890E+03  0.97029780024E+03  0.17362615439E+03 0.  0.
        -24    2    3    3    0    0 -0.27351458167E+02 -0.71828896583E+02 -0.69075940428E+03  0.69939802904E+03  0.78112455912E+02 0.  0.
          6    2    1    2  501    0  0.95167992688E+02  0.28840272114E+02 -0.21725320643E+03  0.29487453861E+03  0.17281009719E+03 0.  0.
         24    2    5    5    0    0  0.39607285842E+01  0.48294838461E+02 -0.59461521179E+02  0.11152364248E+03  0.80955367572E+02 0.  0.
          5    1    5    5  501    0  0.91207264104E+02 -0.19454566348E+02 -0.15779168525E+03  0.18335089613E+03  0.47000000000E+01 0. -1.
        -13    1    6    6    0    0  0.30210981023E+02  0.17101009480E+02  0.51798736692E+01  0.35099558271E+02  0.00000000000E+00 0.  1.
         14    1    6    6    0    0 -0.26250252439E+02  0.31193828981E+02 -0.64641394849E+02  0.76424084212E+02  0.00000000000E+00 0. -1.
         -5    1    3    3    0  503 -0.67816534521E+02  0.42988624469E+02 -0.25868415461E+03  0.27089977120E+03  0.47000000000E+01 0.  1.
         13    1    4    4    0    0  0.16987789485E+02 -0.21317554024E+01 -0.27379751315E+03  0.27433229408E+03  0.00000000000E+00 0. -1.
        -14    1    4    4    0    0 -0.44339247652E+02 -0.69697141180E+02 -0.41696189114E+03  0.42506573496E+03  0.00000000000E+00 0.  1.
</event>
<event>
12    1  0.8416569E-002  0.1748278E+03  0.7818608E-02  0.1173018E+00
         21   -1    0    0  501  502  0.00000000000E+00  0.00000000000E+00  0.90218943120E+02  0.90218943120E+02  0.00000000000E+00 0. -1.
         21   -1    0    0  502  503 -0.00000000000E+00 -0.00000000000E+00 -0.44676929581E+03  0.44676929581E+03  0.00000000000E+00 0. -1.
         -6    2    1    2    0  503  0.21732913106E+02 -0.16975163838E+02 -0.31063464621E+03  0.35623149672E+03  0.17218164865E+03 0.  0.
        -24    2    3    3    0    0 -0.18307723226E+02 -0.73390445865E+01 -0.70302417564E+02  0.11235083435E+03  0.85388791764E+02 0.  0.
          6    2    1    2  501    0 -0.21732913106E+02  0.16975163838E+02 -0.45915706479E+02  0.18075674221E+03  0.17263913824E+03 0.  0.
         24    2    5    5    0    0  0.40575293353E+02  0.31365589540E+02 -0.62024909245E+02  0.11464325374E+03  0.81644544352E+02 0.  0.
          5    1    5    5  501    0 -0.62308206459E+02 -0.14390425702E+02  0.16109202766E+02  0.66113488471E+02  0.47000000000E+01 0. -1.
        -13    1    6    6    0    0  0.27427084530E+02 -0.24082587083E+02 -0.10918648014E+02  0.38097675006E+02  0.00000000000E+00 0.  1.
         14    1    6    6    0    0  0.13148208823E+02  0.55448176623E+02 -0.51106261231E+02  0.76545578730E+02  0.00000000000E+00 0. -1.
         -5    1    3    3    0  503  0.40040636332E+02 -0.96361192513E+01 -0.24033222865E+03  0.24388066237E+03  0.47000000000E+01 0.  1.
         11    1    4    4    0    0  0.19928839718E+02 -0.33301107310E+02 -0.45829076801E+02  0.60053531795E+02  0.00000000000E+00 0. -1.
        -12    1    4    4    0    0 -0.38236562944E+02  0.25962062723E+02 -0.24473340763E+02  0.52297302557E+02  0.00000000000E+00 0.  1.
</event>
<event>
12    1  0.8416569E-002  0.1938128E+03  0.7818608E-02  0.1155292E+00
         21   -1    0    0  503  502  0.00000000000E+00  0.00000000000E+00  0.98971800435E+02  0.98971800435E+02  0.00000000000E+00 0.  1.
         21   -1    0    0  501  503 -0.00000000000E+00 -0.00000000000E+00 -0.66911785551E+03  0.66911785551E+03  0.00000000000E+00 0.  1.
          6    2    1    2  501    0  0.46068084534E+01  0.85835062410E+02 -0.53901695377E+03  0.57280249177E+03  0.17370819642E+03 0.  0.
         24    2    3    3    0    0  0.66492852090E+01  0.83617109265E+02 -0.54920469919E+03  0.56118478182E+03  0.79161378082E+02 0.  0.
         -6    2    1    2    0  502 -0.46068084534E+01 -0.85835062410E+02 -0.31129101312E+02  0.19528716418E+03  0.17256643626E+03 0.  0.
        -24    2    5    5    0    0 -0.23549693343E+02 -0.81942409109E+02 -0.80087801777E+02  0.14243803941E+03  0.81273566496E+02 0.  0.
          5    1    3    3  501    0 -0.20424767556E+01  0.22179531453E+01  0.10187745426E+02  0.11617709943E+02  0.47000000000E+01 0. -1.
        -11    1    4    4    0    0 -0.29789413684E+02  0.60870530216E+02 -0.25460204965E+03  0.26346695106E+03  0.00000000000E+00 0.  1.
         12    1    4    4    0    0  0.36438698893E+02  0.22746579049E+02 -0.29460264955E+03  0.29771783076E+03  0.00000000000E+00 0. -1.
         -5    1    5    5    0  502  0.18942884889E+02 -0.38926533009E+01  0.48958700465E+02  0.52849124769E+02  0.47000000000E+01 0.  1.
         13    1    6    6    0    0 -0.50145507642E+02 -0.68086295664E+02 -0.43379587636E+02  0.95037383263E+02  0.00000000000E+00 0. -1.
        -14    1    6    6    0    0  0.26595814299E+02 -0.13856113445E+02 -0.36708214140E+02  0.47400656149E+02  0.00000000000E+00 0.  1.
</event>
<event>
12    1  0.8416569E-002  0.1851544E+03  0.7818608E-02  0.1163021E+00
         21   -1    0    0  501  502  0.00000000000E+00  0.00000000000E+00  0.17815586773E+03  0.17815586773E+03  0.00000000000E+00 0. -1.
         21   -1    0    0  502  503 -0.00000000000E+00 -0.00000000000E+00 -0.21222113971E+03  0.21222113971E+03  0.00000000000E+00 0. -1.
         -6    2    1    2    0  503  0.65180104073E+02 -0.13767078371E+02 -0.77429615528E+02  0.20069258272E+03  0.17275470756E+03 0.  0.
        -24    2    3    3    0    0  0.48670329983E+02 -0.42467667668E+02  0.13619686499E+02  0.10369587213E+03  0.79968957840E+02 0.  0.
          6    2    1    2  501    0 -0.65180104073E+02  0.13767078371E+02  0.43364343547E+02  0.18968442471E+03  0.17222582929E+03 0.  0.
         24    2    5    5    0    0 -0.48517567155E+02 -0.56251128626E+02  0.46659372125E+02  0.11748237030E+03  0.78146442854E+02 0.  0.
          5    1    5    5  501    0 -0.16662536918E+02  0.70018206998E+02 -0.32950285777E+01  0.72202054410E+02  0.47000000000E+01 0. -1.
        -13    1    6    6    0    0 -0.40815380062E+01  0.17656064663E+02 -0.23796009096E+01  0.18277255603E+02  0.00000000000E+00 0.  1.
         14    1    6    6    0    0 -0.44436029149E+02 -0.73907193290E+02  0.49038973035E+02  0.99205114701E+02  0.00000000000E+00 0. -1.
         -5    1    3    3    0  503  0.16509774090E+02  0.28700589297E+02 -0.91049302026E+02  0.96996710594E+02  0.47000000000E+01 0.  1.
         11    1    4    4    0    0  0.47099354000E+02  0.87359437230E+01  0.20315276731E+02  0.52032454571E+02  0.00000000000E+00 0. -1.
        -12    1    4    4    0    0  0.15709759828E+01 -0.51203611391E+02 -0.66955902325E+01  0.51663417556E+02  0.00000000000E+00 0.  1.
</event>
<event>
12    1  0.8416569E-002  0.1791291E+03  0.7818608E-02  0.1169849E+00
         21   -1    0    0  503  502  0.00000000000E+00  0.00000000000E+00  0.20084937757E+03  0.20084937757E+03  0.00000000000E+00 0.  1.
         21   -1    0    0  501  503 -0.00000000000E+00 -0.00000000000E+00 -0.21670270374E+03  0.21670270374E+03  0.00000000000E+00 0.  1.
          6    2    1    2  501    0  0.17705013835E+02 -0.50798372229E+02 -0.11899069286E+03  0.21504889650E+03  0.17086047163E+03 0.  0.
         24    2    3    3    0    0  0.54396911076E+02 -0.78681957401E+02 -0.56494280771E+02  0.13725634436E+03  0.80609093488E+02 0.  0.
         -6    2    1    2    0  502 -0.17705013835E+02  0.50798372229E+02  0.10313736669E+03  0.20250318480E+03  0.16575970955E+03 0.  0.
        -24    2    5    5    0    0  0.29530368986E+01 -0.98814883162E+01  0.11246724540E+03  0.13755753697E+03  0.78529169423E+02 0.  0.
          5    1    3    3  501    0 -0.36691897241E+02  0.27883585171E+02 -0.62496412086E+02  0.77792552142E+02  0.47000000000E+01 0. -1.
        -11    1    4    4    0    0 -0.84066712789E+01 -0.18724829725E+02 -0.45269782856E+02  0.49705579265E+02  0.00000000000E+00 0.  1.
         12    1    4    4    0    0  0.62803582355E+02 -0.59957127676E+02 -0.11224497914E+02  0.87550765098E+02  0.00000000000E+00 0. -1.
         -5    1    5    5    0  502 -0.20658050734E+02  0.60679860545E+02 -0.93298787090E+01  0.64945647834E+02  0.47000000000E+01 0.  1.
         13    1    6    6    0    0  0.31681081187E+02  0.61945990444E+00  0.99342059957E+02  0.10427329242E+03  0.00000000000E+00 0. -1.
        -14    1    6    6    0    0 -0.28728044288E+02 -0.10500948221E+02  0.13125185444E+02  0.33284244547E+02  0.00000000000E+00 0.  1.
</event>
<event>
12    1  0.8416569E-002  0.2036632E+03  0.7818608E-02  0.1146716E+00
         21   -1    0    0  503  502  0.00000000000E+00  0.00000000000E+00  0.11066635283E+03  0.11066635283E+03  0.00000000000E+00 0.  1.
         21   -1    0    0  501  503 -0.00000000000E+00 -0.00000000000E+00 -0.79730177326E+03  0.79730177326E+03  0.00000000000E+00 0.  1.
          6    2    1    2  501    0  0.10725323047E+03 -0.19140766067E+02 -0.67396174813E+03  0.70406187737E+03  0.17207284751E+03 0.  0.
         24    2    3    3    0    0  0.34770336839E+02 -0.60363087040E+02 -0.50180131484E+03  0.51271310051E+03  0.78851032049E+02 0.  0.
         -6    2    1    2    0  502 -0.10725323047E+03  0.19140766067E+02 -0.12673672296E+02  0.20390624872E+03  0.17189389729E+03 0.  0.
        -24    2    5    5    0    0 -0.88726914993E+02 -0.52355180475E+02 -0.10355722665E+02  0.12986330424E+03  0.78381799096E+02 0.  0.
          5    1    3    3  501    0  0.72482893632E+02  0.41222320973E+02 -0.17216043328E+03  0.19134877686E+03  0.47000000000E+01 0. -1.
        -11    1    4    4    0    0  0.46808007187E+02 -0.34186243559E+02 -0.16893439558E+03  0.17860156437E+03  0.00000000000E+00 0.  1.
         12    1    4    4    0    0 -0.12037670348E+02 -0.26176843481E+02 -0.33286691926E+03  0.33411153614E+03  0.00000000000E+00 0. -1.
         -5    1    5    5    0  502 -0.18526315478E+02  0.71495946542E+02 -0.23179496311E+01  0.74042944483E+02  0.47000000000E+01 0.  1.
         11    1    6    6    0    0 -0.59146318864E+01 -0.23268525637E+02  0.25523904536E+02  0.35041073877E+02  0.00000000000E+00 0. -1.
        -12    1    6    6    0    0 -0.82812283107E+02 -0.29086654838E+02 -0.35879627201E+02  0.94822230364E+02  0.00000000000E+00 0.  1.
</event>
<event>
12    1  0.8416569E-002  0.2686892E+03  0.7818608E-02  0.1102144E+00
         21   -1    0    0  503  502  0.00000000000E+00  0.00000000000E+00  0.21636992351E+03  0.21636992351E+03  0.00000000000E+00 0. -1.
         21   -1    0    0  501  503 -0.00000000000E+00 -0.00000000000E+00 -0.35953118380E+03  0.35953118380E+03  0.00000000000E+00 0.  1.
          6    2    1    2  501    0 -0.48439823726E+02  0.19913619709E+03  0.69909791019E+01  0.26878008844E+03  0.17375908793E+03 0.  0.
         24    2    3    3    0    0 -0.32605779440E+01  0.16969018898E+03 -0.47111665645E+02  0.19224631935E+03  0.77030816284E+02 0.  0.
         -6    2    1    2    0  502  0.48439823726E+02 -0.19913619709E+03 -0.15015223939E+03  0.30712101886E+03  0.17255718970E+03 0.  0.
        -24    2    5    5    0    0  0.74538057260E+02 -0.21351881338E+03 -0.14078037566E+03  0.27553147510E+03  0.70372394817E+02 0.  0.
          5    1    3    3  501    0 -0.45179245782E+02  0.29446008105E+02  0.54102644746E+02  0.76533769091E+02  0.47000000000E+01 0. -1.
        -13    1    4    4    0    0 -0.35904762095E+02  0.98931622970E+02 -0.93695151090E+01  0.10566175173E+03  0.00000000000E+00 0.  1.
         14    1    4    4    0    0  0.32644184151E+02  0.70758566015E+02 -0.37742150536E+02  0.86584567623E+02  0.00000000000E+00 0. -1.
         -5    1    5    5    0  502 -0.26098233534E+02  0.14382616293E+02 -0.93718637273E+01  0.31589543757E+02  0.47000000000E+01 0.  1.
         13    1    6    6    0    0  0.40199797819E+02 -0.95431119008E+02 -0.24781330594E+02  0.10647646015E+03  0.00000000000E+00 0. -1.
        -14    1    6    6    0    0  0.34338259442E+02 -0.11808769437E+03 -0.11599904507E+03  0.16905501496E+03  0.00000000000E+00 0.  1.
</event>
<event>
12    1  0.8416569E-002  0.1929478E+03  0.7818608E-02  0.1156404E+00
         21   -1    0    0  503  502  0.00000000000E+00  0.00000000000E+00  0.61999755661E+02  0.61999755661E+02  0.00000000000E+00 0. -1.
         21   -1    0    0  501  503 -0.00000000000E+00 -0.00000000000E+00 -0.13411901361E+04  0.13411901361E+04  0.00000000000E+00 0. -1.
          6    2    1    2  501    0 -0.22807833511E+02 -0.86098834535E+02 -0.11657032499E+04  0.11815637680E+04  0.17115976328E+03 0.  0.
         24    2    3    3    0    0  0.49613223262E+02 -0.70568673284E+02 -0.61292516592E+03  0.62382575115E+03  0.77716788423E+02 0.  0.
         -6    2    1    2    0  502  0.22807833511E+02  0.86098834535E+02 -0.11348713059E+03  0.22162612376E+03  0.16824269180E+03 0.  0.
        -24    2    5    5    0    0  0.61084316091E+02  0.74110071739E+02 -0.29776071652E+02  0.12868285644E+03  0.80306081294E+02 0.  0.
          5    1    3    3  501    0 -0.72421056773E+02 -0.15530161251E+02 -0.55277808397E+03  0.55773801690E+03  0.47000000000E+01 0. -1.
        -13    1    4    4    0    0 -0.23223320293E+00 -0.65941963531E+02 -0.33508695213E+03  0.34151378007E+03  0.00000000000E+00 0.  1.
         14    1    4    4    0    0  0.49845456465E+02 -0.46267097529E+01 -0.27783821379E+03  0.28231197108E+03  0.00000000000E+00 0. -1.
         -5    1    5    5    0  502 -0.38276482580E+02  0.11988762796E+02 -0.83711058935E+02  0.92943267320E+02  0.47000000000E+01 0.  1.
         11    1    6    6    0    0  0.20815118087E+02  0.24734714743E+02  0.27928956648E+02  0.42721211053E+02  0.00000000000E+00 0. -1.
        -12    1    6    6    0    0  0.40269198004E+02  0.49375356996E+02 -0.57705028300E+02  0.85961645386E+02  0.00000000000E+00 0.  1.
</event>
<event>
12    1  0.8416569E-002  0.2048162E+03  0.7818608E-02  0.1145831E+00
         21   -1    0    0  501  502  0.00000000000E+00  0.00000000000E+00  0.30820721116E+03  0.30820721116E+03  0.00000000000E+00 0. -1.
         21   -1    0    0  502  503 -0.00000000000E+00 -0.00000000000E+00 -0.73086358931E+03  0.73086358931E+03  0.00000000000E+00 0.  1.
         -6    2    1    2    0  503  0.10653147512E+03 -0.17944517462E+02 -0.68015857685E+03  0.71032764932E+03  0.17400781254E+03 0.  0.
        -24    2    3    3    0    0  0.99033751676E+02  0.13526598706E+02 -0.27230097472E+03  0.30116196085E+03  0.80994153999E+02 0.  0.
          6    2    1    2  501    0 -0.10653147512E+03  0.17944517462E+02  0.25750219870E+03  0.32874315116E+03  0.17347540517E+03 0.  0.
         24    2    5    5    0    0 -0.23560440345E+02 -0.27808875261E+02  0.19810556661E+03  0.21681632032E+03  0.80218908885E+02 0.  0.
          5    1    5    5  501    0 -0.82971034771E+02  0.45753392724E+02  0.59396632091E+02  0.11192683083E+03  0.47000000000E+01 0. -1.
        -13    1    6    6    0    0 -0.43409280894E+02  0.10748685948E+02  0.98049993597E+02  0.10776688342E+03  0.00000000000E+00 0.  1.
         14    1    6    6    0    0  0.19848840549E+02 -0.38557561210E+02  0.10005557302E+03  0.10904943690E+03  0.00000000000E+00 0. -1.
         -5    1    3    3    0  503  0.74977234402E+01 -0.31471116168E+02 -0.40785760213E+03  0.40916568847E+03  0.47000000000E+01 0.  1.
         13    1    4    4    0    0  0.43470130429E+02 -0.34155996258E+02 -0.11005604247E+03  0.12316093863E+03  0.00000000000E+00 0. -1.
        -14    1    4    4    0    0  0.55563621247E+02  0.47682594964E+02 -0.16224493225E+03  0.17800102222E+03  0.00000000000E+00 0.  1.
</event>
<event>
12    1  0.8416569E-002  0.2329553E+03  0.7818608E-02  0.1124628E+00
         21   -1    0    0  503  502  0.00000000000E+00  0.00000000000E+00  0.18161984482E+03  0.18161984482E+03  0.00000000000E+00 0. -1.
         21   -1    0    0  501  503 -0.00000000000E+00 -0.00000000000E+00 -0.47584963231E+03  0.47584963231E+03  0.00000000000E+00 0. -1.
          6    2    1    2  501    0 -0.12293164280E+03  0.97615247944E+02 -0.34778999200E+03  0.41843627233E+03  0.17172684715E+03 0.  0.
         24    2    3    3    0    0 -0.11693827622E+03  0.11998762340E+03 -0.34878212869E+03  0.39478214031E+03  0.78309480880E+02 0.  0.
         -6    2    1    2    0  502  0.12293164280E+03 -0.97615247944E+02  0.53560204516E+02  0.23903320480E+03  0.17212568680E+03 0.  0.
        -24    2    5    5    0    0  0.14113486646E+03 -0.11894082510E+03  0.60107871365E+02  0.20985959458E+03  0.79762916385E+02 0.  0.
          5    1    3    3  501    0 -0.59933665836E+01 -0.22372375454E+02  0.99213669401E+00  0.23654132021E+02  0.47000000000E+01 0. -1.
        -11    1    4    4    0    0 -0.65762263519E+02  0.39582428625E+02 -0.23011622825E+03  0.24257972393E+03  0.00000000000E+00 0.  1.
         12    1    4    4    0    0 -0.51176012702E+02  0.80405194772E+02 -0.11866590044E+03  0.15220241638E+03  0.00000000000E+00 0. -1.
         -5    1    5    5    0  502 -0.18203223651E+02  0.21325577157E+02 -0.65476668497E+01  0.29173610225E+02  0.47000000000E+01 0.  1.
         13    1    6    6    0    0  0.89373159675E+02 -0.23512633519E+02  0.30780437141E+02  0.97405548692E+02  0.00000000000E+00 0. -1.
        -14    1    6    6    0    0  0.51761706780E+02 -0.95428191583E+02  0.29327434224E+02  0.11245404588E+03  0.00000000000E+00 0.  1.
</event>
<event>
12    1  0.8416569E-002  0.2449234E+03  0.7818608E-02  0.1116891E+00
         21   -1    0    0  503  502  0.00000000000E+00  0.00000000000E+00  0.22070801661E+03  0.22070801661E+03  0.00000000000E+00 0. -1.
         21   -1    0    0  501  503 -0.00000000000E+00 -0.00000000000E+00 -0.27450169309E+03  0.27450169309E+03  0.00000000000E+00 0.  1.
          6    2    1    2  501    0  0.16245579756E+03 -0.55022966092E+02  0.65692215536E+01  0.24295751474E+03  0.17194704516E+03 0.  0.
         24    2    3    3    0    0  0.17827428733E+03 -0.71242728395E+02 -0.18705641027E+02  0.20869070885E+03  0.79653393403E+02 0.  0.
         -6    2    1    2    0  502 -0.16245579756E+03  0.55022966092E+02 -0.60362898036E+02  0.25225219496E+03  0.17483728848E+03 0.  0.
        -24    2    5    5    0    0 -0.13344973764E+03  0.83093977847E+02  0.55883269174E+01  0.17478615539E+03  0.76194022652E+02 0.  0.
          5    1    3    3  501    0 -0.15818489769E+02  0.16219762303E+02  0.25274862581E+02  0.34266805894E+02  0.47000000000E+01 0. -1.
        -13    1    4    4    0    0  0.78473548733E+02  0.92743094382E+01 -0.14842541632E+02  0.80401565336E+02  0.00000000000E+00 0.  1.
         14    1    4    4    0    0  0.99800738595E+02 -0.80517037833E+02 -0.38630993948E+01  0.12828914351E+03  0.00000000000E+00 0. -1.
         -5    1    5    5    0  502 -0.29006059919E+02 -0.28071011755E+02 -0.65951224954E+02  0.77466039565E+02  0.47000000000E+01 0.  1.
         13    1    6    6    0    0 -0.28044595272E+02  0.58237665608E+02 -0.98855912355E+01  0.65389983434E+02  0.00000000000E+00 0. -1.
        -14    1    6    6    0    0 -0.10540514237E+03  0.24856312239E+02  0.15473918153E+02  0.10939617196E+03  0.00000000000E+00 0.  1.
</event>
<event>
12    1  0.8416569E-002  0.1859027E+03  0.7818608E-02  0.1162751E+00
         21   -1    0    0  501  502  0.00000000000E+00  0.00000000000E+00  0.27075368022E+03  0.27075368022E+03  0.00000000000E+00 0.  1.
         21   -1    0    0  502  503 -0.00000000000E+00 -0.00000000000E+00 -0.33409060578E+03  0.33409060578E+03  0.00000000000E+00 0.  1.
         -6    2    1    2    0  503  0.21764156429E+02 -0.68425775274E+02 -0.27038490663E+03  0.32812770946E+03  0.17147603552E+03 0.  0.
        -24    2    3    3    0    0  0.30144258092E+02 -0.49715171834E+02 -0.56890847769E+02  0.11360005168E+03  0.79297721125E+02 0.  0.
          6    2    1    2  501    0 -0.21764156429E+02  0.68425775274E+02  0.20704798107E+03  0.27671657653E+03  0.16895985333E+03 0.  0.
         24    2    5    5    0    0 -0.34725217031E+01  0.80378819790E+01  0.25895789566E+02  0.84832528102E+02  0.80307533602E+02 0.  0.
          5    1    5    5  501    0 -0.18291634726E+02  0.60387893295E+02  0.18115219150E+03  0.19188404843E+03  0.47000000000E+01 0. -1.
        -11    1    6    6    0    0  0.27955768201E+02  0.11798849464E+02  0.39977444652E+02  0.50188981911E+02  0.00000000000E+00 0.  1.
         12    1    6    6    0    0 -0.31428289904E+02 -0.37609674848E+01 -0.14081655086E+02  0.34643546191E+02  0.00000000000E+00 0. -1.
         -5    1    3    3    0  503 -0.83801016629E+01 -0.18710603440E+02 -0.21349405886E+03  0.21452765778E+03  0.47000000000E+01 0.  1.
         13    1    4    4    0    0  0.16012981057E+02 -0.70895131478E+02 -0.39020385807E+02  0.82493186010E+02  0.00000000000E+00 0. -1.
        -14    1    4    4    0    0  0.14131277035E+02  0.21179959643E+02 -0.17870461962E+02  0.31106865671E+02  0.00000000000E+00 0.  1.
</event>
<event>
12    1  0.8416569E-002  0.2550019E+03  0.7818608E-02  0.1110372E+00
         21   -1    0    0  501  502  0.00000000000E+00  0.00000000000E+00  0.61909853632E+02  0.61909853632E+02  0.00000000000E+00 0. -1.
         21   -1    0    0  502  503 -0.00000000000E+00 -0.00000000000E+00 -0.11550068693E+04  0.11550068693E+04  0.00000000000E+00 0. -1.
         -6    2    1    2    0  503 -0.11700692226E+03 -0.14645263222E+03 -0.73286092700E+03  0.77555971422E+03  0.17108108798E+03 0.  0.
        -24    2    3    3    0    0 -0.98808464060E+01 -0.86972334682E+02 -0.48279650641E+03  0.49704902077E+03  0.79394233559E+02 0.  0.
          6    2    1    2  501    0  0.11700692226E+03  0.14645263222E+03 -0.36023608870E+03  0.44135700874E+03  0.17287850133E+03 0.  0.
         24    2    5    5    0    0 -0.33534472367E+01  0.95048466752E+02 -0.17999263332E+03  0.21855934273E+03  0.79532267691E+02 0.  0.
          5    1    5    5  501    0  0.12036036950E+03  0.51404165465E+02 -0.18024345538E+03  0.22279766601E+03  0.47000000000E+01 0. -1.
        -11    1    6    6    0    0 -0.25171021304E+02  0.58413528243E+02 -0.15854819218E+03  0.17083105642E+03  0.00000000000E+00 0.  1.
         12    1    6    6    0    0  0.21817574067E+02  0.36634938509E+02 -0.21444441139E+02  0.47728286304E+02  0.00000000000E+00 0. -1.
         -5    1    3    3    0  503 -0.10712607585E+03 -0.59480297535E+02 -0.25006442059E+03  0.27851069345E+03  0.47000000000E+01 0.  1.
         11    1    4    4    0    0  0.13969881290E+02 -0.63090179801E+02 -0.16094347474E+03  0.17343105383E+03  0.00000000000E+00 0. -1.
        -12    1    4    4    0    0 -0.23850727696E+02 -0.23882154881E+02 -0.32185303167E+03  0.32361796694E+03  0.00000000000E+00 0.  1.
</event>
<event>
12    1  0.8416569E-002  0.2599377E+03  0.7818608E-02  0.1107233E+00
         21   -1    0    0  501  502  0.00000000000E+00  0.00000000000E+00  0.12435662388E+04  0.12435662388E+04  0.00000000000E+00 0. -1.
         21   -1    0    0  502  503 -0.00000000000E+00 -0.00000000000E+00 -0.75597955503E+02  0.75597955503E+02  0.00000000000E+00 0.  1.
         -6    2    1    2    0  503 -0.15717994388E+03  0.11637779059E+03  0.23328528424E+03  0.34900961583E+03  0.17069377023E+03 0.  0.
        -24    2    3    3    0    0 -0.93962318652E+02  0.29486747687E+02  0.47775619640E+02  0.13457443416E+03  0.78290375412E+02 0.  0.
          6    2    1    2  501    0  0.15717994388E+03 -0.11637779059E+03  0.93468299906E+03  0.97015457848E+03  0.17122579396E+03 0.  0.
         24    2    5    5    0    0  0.15189915989E+03 -0.32692004308E+02  0.67465888761E+03  0.69690409625E+03  0.79803401032E+02 0.  0.
          5    1    5    5  501    0  0.52807839879E+01 -0.83685786278E+02  0.26002411144E+03  0.27325048222E+03  0.47000000000E+01 0. -1.
        -13    1    6    6    0    0  0.36293067343E+01  0.82629341931E+01  0.61371138017E+01  0.10913849672E+02  0.00000000000E+00 0.  1.
         14    1    6    6    0    0  0.14826985316E+03 -0.40954938501E+02  0.66852177381E+03  0.68599024658E+03  0.00000000000E+00 0. -1.
         -5    1    3    3    0  503 -0.63217625227E+02  0.86891042898E+02  0.18550966460E+03  0.21443518166E+03  0.47000000000E+01 0.  1.
         11    1    4    4    0    0 -0.29722156347E+02 -0.22807718613E+02 -0.27187352942E+01  0.37563148535E+02  0.00000000000E+00 0. -1.
        -12    1    4    4    0    0 -0.64240162305E+02  0.52294466300E+02  0.50494354935E+02  0.97011285626E+02  0.00000000000E+00 0.  1.
</event>
<event>
12    1  0.8416569E-002  0.1951074E+03  0.7818608E-02  0.1153959E+00
         21   -1    0    0  503  502  0.00000000000E+00  0.00000000000E+00  0.16159900040E+03  0.16159900040E+03  0.00000000000E+00 0.  1.
         21   -1    0    0  501  503 -0.00000000000E+00 -0.00000000000E+00 -0.59120387118E+03  0.59120387118E+03  0.00000000000E+00 0. -1.
          6    2    1    2  501    0 -0.14717256854E+02  0.90395824790E+02 -0.50681998218E+03  0.54307770301E+03  0.17227563492E+03 0.  0.
         24    2    3    3    0    0 -0.30867888959E+02  0.17489848838E+02 -0.12213334373E+03  0.15118227813E+03  0.81736198759E+02 0.  0.
         -6    2    1    2    0  502  0.14717256854E+02 -0.90395824790E+02  0.77215111391E+02  0.20972516857E+03  0.17214665293E+03 0.  0.
        -24    2    5    5    0    0  0.68557273528E+02 -0.50486299481E+02  0.15683082325E+02  0.11862194027E+03  0.81094016133E+02 0.  0.
          5    1    3    3  501    0  0.16150632105E+02  0.72905975952E+02 -0.38468663845E+03  0.39189542489E+03  0.47000000000E+01 0. -1.
        -11    1    4    4    0    0  0.25038915529E+02 -0.28285084591E+01 -0.17029633906E+02  0.30413092279E+02  0.00000000000E+00 0.  1.
         12    1    4    4    0    0 -0.55906804488E+02  0.20318357297E+02 -0.10510370983E+03  0.12076918585E+03  0.00000000000E+00 0. -1.
         -5    1    5    5    0  502 -0.53840016674E+02 -0.39909525309E+02  0.61532029066E+02  0.91103228301E+02  0.47000000000E+01 0.  1.
         13    1    6    6    0    0  0.29197294376E+02 -0.45112190919E+01 -0.30521966279E+02  0.42478506590E+02  0.00000000000E+00 0. -1.
        -14    1    6    6    0    0  0.39359979151E+02 -0.45975080389E+02  0.46205048604E+02  0.76143433677E+02  0.00000000000E+00 0.  1.
</event>
<event>
12    1  0.8416569E-002  0.1726523E+03  0.7818608E-02  0.1175168E+00
         21   -1    0    0  503  502  0.00000000000E+00  0.00000000000E+00  0.23803022224E+03  0.23803022224E+03  0.00000000000E+00 0. -1.
         21   -1    0    0  501  503 -0.00000000000E+00 -0.00000000000E+00 -0.16362596663E+03  0.16362596663E+03  0.00000000000E+00 0. -1.
          6    2    1    2  501    0 -0.95720792914E+01  0.21980109886E+01 -0.60270890457E+02  0.18286988060E+03  0.17237272707E+03 0.  0.
         24    2    3    3    0    0 -0.63828846059E+02 -0.30170164679E+02 -0.52052668977E+02  0.11898619958E+03  0.80398227074E+02 0.  0.
         -6    2    1    2    0  502  0.95720792914E+01 -0.21980109886E+01  0.13467514607E+03  0.21878630828E+03  0.17214411918E+03 0.  0.
        -24    2    5    5    0    0  0.30726233081E+02  0.37196737014E+02  0.21884344883E+02  0.97364320056E+02  0.81689580885E+02 0.  0.
          5    1    3    3  501    0  0.54256766768E+02  0.32368175667E+02 -0.82182214800E+01  0.63883681018E+02  0.47000000000E+01 0. -1.
        -11    1    4    4    0    0 -0.41407729584E+02 -0.27181992859E+02  0.12077750617E+02  0.50983652920E+02  0.00000000000E+00 0.  1.
         12    1    4    4    0    0 -0.22421116475E+02 -0.29881718191E+01 -0.64130419594E+02  0.68002546659E+02  0.00000000000E+00 0. -1.
         -5    1    5    5    0  502 -0.21154153789E+02 -0.39394748002E+02  0.11279080118E+03  0.12142198822E+03  0.47000000000E+01 0.  1.
         11    1    6    6    0    0  0.80886168360E+00 -0.19797490479E+02  0.26202273484E+02  0.32850479787E+02  0.00000000000E+00 0. -1.
        -12    1    6    6    0    0  0.29917371397E+02  0.56994227493E+02 -0.43179286007E+01  0.64513840269E+02  0.00000000000E+00 0.  1.
</event>
<event>
12    1  0.8416569E-002  0.1747429E+03  0.7818608E-02  0.1173197E+00
         21   -1    0    0  503  502  0.00000000000E+00  0.00000000000E+00  0.23537126942E+03  0.23537126942E+03  0.00000000000E+00 0. -1.
         21   -1    0    0  501  503 -0.00000000000E+00 -0.00000000000E+00 -0.12958491004E+03  0.12958491004E+03  0.00000000000E+00 0. -1.
          6    2    1    2  501    0  0.30710693406E+02  0.22565275094E+01  0.63907598042E+02  0.18606250450E+03  0.17200824366E+03 0.  0.
         24    2    3    3    0    0 -0.12150973531E+02 -0.17275913170E+02 -0.23125063901E+02  0.86989738433E+02  0.81156285515E+02 0.  0.
         -6    2    1    2    0  502 -0.30710693406E+02 -0.22565275094E+01  0.41878761340E+02  0.17889367495E+03  0.17117499140E+03 0.  0.
        -24    2    5    5    0    0 -0.37399844028E+02 -0.30519265249E+02 -0.31946509961E+02  0.99421744290E+02  0.80832727619E+02 0.  0.
          5    1    3    3  501    0  0.42861666937E+02  0.19532440679E+02  0.87032661943E+02  0.99072766068E+02  0.47000000000E+01 0. -1.
        -13    1    4    4    0    0 -0.10306483610E+02  0.28333946565E+02 -0.27919142389E+02  0.41091539812E+02  0.00000000000E+00 0.  1.
         14    1    4    4    0    0 -0.18444899216E+01 -0.45609859735E+02  0.47940784881E+01  0.45898198621E+02  0.00000000000E+00 0. -1.
         -5    1    5    5    0  502  0.66891506219E+01  0.28262737740E+02  0.73825271300E+02  0.79471930662E+02  0.47000000000E+01 0.  1.
         13    1    6    6    0    0  0.69955965195E+01 -0.35125772301E+02  0.11015060836E+02  0.37471186472E+02  0.00000000000E+00 0. -1.
        -14    1    6    6    0    0 -0.44395440547E+02  0.46065070518E+01 -0.42961570797E+02  0.61950557817E+02  0.00000000000E+00 0.  1.
</event>
<event>
12    1  0.8416569E-002  0.1779348E+03  0.7818608E-02  0.1170258E+00
         21   -1    0    0  501  502  0.00000000000E+00  0.00000000000E+00  0.47504663708E+03  0.47504663708E+03  0.00000000000E+00 0. -1.
         21   -1    0    0  502  503 -0.00000000000E+00 -0.00000000000E+00 -0.16977857506E+03  0.16977857506E+03  0.00000000000E+00 0. -1.
         -6    2    1    2    0  503 -0.45964071222E+01  0.44701932771E+02 -0.99161231699E+02  0.20370016981E+03  0.17216683640E+03 0.  0.
        -24    2    3    3    0    0  0.56042087796E+02 -0.69498971097E+01 -0.58389931674E+02  0.11409365497E+03  0.80118420537E+02 0.  0.
          6    2    1    2  501    0  0.45964071222E+01 -0.44701932771E+02  0.40442929371E+03  0.44112504233E+03  0.17031987437E+03 0.  0.
         24    2    5    5    0    0  0.58949541359E+02 -0.22341997636E+01  0.29454297286E+03  0.31129875432E+03  0.81678096846E+02 0.  0.
          5    1    5    5  501    0 -0.54353134236E+02 -0.42467733008E+02  0.10988632085E+03  0.12982628801E+03  0.47000000000E+01 0. -1.
        -11    1    6    6    0    0 -0.46061244422E+01  0.29345628380E+02  0.92658748081E+02  0.97303781444E+02  0.00000000000E+00 0.  1.
         12    1    6    6    0    0  0.63555665801E+02 -0.31579828144E+02  0.20188422478E+03  0.21399497288E+03  0.00000000000E+00 0. -1.
         -5    1    3    3    0  503 -0.60638494918E+02  0.51651829881E+02 -0.40771300025E+02  0.89606514839E+02  0.47000000000E+01 0.  1.
         13    1    4    4    0    0  0.64176047036E+02  0.54153524649E+01 -0.70119699008E+02  0.95208525062E+02  0.00000000000E+00 0. -1.
        -14    1    4    4    0    0 -0.81339592401E+01 -0.12365249575E+02  0.11729767334E+02  0.18885129909E+02  0.00000000000E+00 0.  1.
</event>
<event>
12    1  0.8416569E-002  0.2762479E+03  0.7818608E-02  0.1097777E+00
         21   -1    0    0  503  502  0.00000000000E+00  0.00000000000E+00  0.10893344861E+04  0.10893344861E+04  0.00000000000E+00 0.  1.
         21   -1    0    0  501  503 -0.00000000000E+00 -0.00000000000E+00 -0.36985139412E+03  0.36985139412E+03  0.00000000000E+00 0. -1.
          6    2    1    2  501    0  0.14064960186E+03 -0.16306321327E+03 -0.29715320620E+03  0.40572520150E+03  0.17303464726E+03 0.  0.
         24    2    3    3    0    0  0.20847860464E+02 -0.12566432196E+03 -0.15012150327E+03  0.21235626403E+03  0.79577396476E+02 0.  0.
         -6    2    1    2    0  502 -0.14064960186E+03  0.16306321327E+03  0.10166362982E+04  0.10534606787E+04  0.17279501381E+03 0.  0.
        -24    2    5    5    0    0 -0.13762357803E+03  0.73077820139E+02  0.52493951803E+03  0.55356634847E+03  0.81200908542E+02 0.  0.
          5    1    3    3  501    0  0.11980174139E+03 -0.37398891316E+02 -0.14703170293E+03  0.19336893747E+03  0.47000000000E+01 0. -1.
        -13    1    4    4    0    0  0.14401302990E+02 -0.10484166620E+03 -0.64342994119E+02  0.12385149733E+03  0.00000000000E+00 0.  1.
         14    1    4    4    0    0  0.64465574737E+01 -0.20822655757E+02 -0.85778509150E+02  0.88504766697E+02  0.00000000000E+00 0. -1.
         -5    1    5    5    0  502 -0.30260238294E+01  0.89985393133E+02  0.49169678017E+03  0.49989433026E+03  0.47000000000E+01 0.  1.
         11    1    6    6    0    0  0.98086534098E+01  0.16163537524E+01  0.54859289978E+02  0.55752703774E+02  0.00000000000E+00 0. -1.
        -12    1    6    6    0    0 -0.14743223144E+03  0.71461466387E+02  0.47008022805E+03  0.49781364470E+03  0.00000000000E+00 0.  1.
</event>
<event>
12    1  0.8416569E-002  0.3057917E+03  0.7818608E-02  0.1083107E+00
         21   -1    0    0  501  502  0.00000000000E+00  0.00000000000E+00  0.12934747405E+04  0.12934747405E+04  0.00000000000E+00 0.  1.
         21   -1    0    0  502  503 -0.00000000000E+00 -0.00000000000E+00 -0.75289156069E+02  0.75289156069E+02  0.00000000000E+00 0. -1.
         -6    2    1    2    0  503 -0.94716625144E+01 -0.24518613638E+03  0.43837667118E+03  0.53114196573E+03  0.17242890727E+03 0.  0.
        -24    2    3    3    0    0 -0.58766051632E+02 -0.12228978713E+03  0.30535621351E+03  0.34339218113E+03  0.79167746430E+02 0.  0.
          6    2    1    2  501    0  0.94716625144E+01  0.24518613638E+03  0.77980891329E+03  0.83762193088E+03  0.18249001061E+03 0.  0.
         24    2    5    5    0    0  0.40584325907E+02  0.17498835533E+03  0.35540833789E+03  0.40630573052E+03  0.80630316897E+02 0.  0.
          5    1    5    5  501    0 -0.31112663393E+02  0.70197781051E+02  0.42440057541E+03  0.43131620036E+03  0.47000000000E+01 0. -1.
        -13    1    6    6    0    0 -0.20860751038E+02  0.87719310611E+02  0.16163436835E+03  0.18508246113E+03  0.00000000000E+00 0.  1.
         14    1    6    6    0    0  0.61445076945E+02  0.87269044717E+02  0.19377396954E+03  0.22122326939E+03  0.00000000000E+00 0. -1.
         -5    1    3    3    0  503  0.49294389118E+02 -0.12289634925E+03  0.13302045767E+03  0.18774978460E+03  0.47000000000E+01 0.  1.
         11    1    4    4    0    0 -0.31044102358E+02 -0.47386848415E+02  0.49063704495E+02  0.74943290511E+02  0.00000000000E+00 0. -1.
        -12    1    4    4    0    0 -0.27721949274E+02 -0.74902938711E+02  0.25629250901E+03  0.26844889062E+03  0.00000000000E+00 0.  1.
</event>
<event>
12    1  0.8416569E-002  0.1947382E+03  0.7818608E-02  0.1154657E+00
         21   -1    0    0  501  502  0.00000000000E+00  0.00000000000E+00  0.92234636767E+02  0.92234636767E+02  0.00000000000E+00 0.  1.
         21   -1    0    0  502  503 -0.00000000000E+00 -0.00000000000E+00 -0.75489256438E+03  0.75489256438E+03  0.00000000000E+00 0.  1.
         -6    2    1    2    0  503 -0.43565020257E+02 -0.77682782452E+02 -0.61958287934E+03  0.64946587569E+03  0.17317752057E+03 0.  0.
        -24    2    3    3    0    0 -0.87633024048E+02 -0.20977177125E+02 -0.44100426677E+03  0.45693035818E+03  0.78619336391E+02 0.  0.
          6    2    1    2  501    0  0.43565020257E+02  0.77682782452E+02 -0.43075048273E+02  0.19766132546E+03  0.17111988230E+03 0.  0.
         24    2    5    5    0    0 -0.34897032134E+02  0.98315598172E+01 -0.25104502707E+02  0.92280527463E+02  0.81061688069E+02 0.  0.
          5    1    5    5  501    0  0.78462052391E+02  0.67851222635E+02 -0.17970545566E+02  0.10538079800E+03  0.47000000000E+01 0. -1.
        -11    1    6    6    0    0  0.16054240783E+02  0.20711694016E+02  0.11489371097E+02  0.28613258541E+02  0.00000000000E+00 0.  1.
         12    1    6    6    0    0 -0.50951272917E+02 -0.10880134199E+02 -0.36593873804E+02  0.63667268922E+02  0.00000000000E+00 0. -1.
         -5    1    3    3    0  503  0.44068003791E+02 -0.56705605327E+02 -0.17857861257E+03  0.19253551751E+03  0.47000000000E+01 0.  1.
         11    1    4    4    0    0 -0.54329418969E+02 -0.13839464214E+02 -0.10347762635E+03  0.11768957342E+03  0.00000000000E+00 0. -1.
        -12    1    4    4    0    0 -0.33303605079E+02 -0.71377129108E+01 -0.33752664042E+03  0.33924078477E+03  0.00000000000E+00 0.  1.
</event>
<event>
12    1  0.8416569E-002  0.1809627E+03  0.7818608E-02  0.1167159E+00
         21   -1    0    0  503  502  0.00000000000E+00  0.00000000000E+00  0.35904854709E+02  0.35904854709E+02  0.00000000000E+00 0.  1.
         21   -1    0    0  501  503 -0.00000000000E+00 -0.00000000000E+00 -0.96375187276E+03  0.96375187276E+03  0.00000000000E+00 0. -1.
          6    2    1    2  501    0  0.52122383683E+02  0.19953185721E+02 -0.34313874118E+03  0.38793259925E+03  0.17214131801E+03 0.  0.
         24    2    3    3    0    0  0.70834051861E+02  0.69262047822E+02 -0.25952685480E+03  0.28896529177E+03  0.79574225170E+02 0.  0.
         -6    2    1    2    0  502 -0.52122383683E+02 -0.19953185721E+02 -0.58470827688E+03  0.61172412822E+03  0.17090280131E+03 0.  0.
        -24    2    5    5    0    0  0.23600218094E+02 -0.96086916205E+00 -0.16001465137E+03  0.17988922220E+03  0.78724519990E+02 0.  0.
          5    1    3    3  501    0 -0.18711668178E+02 -0.49308862101E+02 -0.83611886372E+02  0.98967307482E+02  0.47000000000E+01 0. -1.
        -11    1    4    4    0    0  0.13363128905E+02  0.54825719646E+02 -0.67381328022E+02  0.87890136619E+02  0.00000000000E+00 0.  1.
         12    1    4    4    0    0  0.57470922956E+02  0.14436328176E+02 -0.19214552678E+03  0.20107515515E+03  0.00000000000E+00 0. -1.
         -5    1    5    5    0  502 -0.75722601777E+02 -0.18992316559E+02 -0.42469362551E+03  0.43183490602E+03  0.47000000000E+01 0.  1.
         13    1    6    6    0    0  0.30121786130E+02 -0.23553494345E+02 -0.14917215600E+03  0.15399487401E+03  0.00000000000E+00 0. -1.
        -14    1    6    6    0    0 -0.65215680368E+01  0.22592625183E+02 -0.10842495364E+02  0.25894348187E+02  0.00000000000E+00 0.  1.
</event>
<event>
12    1  0.8416569E-002  0.1952258E+03  0.7818608E-02  0.1154153E+00
         21   -1    0    0  501  502  0.00000000000E+00  0.00000000000E+00  0.11248068746E+04  0.11248068746E+04  0.00000000000E+00 0.  1.
         21   -1    0    0  502  503 -0.00000000000E+00 -0.00000000000E+00 -0.71367356935E+02  0.71367356935E+02  0.00000000000E+00 0.  1.
         -6    2    1    2    0  503  0.45251681138E+02  0.79119006034E+02  0.92743876125E+02  0.21613549788E+03  0.17264297010E+03 0.  0.
        -24    2    3    3    0    0  0.74360314002E+02 -0.19123624659E+01  0.51995266362E+02  0.12076288973E+03  0.79668402668E+02 0.  0.
          6    2    1    2  501    0 -0.45251681138E+02 -0.79119006034E+02  0.96069564155E+03  0.98003873366E+03  0.17097447769E+03 0.  0.
         24    2    5    5    0    0 -0.26496306407E+02  0.87356994869E+01  0.68335600578E+03  0.68847471508E+03  0.79016681570E+02 0.  0.
          5    1    5    5  501    0 -0.18755374731E+02 -0.87854705521E+02  0.27733963577E+03  0.29156401858E+03  0.47000000000E+01 0. -1.
        -13    1    6    6    0    0 -0.54757519134E+02  0.75105690779E+01  0.42676331232E+03  0.43032745588E+03  0.00000000000E+00 0.  1.
         14    1    6    6    0    0  0.28261212727E+02  0.12251304090E+01  0.25659269347E+03  0.25814725919E+03  0.00000000000E+00 0. -1.
         -5    1    3    3    0  503 -0.29108632863E+02  0.81031368500E+02  0.40748609763E+02  0.95372608152E+02  0.47000000000E+01 0.  1.
         11    1    4    4    0    0 -0.58258483017E+01  0.12647757026E+02  0.34784278648E+02  0.37468017125E+02  0.00000000000E+00 0. -1.
        -12    1    4    4    0    0  0.80186162303E+02 -0.14560119492E+02  0.17210987714E+02  0.83294872607E+02  0.00000000000E+00 0.  1.
</event>
<event>
12    1  0.8416569E-002  0.1782427E+03  0.7818608E-02  0.1170461E+00
         21   -1    0    0  503  502  0.00000000000E+00  0.00000000000E+00  0.11976317393E+03  0.11976317393E+03  0.00000000000E+00 0. -1.
         21   -1    0    0  501  503 -0.00000000000E+00 -0.00000000000E+00 -0.31013635584E+03  0.31013635584E+03  0.00000000000E+00 0. -1.
          6    2    1    2  501    0  0.18301877843E+02 -0.15335295870E+02 -0.18278964218E+03  0.25530867009E+03  0.17663616194E+03 0.  0.
         24    2    3    3    0    0  0.60983318646E+02  0.24867628601E+02 -0.16152094755E+03  0.19275926645E+03  0.82035079073E+02 0.  0.
         -6    2    1    2    0  502 -0.18301877843E+02  0.15335295870E+02 -0.75835397197E+01  0.17459085967E+03  0.17278405070E+03 0.  0.
        -24    2    5    5    0    0 -0.46334185777E+02 -0.64774254932E+01 -0.51702091331E+02  0.11775652412E+03  0.94892986637E+02 0.  0.
          5    1    3    3  501    0 -0.42681440804E+02 -0.40202924471E+02 -0.21268694628E+02  0.62549403645E+02  0.47000000000E+01 0. -1.
        -13    1    4    4    0    0  0.33099029653E+02 -0.25889196480E+02 -0.98941058847E+02  0.10749478771E+03  0.00000000000E+00 0.  1.
         14    1    4    4    0    0  0.27884288993E+02  0.50756825080E+02 -0.62579888707E+02  0.85264478744E+02  0.00000000000E+00 0. -1.
         -5    1    5    5    0  502  0.28032307934E+02  0.21812721364E+02  0.44118551611E+02  0.56834335552E+02  0.47000000000E+01 0.  1.
         11    1    6    6    0    0 -0.74227313578E+01  0.19093635562E+00  0.27916761831E+02  0.28887349976E+02  0.00000000000E+00 0. -1.
        -12    1    6    6    0    0 -0.38911454419E+02 -0.66683618488E+01 -0.79618853162E+02  0.88869174147E+02  0.00000000000E+00 0.  1.
</event>
<event>
12    1  0.8416569E-002  0.2189503E+03  0.7818608E-02  0.1135165E+00
         21   -1    0    0  501  502  0.00000000000E+00  0.00000000000E+00  0.12556722792E+03  0.12556722792E+03  0.00000000000E+00 0. -1.
         21   -1    0    0  502  503 -0.00000000000E+00 -0.00000000000E+00 -0.59669979647E+03  0.59669979647E+03  0.00000000000E+00 0. -1.
         -6    2    1    2    0  503  0.12082291715E+03  0.52775800303E+02 -0.45369326124E+03  0.50262329372E+03  0.17149092596E+03 0.  0.
        -24    2    3    3    0    0  0.12536373868E+03  0.40748705003E+02 -0.46191555205E+03  0.48665563429E+03  0.78046173695E+02 0.  0.
          6    2    1    2  501    0 -0.12082291715E+03 -0.52775800303E+02 -0.17439307308E+02  0.21964373068E+03  0.17480210691E+03 0.  0.
         24    2    5    5    0    0  0.70356493690E+01 -0.15037063709E+02  0.15796925289E+02  0.82170960901E+02  0.78910774421E+02 0.  0.
          5    1    5    5  501    0 -0.12785856652E+03 -0.37738736594E+02 -0.33236232598E+02  0.13747276978E+03  0.47000000000E+01 0. -1.
        -11    1    6    6    0    0 -0.13201261048E+02 -0.15980989614E+02 -0.27459901636E+02  0.34405108925E+02  0.00000000000E+00 0.  1.
         12    1    6    6    0    0  0.20236910417E+02  0.94392590539E+00  0.43256826925E+02  0.47765851976E+02  0.00000000000E+00 0. -1.
         -5    1    3    3    0  503 -0.45408215263E+01  0.12027095300E+02  0.82222908083E+01  0.15967659429E+02  0.47000000000E+01 0.  1.
         11    1    4    4    0    0  0.99201817108E+02  0.52651444966E+02 -0.26739197177E+03  0.29002007127E+03  0.00000000000E+00 0. -1.
        -12    1    4    4    0    0  0.26161921569E+02 -0.11902739963E+02 -0.19452358028E+03  0.19663556302E+03  0.00000000000E+00 0.  1.
</event>
<event>
12    1  0.8416569E-002  0.1731446E+03  0.7818608E-02  0.1174682E+00
         21   -1    0    0  503  502  0.00000000000E+00  0.00000000000E+00  0.16522164725E+03  0.16522164725E+03  0.00000000000E+00 0.  1.
         21   -1    0    0  501  503 -0.00000000000E+00 -0.00000000000E+00 -0.23098330391E+03  0.23098330391E+03  0.00000000000E+00 0.  1.
          6    2    1    2  501    0 -0.42513250582E+01 -0.82230900681E+01 -0.12488224070E+03  0.21324515220E+03  0.17260425233E+03 0.  0.
         24    2    3    3    0    0 -0.45946299465E+02  0.54050074484E+01 -0.13901943197E+03  0.16691863593E+03  0.79969694361E+02 0.  0.
         -6    2    1    2    0  502  0.42513250582E+01  0.82230900681E+01  0.59120584039E+02  0.18295979895E+03  0.17289693925E+03 0.  0.
        -24    2    5    5    0    0  0.50509282798E+02  0.56788687575E+01  0.85091217990E+02  0.12964155119E+03  0.83564222117E+02 0.  0.
          5    1    3    3  501    0  0.41694974406E+02 -0.13628097516E+02  0.14137191275E+02  0.46326516271E+02  0.47000000000E+01 0. -1.
        -11    1    4    4    0    0  0.14253382310E+02 -0.14093063275E+02 -0.83118281306E+01  0.21699304750E+02  0.00000000000E+00 0.  1.
         12    1    4    4    0    0 -0.60199681775E+02  0.19498070723E+02 -0.13070760384E+03  0.14521933118E+03  0.00000000000E+00 0. -1.
         -5    1    5    5    0  502 -0.46257957739E+02  0.25442213105E+01 -0.25970633952E+02  0.53318247759E+02  0.47000000000E+01 0.  1.
         13    1    6    6    0    0  0.11995062510E+02 -0.31296768989E+02  0.57458840951E+01  0.34005653321E+02  0.00000000000E+00 0. -1.
        -14    1    6    6    0    0  0.38514220287E+02  0.36975637746E+02  0.79345333895E+02  0.95635897873E+02  0.00000000000E+00 0.  1.
</event>
<event>
12    1  0.8416569E-002  0.2179310E+03  0.7818608E-02  0.1136125E+00
         21   -1    0    0  501  502  0.00000000000E+00  0.00000000000E+00  0.83488892966E+02  0.83488892966E+02  0.00000000000E+00 0.  1.
         21   -1    0    0  502  503 -0.00000000000E+00 -0.00000000000E+00 -0.61712056050E+03  0.61712056050E+03  0.00000000000E+00 0.  1.
         -6    2    1    2    0  503  0.74427807179E+02  0.10648336552E+03 -0.37592586683E+03  0.43452754946E+03  0.17497350734E+03 0.  0.
        -24    2    3    3    0    0  0.44599716091E+02 -0.10583020442E+02 -0.16322225804E+03  0.18986621428E+03  0.85478294356E+02 0.  0.
          6    2    1    2  501    0 -0.74427807179E+02 -0.10648336552E+03 -0.15770580071E+03  0.26608190401E+03  0.17044135194E+03 0.  0.
         24    2    5    5    0    0 -0.57285209507E+02 -0.76071539200E+02 -0.30077068423E+02  0.13368125772E+03  0.88868297581E+02 0.  0.
          5    1    5    5  501    0 -0.17142597672E+02 -0.30411826323E+02 -0.12762873229E+03  0.13240064630E+03  0.47000000000E+01 0. -1.
        -13    1    6    6    0    0 -0.55296708110E+02 -0.27106710142E+02 -0.51422086357E+02  0.80229237986E+02  0.00000000000E+00 0.  1.
         14    1    6    6    0    0 -0.19885013971E+01 -0.48964829059E+02  0.21345017934E+02  0.53452019730E+02  0.00000000000E+00 0. -1.
         -5    1    3    3    0  503  0.29828091088E+02  0.11706638596E+03 -0.21270360878E+03  0.24466133518E+03  0.47000000000E+01 0.  1.
         13    1    4    4    0    0 -0.20165028980E+02  0.47400870813E+01 -0.83424637030E+02  0.85957936707E+02  0.00000000000E+00 0. -1.
        -14    1    4    4    0    0  0.64764745071E+02 -0.15323107523E+02 -0.79797621015E+02  0.10390827757E+03  0.00000000000E+00 0.  1.
</event>
<event>
12    1  0.8416569E-002  0.2132027E+03  0.7818608E-02  0.1139442E+00
         21   -1    0    0  501  502  0.00000000000E+00  0.00000000000E+00  0.22139558068E+03  0.22139558068E+03  0.00000000000E+00 0.  1.
         21   -1    0    0  502  503 -0.00000000000E+00 -0.00000000000E+00 -0.36790103006E+03  0.36790103006E+03  0.00000000000E+00 0.  1.
         -6    2    1    2    0  503 -0.12277847560E+03  0.57515685947E+01 -0.27008492512E+03  0.34286754634E+03  0.17176918509E+03 0.  0.
        -24    2    3    3    0    0 -0.10645344909E+02  0.45152300762E+02 -0.11882536077E+03  0.15044145013E+03  0.79756566656E+02 0.  0.
          6    2    1    2  501    0  0.12277847560E+03 -0.57515685947E+01  0.12357947575E+03  0.24642906440E+03  0.17420609158E+03 0.  0.
         24    2    5    5    0    0  0.14074560007E+03  0.36429375211E+02  0.10639408554E+03  0.19724088270E+03  0.80298449875E+02 0.  0.
          5    1    5    5  501    0 -0.17967124473E+02 -0.42180943806E+02  0.17185390204E+02  0.49188181697E+02  0.47000000000E+01 0. -1.
        -11    1    6    6    0    0  0.11108353185E+03  0.46827742233E+01  0.40533646401E+02  0.11834042384E+03  0.00000000000E+00 0.  1.
         12    1    6    6    0    0  0.29662068221E+02  0.31746600988E+02  0.65860439140E+02  0.78900458865E+02  0.00000000000E+00 0. -1.
         -5    1    3    3    0  503 -0.11213313069E+03 -0.39400732168E+02 -0.15125956435E+03  0.19242609621E+03  0.47000000000E+01 0.  1.
         11    1    4    4    0    0 -0.16622798609E+02 -0.15425885554E+01  0.54398003137E+01  0.17558144563E+02  0.00000000000E+00 0. -1.
        -12    1    4    4    0    0  0.59774537000E+01  0.46694889318E+02 -0.12426516108E+03  0.13288330557E+03  0.00000000000E+00 0.  1.
</event>
<event>
12    1  0.8416569E-002  0.2628091E+03  0.7818608E-02  0.1106030E+00
         21   -1    0    0  503  502  0.00000000000E+00  0.00000000000E+00  0.95009655678E+03  0.95009655678E+03  0.00000000000E+00 0. -1.
         21   -1    0    0  501  503 -0.00000000000E+00 -0.00000000000E+00 -0.98708424435E+02  0.98708424435E+02  0.00000000000E+00 0. -1.
          6    2    1    2  501    0  0.16687264494E+03 -0.10709237622E+03  0.69797799693E+03  0.74449709219E+03  0.16669546905E+03 0.  0.
         24    2    3    3    0    0  0.43690551022E+02 -0.99102161698E+02  0.40109738225E+03  0.42294171412E+03  0.79186367477E+02 0.  0.
         -6    2    1    2    0  502 -0.16687264494E+03  0.10709237622E+03  0.15341013541E+03  0.30430788903E+03  0.17249163749E+03 0.  0.
        -24    2    5    5    0    0 -0.50520258040E+02  0.31718092252E+02 -0.18367105225E+01  0.96118470964E+02  0.75346221580E+02 0.  0.
          5    1    3    3  501    0  0.12318209391E+03 -0.79902145265E+01  0.29688061468E+03  0.32155537807E+03  0.47000000000E+01 0. -1.
        -11    1    4    4    0    0  0.31276046567E+02 -0.83759539890E+02  0.39037125340E+03  0.40047917186E+03  0.00000000000E+00 0.  1.
         12    1    4    4    0    0  0.12414504455E+02 -0.15342621809E+02  0.10726128851E+02  0.22462542264E+02  0.00000000000E+00 0. -1.
         -5    1    5    5    0  502 -0.11635238690E+03  0.75374283973E+02  0.15524684594E+03  0.20818941806E+03  0.47000000000E+01 0.  1.
         13    1    6    6    0    0 -0.23017753923E+02  0.44098085457E+02 -0.27214439457E+02  0.56701709424E+02  0.00000000000E+00 0. -1.
        -14    1    6    6    0    0 -0.27502504116E+02 -0.12379993205E+02  0.25377728935E+02  0.39416761540E+02  0.00000000000E+00 0.  1.
</event>
<event>
12    1  0.8416569E-002  0.2676370E+03  0.7818608E-02  0.1103760E+00
         21   -1    0    0  503  502  0.00000000000E+00  0.00000000000E+00  0.43455287021E+03  0.43455287021E+03  0.00000000000E+00 0.  1.
         21   -1    0    0  501  503 -0.00000000000E+00 -0.00000000000E+00 -0.26191820423E+03  0.26191820423E+03  0.00000000000E+00 0.  1.
          6    2    1    2  501    0  0.19288135036E+03 -0.30314537069E+02 -0.13147584009E+03  0.29136271483E+03  0.17170948893E+03 0.  0.
         24    2    3    3    0    0  0.16696150618E+03 -0.10049462447E+02 -0.34207064281E+02  0.18857255811E+03  0.80077151430E+02 0.  0.
         -6    2    1    2    0  502 -0.19288135036E+03  0.30314537069E+02  0.30411050607E+03  0.40510835962E+03  0.18305025719E+03 0.  0.
        -24    2    5    5    0    0 -0.18242870646E+03  0.40352661369E+02  0.15576043165E+03  0.25597802641E+03  0.79717424163E+02 0.  0.
          5    1    3    3  501    0  0.25919844180E+02 -0.20265074622E+02 -0.97268775807E+02  0.10279015672E+03  0.47000000000E+01 0. -1.
        -13    1    4    4    0    0  0.25474314487E+02  0.28839314908E+02 -0.10947459173E+02  0.40006170090E+02  0.00000000000E+00 0.  1.
         14    1    4    4    0    0  0.14148719170E+03 -0.38888777354E+02 -0.23259605108E+02  0.14856638802E+03  0.00000000000E+00 0. -1.
         -5    1    5    5    0  502 -0.10452643900E+02 -0.10038124300E+02  0.14835007442E+03  0.14913033321E+03  0.47000000000E+01 0.  1.
         13    1    6    6    0    0 -0.13007683907E+02  0.27590148336E+02  0.99418838874E+01  0.32082038293E+02  0.00000000000E+00 0. -1.
        -14    1    6    6    0    0 -0.16942102256E+03  0.12762513034E+02  0.14581854777E+03  0.22389598812E+03  0.00000000000E+00 0.  1.
</event>
<event>
12    1  0.8416569E-002  0.3322531E+03  0.7818608E-02  0.1070180E+00
         21   -1    0    0  501  502  0.00000000000E+00  0.00000000000E+00  0.53900138346E+03  0.53900138346E+03  0.00000000000E+00 0. -1.
         21   -1    0    0  502  503 -0.00000000000E+00 -0.00000000000E+00 -0.30642376496E+03  0.30642376496E+03  0.00000000000E+00 0.  1.
         -6    2    1    2    0  503  0.24860060273E+03 -0.13741803049E+03 -0.12741294093E+03  0.35554218818E+03  0.17172715359E+03 0.  0.
        -24    2    3    3    0    0  0.20421302689E+03 -0.15037341161E+03 -0.58584532048E+02  0.27249076641E+03  0.80647052728E+02 0.  0.
          6    2    1    2  501    0 -0.24860060273E+03  0.13741803049E+03  0.35999055943E+03  0.48988296024E+03  0.17235468394E+03 0.  0.
         24    2    5    5    0    0 -0.10784882778E+03  0.86074083063E+02  0.96194107641E+02  0.18647247745E+03  0.80489509094E+02 0.  0.
          5    1    5    5  501    0 -0.14075177495E+03  0.51343947425E+02  0.26379645179E+03  0.30341048279E+03  0.47000000000E+01 0. -1.
        -11    1    6    6    0    0 -0.58337793441E+02 -0.79554954986E+00  0.23719123402E+02  0.62980376766E+02  0.00000000000E+00 0.  1.
         12    1    6    6    0    0 -0.49511034335E+02  0.86869632612E+02  0.72474984238E+02  0.12349210068E+03  0.00000000000E+00 0. -1.
         -5    1    3    3    0  503  0.44387575839E+02  0.12955381120E+02 -0.68828408881E+02  0.83051421769E+02  0.47000000000E+01 0.  1.
         11    1    4    4    0    0  0.62665610187E+02 -0.40678947608E+02  0.19371314232E+02  0.77181625363E+02  0.00000000000E+00 0. -1.
        -12    1    4    4    0    0  0.14154741670E+03 -0.10969446400E+03 -0.77955846280E+02  0.19530914105E+03  0.00000000000E+00 0.  1.
</event>
<event>
12    1  0.8416569E-002  0.1919121E+03  0.7818608E-02  0.1158670E+00
         21   -1    0    0  501  502  0.00000000000E+00  0.00000000000E+00  0.52395638272E+03  0.52395638272E+03  0.00000000000E+00 0. -1.
         21   -1    0    0  502  503 -0.00000000000E+00 -0.00000000000E+00 -0.67586602111E+02  0.67586602111E+02  0.00000000000E+00 0.  1.
         -6    2    1    2    0  503  0.67120976613E+02  0.50418461769E+02  0.21208557768E+03  0.28602542844E+03  0.17257753812E+03 0.  0.
        -24    2    3    3    0    0  0.16885900270E+02  0.12366705188E+02  0.21843785325E+02  0.85562143438E+02  0.80035369726E+02 0.  0.
          6    2    1    2  501    0 -0.67120976613E+02 -0.50418461769E+02  0.24428420293E+03  0.30551755639E+03  0.16315317550E+03 0.  0.
         24    2    5    5    0    0 -0.23960807300E+01  0.21662955430E+02  0.78704853160E+02  0.11362265307E+03  0.78997648944E+02 0.  0.
          5    1    5    5  501    0 -0.64724895883E+02 -0.72081417199E+02  0.16557934977E+03  0.19189490332E+03  0.47000000000E+01 0. -1.
        -11    1    6    6    0    0  0.26236917540E+02  0.37076919541E+02  0.62579543411E+02  0.77325759345E+02  0.00000000000E+00 0.  1.
         12    1    6    6    0    0 -0.28632998270E+02 -0.15413964111E+02  0.16125309749E+02  0.36296893725E+02  0.00000000000E+00 0. -1.
         -5    1    3    3    0  503  0.50235076343E+02  0.38051756581E+02  0.19024179236E+03  0.20046328500E+03  0.47000000000E+01 0.  1.
         11    1    4    4    0    0 -0.81067378773E+01  0.68784595731E+01  0.47886314664E+02  0.49052334676E+02  0.00000000000E+00 0. -1.
        -12    1    4    4    0    0  0.24992638147E+02  0.54882456148E+01 -0.26042529338E+02  0.36509808762E+02  0.00000000000E+00 0.  1.
</event>
<event>
12    1  0.8416569E-002  0.2559622E+03  0.7818608E-02  0.1111193E+00
         21   -1    0    0  503  502  0.00000000000E+00  0.00000000000E+00  0.51151395554E+02  0.51151395554E+02  0.00000000000E+00 0.  1.
         21   -1    0    0  501  503 -0.00000000000E+00 -0.00000000000E+00 -0.17207213851E+04  0.17207213851E+04  0.00000000000E+00 0.  1.
          6    2    1    2  501    0 -0.16024005050E+03  0.69370673809E+02 -0.13198573493E+04  0.13444478713E+04  0.18715633036E+03 0.  0.
         24    2    3    3    0    0 -0.15143096967E+03 -0.12148317594E+02 -0.96847290481E+03  0.98359324172E+03  0.80230777215E+02 0.  0.
         -6    2    1    2    0  502  0.16024005050E+03 -0.69370673809E+02 -0.34971264026E+03  0.42742490936E+03  0.17292760975E+03 0.  0.
        -24    2    5    5    0    0  0.28160891105E+02 -0.38490294605E+02 -0.69851344686E+02  0.11638964299E+03  0.79954987797E+02 0.  0.
          5    1    3    3  501    0 -0.88090808317E+01  0.81518991403E+02 -0.35138444448E+03  0.36085462957E+03  0.47000000000E+01 0. -1.
        -11    1    4    4    0    0 -0.11656705066E+03  0.13883222026E+02 -0.83489940483E+03  0.84311187712E+03  0.00000000000E+00 0.  1.
         12    1    4    4    0    0 -0.34863919006E+02 -0.26031539620E+02 -0.13357349998E+03  0.14048136460E+03  0.00000000000E+00 0. -1.
         -5    1    5    5    0  502  0.13207915940E+03 -0.30880379204E+02 -0.27986129557E+03  0.31103526637E+03  0.47000000000E+01 0.  1.
         13    1    6    6    0    0  0.35946239660E+02  0.14965747860E+02 -0.32439170766E+02  0.50679439171E+02  0.00000000000E+00 0. -1.
        -14    1    6    6    0    0 -0.77853485546E+01 -0.53456042465E+02 -0.37412173919E+02  0.65710203815E+02  0.00000000000E+00 0.  1.
</event>
<event>
12    1  0.8416569E-002  0.1874839E+03  0.7818608E-02  0.1161913E+00
         21   -1    0    0  503  502  0.00000000000E+00  0.00000000000E+00  0.18823091987E+03  0.18823091987E+03  0.00000000000E+00 0. -1.
         21   -1    0    0  501  503 -0.00000000000E+00 -0.00000000000E+00 -0.10024096325E+04  0.10024096325E+04  0.00000000000E+00 0.  1.
          6    2    1    2  501    0  0.17130605468E+02 -0.71652575882E+02 -0.94671409556E+03  0.96509989376E+03  0.17240265931E+03 0.  0.
         24    2    3    3    0    0 -0.26291569452E+02 -0.95538109668E+02 -0.54088598014E+03  0.55623004496E+03  0.83758237659E+02 0.  0.
         -6    2    1    2    0  502 -0.17130605468E+02  0.71652575882E+02  0.13253538296E+03  0.22554065858E+03  0.16695931140E+03 0.  0.
        -24    2    5    5    0    0 -0.20154483630E+02  0.34452495860E+02  0.15673945062E+03  0.18080905137E+03  0.80817572306E+02 0.  0.
          5    1    3    3  501    0  0.43422174920E+02  0.23885533786E+02 -0.40582811542E+03  0.40886984881E+03  0.47000000000E+01 0. -1.
        -11    1    4    4    0    0  0.15457100724E+02 -0.46289338533E+02 -0.37600967867E+03  0.37916342555E+03  0.00000000000E+00 0.  1.
         12    1    4    4    0    0 -0.41748670176E+02 -0.49248771135E+02 -0.16487630148E+03  0.17706661941E+03  0.00000000000E+00 0. -1.
         -5    1    5    5    0  502  0.30238781621E+01  0.37200080022E+02 -0.24204067661E+02  0.44731607216E+02  0.47000000000E+01 0.  1.
         13    1    6    6    0    0 -0.16419583403E+02  0.57506468854E+02  0.75710067161E+02  0.96481142969E+02  0.00000000000E+00 0. -1.
        -14    1    6    6    0    0 -0.37349002268E+01 -0.23053972994E+02  0.81029383460E+02  0.84327908396E+02  0.00000000000E+00 0.  1.
</event>
<event>
12    1  0.8416569E-002  0.2243976E+03  0.7818608E-02  0.1131549E+00
         21   -1    0    0  503  502  0.00000000000E+00  0.00000000000E+00  0.85589644156E+02  0.85589644156E+02  0.00000000000E+00 0.  1.
         21   -1    0    0  501  503 -0.00000000000E+00 -0.00000000000E+00 -0.61707786328E+03  0.61707786328E+03  0.00000000000E+00 0. -1.
          6    2    1    2  501    0  0.13575662089E+03  0.13622231105E+02 -0.17183349865E+03  0.27875028485E+03  0.17192889446E+03 0.  0.
         24    2    3    3    0    0  0.65513585487E+02  0.58737029195E+02 -0.15193564218E+03  0.19280004505E+03  0.79657702234E+02 0.  0.
         -6    2    1    2    0  502 -0.13575662089E+03 -0.13622231105E+02 -0.35965472047E+03  0.42391722259E+03  0.17815405791E+03 0.  0.
        -24    2    5    5    0    0 -0.13651497758E+03  0.25455643431E+02 -0.34772535942E+03  0.38278262598E+03  0.79531655824E+02 0.  0.
          5    1    3    3  501    0  0.70243035403E+02 -0.45114798090E+02 -0.19897856469E+02  0.85950239799E+02  0.47000000000E+01 0. -1.
        -11    1    4    4    0    0  0.27420159669E+02 -0.17243202617E+02 -0.29892439338E+02  0.44076650535E+02  0.00000000000E+00 0.  1.
         12    1    4    4    0    0  0.38093425818E+02  0.75980231812E+02 -0.12204320284E+03  0.14872339452E+03  0.00000000000E+00 0. -1.
         -5    1    5    5    0  502  0.75835668571E+00 -0.39077874536E+02 -0.11929361052E+02  0.41134596610E+02  0.47000000000E+01 0.  1.
         11    1    6    6    0    0 -0.86796944943E+02 -0.23745737320E+02 -0.18904453075E+03  0.20936906242E+03  0.00000000000E+00 0. -1.
        -12    1    6    6    0    0 -0.49718032633E+02  0.49201380751E+02 -0.15868082868E+03  0.17341356356E+03  0.00000000000E+00 0.  1.
</event>
<event>
12    1  0.8416569E-002  0.3182353E+03  0.7818608E-02  0.1076502E+00
         21   -1    0    0  503  502  0.00000000000E+00  0.00000000000E+00  0.28824639052E+03  0.28824639052E+03  0.00000000000E+00 0.  1.
         21   -1    0    0  501  503 -0.00000000000E+00 -0.00000000000E+00 -0.35951708098E+03  0.35951708098E+03  0.00000000000E+00 0.  1.
          6    2    1    2  501    0  0.23520507915E+03 -0.12754612413E+03 -0.85519016893E+02  0.32920937135E+03  0.17168536599E+03 0.  0.
         24    2    3    3    0    0  0.17204238050E+03 -0.19753360204E+02 -0.63837306298E+02  0.20231968292E+03  0.82881098538E+02 0.  0.
         -6    2    1    2    0  502 -0.23520507915E+03  0.12754612413E+03  0.14248326436E+02  0.31855410015E+03  0.17229119792E+03 0.  0.
        -24    2    5    5    0    0 -0.24752158704E+03  0.10053293799E+03 -0.12333228712E+02  0.27842832706E+03  0.77436535998E+02 0.  0.
          5    1    3    3  501    0  0.63162698657E+02 -0.10779276392E+03 -0.21681710595E+02  0.12688968843E+03  0.47000000000E+01 0. -1.
        -11    1    4    4    0    0  0.24040580740E+02 -0.21208158540E+02 -0.41801708077E+02  0.52679391693E+02  0.00000000000E+00 0.  1.
         12    1    4    4    0    0  0.14800179976E+03  0.14547983353E+01 -0.22035598221E+02  0.14964029123E+03  0.00000000000E+00 0. -1.
         -5    1    5    5    0  502  0.12316507892E+02  0.27013186140E+02  0.26581555148E+02  0.40125773091E+02  0.47000000000E+01 0.  1.
         13    1    6    6    0    0 -0.74043035711E+00 -0.49543987473E+00  0.10735250214E+02  0.10772153682E+02  0.00000000000E+00 0. -1.
        -14    1    6    6    0    0 -0.24678115669E+03  0.10102837786E+03 -0.23068478926E+02  0.26765617338E+03  0.00000000000E+00 0.  1.
</event>
<event>
12    1  0.8416569E-002  0.2545679E+03  0.7818608E-02  0.1110477E+00
         21   -1    0    0  501  502  0.00000000000E+00  0.00000000000E+00  0.15856246542E+03  0.15856246542E+03  0.00000000000E+00 0.  1.
         21   -1    0    0  502  503 -0.00000000000E+00 -0.00000000000E+00 -0.42283451141E+03  0.42283451141E+03  0.00000000000E+00 0.  1.
         -6    2    1    2    0  503 -0.18373832644E+03 -0.39324523509E+02 -0.18574232654E+03  0.31499174917E+03  0.17150335106E+03 0.  0.
        -24    2    3    3    0    0 -0.97423881797E+02  0.51828531722E+00 -0.20867742840E+02  0.12461488314E+03  0.74844672789E+02 0.  0.
          6    2    1    2  501    0  0.18373832644E+03  0.39324523509E+02 -0.78529719438E+02  0.26640522765E+03  0.17175167462E+03 0.  0.
         24    2    5    5    0    0  0.11591624420E+03 -0.42616668517E+02 -0.55137834252E+02  0.15739392512E+03  0.80497893085E+02 0.  0.
          5    1    5    5  501    0  0.67822082232E+02  0.81941192026E+02 -0.23391885185E+02  0.10901130254E+03  0.47000000000E+01 0. -1.
        -11    1    6    6    0    0  0.10283904249E+03 -0.44535843196E+02 -0.12510454521E+02  0.11276445123E+03  0.00000000000E+00 0.  1.
         12    1    6    6    0    0  0.13077201712E+02  0.19191746787E+01 -0.42627379731E+02  0.44629473880E+02  0.00000000000E+00 0. -1.
         -5    1    3    3    0  503 -0.86314444639E+02 -0.39842808826E+02 -0.16487458370E+03  0.19037686603E+03  0.47000000000E+01 0.  1.
         11    1    4    4    0    0 -0.10271701189E+02 -0.17413867564E+02  0.18418944731E+02  0.27349737729E+02  0.00000000000E+00 0. -1.
        -12    1    4    4    0    0 -0.87152180609E+02  0.17932152881E+02 -0.39286687571E+02  0.97265145412E+02  0.00000000000E+00 0.  1.
</event>
<event>
12    1  0.8416569E-002  0.2676114E+03  0.7818608E-02  0.1102953E+00
         21   -1    0    0  503  502  0.00000000000E+00  0.00000000000E+00  0.74768545947E+03  0.74768545947E+03  0.00000000000E+00 0. -1.
         21   -1    0    0  501  503 -0.00000000000E+00 -0.00000000000E+00 -0.20911765252E+03  0.20911765252E+03  0.00000000000E+00 0.  1.
          6    2    1    2  501    0  0.12199607154E+03  0.16370383060E+03 -0.84515802564E+02  0.27868138984E+03  0.16981875791E+03 0.  0.
         24    2    3    3    0    0  0.96544089410E+02  0.19050324172E+03 -0.70603494148E+02  0.23891137405E+03  0.80508042795E+02 0.  0.
         -6    2    1    2    0  502 -0.12199607154E+03 -0.16370383060E+03  0.62308360951E+03  0.67812172216E+03  0.17301416125E+03 0.  0.
        -24    2    5    5    0    0 -0.10570546319E+03 -0.97394937104E+02  0.25362456892E+03  0.30237669431E+03  0.80292120276E+02 0.  0.
          5    1    3    3  501    0  0.25451982128E+02 -0.26799411126E+02 -0.13912308415E+02  0.39770015796E+02  0.47000000000E+01 0. -1.
        -13    1    4    4    0    0  0.33399385513E+02  0.49847141657E+02 -0.59231723901E+02  0.84312831765E+02  0.00000000000E+00 0.  1.
         14    1    4    4    0    0  0.63144703897E+02  0.14065610007E+03 -0.11371770247E+02  0.15459854228E+03  0.00000000000E+00 0. -1.
         -5    1    5    5    0  502 -0.16290608343E+02 -0.66308893494E+02  0.36945904059E+03  0.37574502785E+03  0.47000000000E+01 0.  1.
         11    1    6    6    0    0 -0.93117409179E+01 -0.33491341900E+01  0.89620824888E+02  0.90165500455E+02  0.00000000000E+00 0. -1.
        -12    1    6    6    0    0 -0.96393722277E+02 -0.94045802914E+02  0.16400374403E+03  0.21221119385E+03  0.00000000000E+00 0.  1.
</event>
<event>
12    1  0.8416569E-002  0.1752730E+03  0.7818608E-02  0.1172832E+00
         21   -1    0    0  503  502  0.00000000000E+00  0.00000000000E+00  0.21391647543E+03  0.21391647543E+03  0.00000000000E+00 0.  1.
         21   -1    0    0  501  503 -0.00000000000E+00 -0.00000000000E+00 -0.32768433078E+03  0.32768433078E+03  0.00000000000E+00 0. -1.
          6    2    1    2  501    0  0.54798679401E+01 -0.32726513115E+02 -0.26062155502E+03  0.31407676659E+03  0.17210336068E+03 0.  0.
         24    2    3    3    0    0  0.66391770677E+01  0.48661814207E+02 -0.12696006316E+03  0.15751084364E+03  0.79238610493E+02 0.  0.
         -6    2    1    2    0  502 -0.54798679401E+01  0.32726513115E+02  0.14685369967E+03  0.22752403962E+03  0.17058759007E+03 0.  0.
        -24    2    5    5    0    0  0.41259179265E+02 -0.10062465870E+02  0.31641523934E+02  0.95951357452E+02  0.80011898284E+02 0.  0.
          5    1    3    3  501    0 -0.11593091276E+01 -0.81388327322E+02 -0.13366149186E+03  0.15656592295E+03  0.47000000000E+01 0. -1.
        -13    1    4    4    0    0  0.34881825740E+02  0.13583416872E+02 -0.22298564062E+02  0.43571515238E+02  0.00000000000E+00 0.  1.
         14    1    4    4    0    0 -0.28242648672E+02  0.35078397335E+02 -0.10466149910E+03  0.11393932841E+03  0.00000000000E+00 0. -1.
         -5    1    5    5    0  502 -0.46739047205E+02  0.42788978985E+02  0.11521217573E+03  0.13157268217E+03  0.47000000000E+01 0.  1.
         11    1    6    6    0    0  0.24034760832E+02 -0.80644647200E+01 -0.25667408800E+02  0.36076601752E+02  0.00000000000E+00 0. -1.
        -12    1    6    6    0    0  0.17224418433E+02 -0.19980011498E+01  0.57308932734E+02  0.59874755700E+02  0.00000000000E+00 0.  1.
</event>
<event>
12    1  0.8416569E-002  0.3234893E+03  0.7818608E-02  0.1074092E+00
         21   -1    0    0  503  502  0.00000000000E+00  0.00000000000E+00  0.12464873835E+03  0.12464873835E+03  0.00000000000E+00 0.  1.
         21   -1    0    0  501  503 -0.00000000000E+00 -0.00000000000E+00 -0.95468434595E+03  0.95468434595E+03  0.00000000000E+00 0. -1.
          6    2    1    2  501    0  0.14083846891E+03  0.23473753920E+03 -0.60334330904E+03  0.68459365539E+03  0.17236048796E+03 0.  0.
         24    2    3    3    0    0  0.57439070148E+02  0.84306826163E+02 -0.38808986900E+03  0.40901972233E+03  0.79224359348E+02 0.  0.
         -6    2    1    2    0  502 -0.14083846891E+03 -0.23473753920E+03 -0.22669229857E+03  0.39473942891E+03  0.17173418959E+03 0.  0.
        -24    2    5    5    0    0 -0.68770030244E+02 -0.98043895080E+02 -0.18625680156E+03  0.23493914227E+03  0.78504025493E+02 0.  0.
          5    1    3    3  501    0  0.83399398759E+02  0.15043071303E+03 -0.21525344003E+03  0.27557393306E+03  0.47000000000E+01 0. -1.
        -13    1    4    4    0    0  0.15193889244E+02 -0.37635563031E+00 -0.77061648506E+01  0.17040566030E+02  0.00000000000E+00 0.  1.
         14    1    4    4    0    0  0.42245180905E+02  0.84683181793E+02 -0.38038370415E+03  0.39197915630E+03  0.00000000000E+00 0. -1.
         -5    1    5    5    0  502 -0.72068438664E+02 -0.13669364412E+03 -0.40435497004E+02  0.15980028664E+03  0.47000000000E+01 0.  1.
         11    1    6    6    0    0  0.80630547728E+01 -0.25590153451E+00  0.28919648937E+01  0.85698190652E+01  0.00000000000E+00 0. -1.
        -12    1    6    6    0    0 -0.76833085017E+02 -0.97787993546E+02 -0.18914876646E+03  0.22636932320E+03  0.00000000000E+00 0.  1.
</event>
<event>
12    1  0.8416569E-002  0.2491688E+03  0.7818608E-02  0.1114031E+00
         21   -1    0    0  501  502  0.00000000000E+00  0.00000000000E+00  0.97249064424E+02  0.97249064424E+02  0.00000000000E+00 0.  1.
         21   -1    0    0  502  503 -0.00000000000E+00 -0.00000000000E+00 -0.10541685471E+04  0.10541685471E+04  0.00000000000E+00 0. -1.
         -6    2    1    2    0  503  0.12786197070E+03  0.12407789976E+03 -0.84067377963E+03  0.87646643084E+03  0.17238617076E+03 0.  0.
        -24    2    3    3    0    0  0.11265842530E+03  0.37868545831E+02 -0.66308967495E+03  0.67842248437E+03  0.80269562844E+02 0.  0.
          6    2    1    2  501    0 -0.12786197070E+03 -0.12407789976E+03 -0.11624570307E+03  0.27495118071E+03  0.17418690976E+03 0.  0.
         24    2    5    5    0    0 -0.11814895894E+03 -0.92786380956E+02 -0.15114741156E+03  0.22685002686E+03  0.77761852322E+02 0.  0.
          5    1    5    5  501    0 -0.97130117637E+01 -0.31291518805E+02  0.34901708486E+02  0.48101153852E+02  0.47000000000E+01 0. -1.
        -11    1    6    6    0    0 -0.69831384706E+02 -0.96459826659E+02 -0.12105487283E+03  0.16980931272E+03  0.00000000000E+00 0.  1.
         12    1    6    6    0    0 -0.48317574233E+02  0.36734457030E+01 -0.30092538730E+02  0.57040714146E+02  0.00000000000E+00 0. -1.
         -5    1    3    3    0  503  0.15203545403E+02  0.86209353930E+02 -0.17758410468E+03  0.19804394647E+03  0.47000000000E+01 0.  1.
         13    1    4    4    0    0  0.53270880801E+02 -0.79340524188E+01 -0.14033273636E+03  0.15031304941E+03  0.00000000000E+00 0. -1.
        -14    1    4    4    0    0  0.59387544498E+02  0.45802598250E+02 -0.52275693860E+03  0.52810943496E+03  0.00000000000E+00 0.  1.
</event>
<event>
12    1  0.8416569E-002  0.1731569E+03  0.7818608E-02  0.1174626E+00
         21   -1    0    0  503  502  0.00000000000E+00  0.00000000000E+00  0.13143164630E+03  0.13143164630E+03  0.00000000000E+00 0. -1.
         21   -1    0    0  501  503 -0.00000000000E+00 -0.00000000000E+00 -0.23768818691E+03  0.23768818691E+03  0.00000000000E+00 0. -1.
          6    2    1    2  501    0  0.10875574827E+02  0.15452715578E+02 -0.90464820242E+02  0.19536423441E+03  0.17212273482E+03 0.  0.
         24    2    3    3    0    0 -0.16900929345E+02  0.87683604481E+01 -0.12708399791E+03  0.14868159352E+03  0.74788690112E+02 0.  0.
         -6    2    1    2    0  502 -0.10875574827E+02 -0.15452715578E+02 -0.15791720369E+02  0.17375559880E+03  0.17200164283E+03 0.  0.
        -24    2    5    5    0    0  0.30554211206E+02 -0.14971469573E+02  0.46748147430E+02  0.98589224451E+02  0.79854499973E+02 0.  0.
          5    1    3    3  501    0  0.27776504172E+02  0.66843551300E+01  0.36619177671E+02  0.46682640894E+02  0.47000000000E+01 0. -1.
        -13    1    4    4    0    0 -0.26337982982E+02  0.12595107429E+02 -0.95640803018E+01  0.30721290838E+02  0.00000000000E+00 0.  1.
         14    1    4    4    0    0  0.94370536372E+01 -0.38267469813E+01 -0.11751991761E+03  0.11796030268E+03  0.00000000000E+00 0. -1.
         -5    1    5    5    0  502 -0.41429786034E+02 -0.48124600543E+00 -0.62539867800E+02  0.75166374350E+02  0.47000000000E+01 0.  1.
         13    1    6    6    0    0  0.36655551099E+02 -0.31187182783E+02 -0.64135029020E+00  0.48131913805E+02  0.00000000000E+00 0. -1.
        -14    1    6    6    0    0 -0.61013398930E+01  0.16215713210E+02  0.47389497721E+02  0.50457310646E+02  0.00000000000E+00 0.  1.
</event>
<event>
12    1  0.8416569E-002  0.1763297E+03  0.7818608E-02  0.1172018E+00
         21   -1    0    0  503  502  0.00000000000E+00  0.00000000000E+00  0.42271780633E+02  0.42271780633E+02  0.00000000000E+00 0.  1.
         21   -1    0    0  501  503 -0.00000000000E+00 -0.00000000000E+00 -0.18573286833E+04  0.18573286833E+04  0.00000000000E+00 0.  1.
          6    2    1    2  501    0 -0.35925933496E+02 -0.12680948263E+02 -0.16465378589E+04  0.16556930634E+04  0.16964999350E+03 0.  0.
         24    2    3    3    0    0  0.44725364937E+02 -0.41331159929E+01 -0.75541101578E+03  0.76087082525E+03  0.79127549208E+02 0.  0.
         -6    2    1    2    0  502  0.35925933496E+02  0.12680948263E+02 -0.16851904384E+03  0.24390740059E+03  0.17216466763E+03 0.  0.
        -24    2    5    5    0    0  0.28626215241E+01 -0.29792921738E+02 -0.16951770165E+03  0.18986760462E+03  0.80110194863E+02 0.  0.
          5    1    3    3  501    0 -0.80651298433E+02 -0.85478322703E+01 -0.89112684307E+03  0.89482223811E+03  0.47000000000E+01 0. -1.
        -13    1    4    4    0    0  0.92537938578E+01 -0.39570078836E+02 -0.36399540341E+03  0.36625684641E+03  0.00000000000E+00 0.  1.
         14    1    4    4    0    0  0.35471571079E+02  0.35436962844E+02 -0.39141561237E+03  0.39461397884E+03  0.00000000000E+00 0. -1.
         -5    1    5    5    0  502  0.33063311972E+02  0.42473870001E+02  0.99865781803E+00  0.54039795973E+02  0.47000000000E+01 0.  1.
         11    1    6    6    0    0 -0.13559365338E+02 -0.54314218057E+02 -0.10878964544E+03  0.12234818195E+03  0.00000000000E+00 0. -1.
        -12    1    6    6    0    0  0.16421986862E+02  0.24521296319E+02 -0.60728056209E+02  0.67519422662E+02  0.00000000000E+00 0.  1.
</event>
<event>
12    1  0.8416569E-002  0.2709801E+03  0.7818608E-02  0.1100914E+00
         21   -1    0    0  503  502  0.00000000000E+00  0.00000000000E+00  0.20066710345E+03  0.20066710345E+03  0.00000000000E+00 0. -1.
         21   -1    0    0  501  503 -0.00000000000E+00 -0.00000000000E+00 -0.39099681644E+03  0.39099681644E+03  0.00000000000E+00 0. -1.
          6    2    1    2  501    0  0.18053347002E+03  0.10033167610E+03 -0.17253456887E+03  0.32010018204E+03  0.17331234826E+03 0.  0.
         24    2    3    3    0    0  0.19910237295E+03  0.69228789756E+02 -0.17236303372E+03  0.28357193107E+03  0.79181086436E+02 0.  0.
         -6    2    1    2    0  502 -0.18053347002E+03 -0.10033167610E+03 -0.17795144120E+02  0.27156373785E+03  0.17541783698E+03 0.  0.
        -24    2    5    5    0    0 -0.14477966629E+03 -0.13463280845E+03  0.12873397525E+02  0.21310390884E+03  0.78488258463E+02 0.  0.
          5    1    3    3  501    0 -0.18568902929E+02  0.31102886346E+02 -0.17153514973E+00  0.36528250975E+02  0.47000000000E+01 0. -1.
        -11    1    4    4    0    0  0.32450851818E+02  0.26690632978E+02 -0.74904273968E+02  0.85884212352E+02  0.00000000000E+00 0.  1.
         12    1    4    4    0    0  0.16665152113E+03  0.42538156778E+02 -0.97458759753E+02  0.19768771872E+03  0.00000000000E+00 0. -1.
         -5    1    5    5    0  502 -0.35753803735E+02  0.34301132343E+02 -0.30668541644E+02  0.58459829012E+02  0.47000000000E+01 0.  1.
         13    1    6    6    0    0 -0.21028691758E+02 -0.26467329449E+02  0.33334753270E+02  0.47475585102E+02  0.00000000000E+00 0. -1.
        -14    1    6    6    0    0 -0.12375097453E+03 -0.10816547900E+03 -0.20461355745E+02  0.16562832373E+03  0.00000000000E+00 0.  1.
</event>
<event>
12    1  0.8416569E-002  0.2104695E+03  0.7818608E-02  0.1141434E+00
         21   -1    0    0  501  502  0.00000000000E+00  0.00000000000E+00  0.70943241614E+03  0.70943241614E+03  0.00000000000E+00 0.  1.
         21   -1    0    0  502  503 -0.00000000000E+00 -0.00000000000E+00 -0.87395605895E+02  0.87395605895E+02  0.00000000000E+00 0.  1.
         -6    2    1    2    0  503 -0.20239123780E+02  0.12102045440E+03  0.97238165657E+02  0.23184626671E+03  0.17100250879E+03 0.  0.
        -24    2    3    3    0    0  0.42477439749E+02  0.11531742353E+03  0.57093788539E+02  0.15701610624E+03  0.79321597757E+02 0.  0.
          6    2    1    2  501    0  0.20239123780E+02 -0.12102045440E+03  0.52479864459E+03  0.56498175533E+03  0.16951458337E+03 0.  0.
         24    2    5    5    0    0  0.36064877303E+02 -0.24367582832E+02  0.17263967180E+03  0.19942702047E+03  0.89845566103E+02 0.  0.
          5    1    5    5  501    0 -0.15825753523E+02 -0.96652871566E+02  0.35215897280E+03  0.36555473486E+03  0.47000000000E+01 0. -1.
        -13    1    6    6    0    0  0.49022567586E+02  0.19467559617E+02  0.75859471830E+02  0.92395116086E+02  0.00000000000E+00 0.  1.
         14    1    6    6    0    0 -0.12957690283E+02 -0.43835142449E+02  0.96780199965E+02  0.10703190438E+03  0.00000000000E+00 0. -1.
         -5    1    3    3    0  503 -0.62716563529E+02  0.57030308664E+01  0.40144377118E+02  0.74830160471E+02  0.47000000000E+01 0.  1.
         11    1    4    4    0    0  0.75425797003E+01  0.29791735356E+02  0.56856246495E+02  0.64630262026E+02  0.00000000000E+00 0. -1.
        -12    1    4    4    0    0  0.34934860049E+02  0.85525688174E+02  0.23754204380E+00  0.92385844211E+02  0.00000000000E+00 0.  1.
</event>
<event>
12    1  0.8416569E-002  0.1797224E+03  0.7818608E-02  0.1169730E+00
         21   -1    0    0  501  502  0.00000000000E+00  0.00000000000E+00  0.29599510622E+02  0.29599510622E+02  0.00000000000E+00 0. -1.
         21   -1    0    0  502  503 -0.00000000000E+00 -0.00000000000E+00 -0.11229620332E+04  0.11229620332E+04  0.00000000000E+00 0. -1.
         -6    2    1    2    0  503  0.42024255864E+02 -0.61331767350E+01 -0.68288816600E+03  0.70446632204E+03  0.16772864300E+03 0.  0.
        -24    2    3    3    0    0  0.62004028696E+02  0.42270781948E+02 -0.56280105415E+03  0.57337422093E+03  0.79885243323E+02 0.  0.
          6    2    1    2  501    0 -0.42024255864E+02  0.61331767350E+01 -0.41047435662E+03  0.44809522183E+03  0.17463240376E+03 0.  0.
         24    2    5    5    0    0 -0.37525523285E+02 -0.32139207230E+02 -0.90601171988E+02  0.12587486521E+03  0.72075070502E+02 0.  0.
          5    1    5    5  501    0 -0.44987325784E+01  0.38272383965E+02 -0.31987318463E+03  0.32222035661E+03  0.47000000000E+01 0. -1.
        -11    1    6    6    0    0  0.21528297996E+02 -0.12339166014E+02 -0.21349172239E+02  0.32733924113E+02  0.00000000000E+00 0.  1.
         12    1    6    6    0    0 -0.59053821281E+02 -0.19800041216E+02 -0.69251999749E+02  0.93140941101E+02  0.00000000000E+00 0. -1.
         -5    1    3    3    0  503 -0.19979772832E+02 -0.48403958683E+02 -0.12008711185E+03  0.13109210110E+03  0.47000000000E+01 0.  1.
         13    1    4    4    0    0  0.45811768690E+02 -0.97662404141E+01 -0.15427875715E+03  0.16123285183E+03  0.00000000000E+00 0. -1.
        -14    1    4    4    0    0  0.16192260006E+02  0.52037022362E+02 -0.40852229700E+03  0.41214136910E+03  0.00000000000E+00 0.  1.
</event>
<event>
12    1  0.8416569E-002  0.1776872E+03  0.7818608E-02  0.1170237E+00
         21   -1    0    0  501  502  0.00000000000E+00  0.00000000000E+00  0.12448727337E+04  0.12448727337E+04  0.00000000000E+00 0. -1.
         21   -1    0    0  502  503 -0.00000000000E+00 -0.00000000000E+00 -0.41355568517E+02  0.41355568517E+02  0.00000000000E+00 0. -1.
         -6    2    1    2    0  503  0.22347461987E+02 -0.35453826920E+02  0.20129094244E+03  0.26849724727E+03  0.17267410165E+03 0.  0.
        -24    2    3    3    0    0  0.42842594128E+02  0.17211774300E+02  0.18940871198E+03  0.21055768053E+03  0.79543344213E+02 0.  0.
          6    2    1    2  501    0 -0.22347461987E+02  0.35453826920E+02  0.10022262228E+04  0.10177310550E+04  0.17193811606E+03 0.  0.
         24    2    5    5    0    0 -0.23017041992E+02 -0.45048595221E+02  0.46400528739E+03  0.47350228544E+03  0.79651412031E+02 0.  0.
          5    1    5    5  501    0  0.66958000444E+00  0.80502422141E+02  0.53822093538E+03  0.54422876954E+03  0.47000000000E+01 0. -1.
        -11    1    6    6    0    0  0.25600348265E+02 -0.69858487347E+01  0.73455820139E+02  0.78102096169E+02  0.00000000000E+00 0.  1.
         12    1    6    6    0    0 -0.48617390257E+02 -0.38062746486E+02  0.39054946725E+03  0.39540018927E+03  0.00000000000E+00 0. -1.
         -5    1    3    3    0  503 -0.20495132140E+02 -0.52665601220E+02  0.11882230458E+02  0.57939566740E+02  0.47000000000E+01 0.  1.
         11    1    4    4    0    0 -0.20567675287E+02  0.48769983172E+01  0.19405181466E+02  0.28694519460E+02  0.00000000000E+00 0. -1.
        -12    1    4    4    0    0  0.63410269415E+02  0.12334775983E+02  0.17000353052E+03  0.18186316107E+03  0.00000000000E+00 0.  1.
</event>
<event>
12    1  0.8416569E-002  0.2046393E+03  0.7818608E-02  0.1146471E+00
         21   -1    0    0  501  502  0.00000000000E+00  0.00000000000E+00  0.26856132146E+02  0.26856132146E+02  0.00000000000E+00 0. -1.
         21   -1    0    0  502  503 -0.00000000000E+00 -0.00000000000E+00 -0.28655298359E+04  0.28655298359E+04  0.00000000000E+00 0.  1.
         -6    2    1    2    0  503  0.93948652657E+02 -0.47548287800E+02 -0.24091251169E+04  0.24178008789E+04  0.17547100040E+03 0.  0.
        -24    2    3    3    0    0  0.40901798658E+02  0.30159694304E+02 -0.16238609607E+04  0.16269062056E+04  0.85538399727E+02 0.  0.
          6    2    1    2  501    0 -0.93948652657E+02  0.47548287800E+02 -0.42954858691E+03  0.47458508923E+03  0.17213898279E+03 0.  0.
         24    2    5    5    0    0 -0.22467575587E+02  0.80771687224E+02 -0.31610039839E+03  0.33636092302E+03  0.78678785303E+02 0.  0.
          5    1    5    5  501    0 -0.71481077070E+02 -0.33223399424E+02 -0.11344818851E+03  0.13822416621E+03  0.47000000000E+01 0. -1.
        -11    1    6    6    0    0 -0.30186242461E+02  0.79229675435E+02 -0.16924307943E+03  0.18929281719E+03  0.00000000000E+00 0.  1.
         12    1    6    6    0    0  0.77186668740E+01  0.15420117893E+01 -0.14685731896E+03  0.14706810583E+03  0.00000000000E+00 0. -1.
         -5    1    3    3    0  503  0.53046854000E+02 -0.77707982104E+02 -0.78526415620E+03  0.79089467327E+03  0.47000000000E+01 0.  1.
         13    1    4    4    0    0 -0.18441793598E+02  0.32600440492E+02 -0.45587400976E+03  0.45741010182E+03  0.00000000000E+00 0. -1.
        -14    1    4    4    0    0  0.59343592256E+02 -0.24407461887E+01 -0.11679869509E+04  0.11694961038E+04  0.00000000000E+00 0.  1.
</event>
<event>
12    1  0.8416569E-002  0.2125056E+03  0.7818608E-02  0.1140738E+00
         21   -1    0    0  501  502  0.00000000000E+00  0.00000000000E+00  0.48517125251E+03  0.48517125251E+03  0.00000000000E+00 0. -1.
         21   -1    0    0  502  503 -0.00000000000E+00 -0.00000000000E+00 -0.96476678765E+02  0.96476678765E+02  0.00000000000E+00 0. -1.
         -6    2    1    2    0  503  0.78755243491E+02  0.81875005771E+02  0.11987600724E+03  0.23897892240E+03  0.17272742484E+03 0.  0.
        -24    2    3    3    0    0  0.50605297881E+02  0.31427273693E+02 -0.70941068264E+01  0.99404952851E+02  0.79261898755E+02 0.  0.
          6    2    1    2  501    0 -0.78755243491E+02 -0.81875005771E+02  0.26881856651E+03  0.34266900888E+03  0.17959043126E+03 0.  0.
         24    2    5    5    0    0 -0.26423742762E+02 -0.11518704886E+03  0.14152960407E+03  0.20099032967E+03  0.80001333650E+02 0.  0.
          5    1    5    5  501    0 -0.52331500729E+02  0.33312043089E+02  0.12728896245E+03  0.14167867922E+03  0.47000000000E+01 0. -1.
        -11    1    6    6    0    0 -0.39121633890E+02 -0.93107289218E+02  0.64434780393E+02  0.11979695517E+03  0.00000000000E+00 0.  1.
         12    1    6    6    0    0  0.12697891128E+02 -0.22079759642E+02  0.77094823673E+02  0.81193374497E+02  0.00000000000E+00 0. -1.
         -5    1    3    3    0  503  0.28149945610E+02  0.50447732078E+02  0.12697011406E+03  0.13957396954E+03  0.47000000000E+01 0.  1.
         13    1    4    4    0    0 -0.45085968609E+00 -0.36494275348E+00 -0.33651975800E+02  0.33656974506E+02  0.00000000000E+00 0. -1.
        -14    1    4    4    0    0  0.51056157567E+02  0.31792216446E+02  0.26557868973E+02  0.65747978345E+02  0.00000000000E+00 0.  1.
</event>
<event>
12    1  0.8416569E-002  0.1794685E+03  0.7818608E-02  0.1168517E+00
         21   -1    0    0  501  502  0.00000000000E+00  0.00000000000E+00  0.36333397245E+03  0.36333397245E+03  0.00000000000E+00 0. -1.
         21   -1    0    0  502  503 -0.00000000000E+00 -0.00000000000E+00 -0.32632204561E+03  0.32632204561E+03  0.00000000000E+00 0. -1.
         -6    2    1    2    0  503  0.26142219586E+02  0.43584896878E+02 -0.27601730785E+03  0.32923318344E+03  0.17212168942E+03 0.  0.
        -24    2    3    3    0    0 -0.11349315057E+02 -0.14852314015E+02 -0.23380709708E+03  0.24784329046E+03  0.80069593463E+02 0.  0.
          6    2    1    2  501    0 -0.26142219586E+02 -0.43584896878E+02  0.31302923468E+03  0.36042283462E+03  0.17127247025E+03 0.  0.
         24    2    5    5    0    0 -0.75348144952E+01 -0.88712731177E+02  0.26953482294E+03  0.29487429683E+03  0.79844273761E+02 0.  0.
          5    1    5    5  501    0 -0.18607405091E+02  0.45127834299E+02  0.43494411742E+02  0.65548537783E+02  0.47000000000E+01 0. -1.
        -13    1    6    6    0    0  0.32006323304E+02 -0.14226349119E+02  0.87705005087E+02  0.94440254437E+02  0.00000000000E+00 0.  1.
         14    1    6    6    0    0 -0.39541137799E+02 -0.74486382058E+02  0.18182981785E+03  0.20043404240E+03  0.00000000000E+00 0. -1.
         -5    1    3    3    0  503  0.37491534643E+02  0.58437210893E+02 -0.42210210768E+02  0.81389892984E+02  0.47000000000E+01 0.  1.
         13    1    4    4    0    0 -0.10173000981E+02  0.30052021261E+02 -0.55143432487E+02  0.63619274417E+02  0.00000000000E+00 0. -1.
        -14    1    4    4    0    0 -0.11763140752E+01 -0.44904335276E+02 -0.17866366459E+03  0.18422401604E+03  0.00000000000E+00 0.  1.
</event>
<event>
12    1  0.8416569E-002  0.1963020E+03  0.7818608E-02  0.1153053E+00
         21   -1    0    0  503  502  0.00000000000E+00  0.00000000000E+00  0.12179063093E+03  0.12179063093E+03  0.00000000000E+00 0. -1.
         21   -1    0    0  501  503 -0.00000000000E+00 -0.00000000000E+00 -0.46433993735E+03  0.46433993735E+03  0.00000000000E+00 0. -1.
          6    2    1    2  501    0  0.52368978255E+02  0.80717296644E+02 -0.33755826094E+03  0.39048696179E+03  0.17110434226E+03 0.  0.
         24    2    3    3    0    0  0.81223077512E+02  0.93794274668E+02 -0.19650474739E+03  0.24584343417E+03  0.80189301632E+02 0.  0.
         -6    2    1    2    0  502 -0.52368978255E+02 -0.80717296644E+02 -0.49910454883E+01  0.19564360649E+03  0.17027541914E+03 0.  0.
        -24    2    5    5    0    0 -0.40398149022E+02  0.15551210494E+02 -0.28899448358E+02  0.95620469430E+02  0.80213748612E+02 0.  0.
          5    1    3    3  501    0 -0.28854099256E+02 -0.13076978024E+02 -0.14105351355E+03  0.14464352763E+03  0.47000000000E+01 0. -1.
        -11    1    4    4    0    0 -0.85139518043E+01  0.28024813439E+02 -0.14884703520E+02  0.32854709594E+02  0.00000000000E+00 0.  1.
         12    1    4    4    0    0  0.89737029316E+02  0.65769461229E+02 -0.18162004387E+03  0.21298872457E+03  0.00000000000E+00 0. -1.
         -5    1    5    5    0  502 -0.11970829233E+02 -0.96268507138E+02  0.23908402870E+02  0.10002313706E+03  0.47000000000E+01 0.  1.
         13    1    6    6    0    0 -0.33311400204E+02 -0.28081199073E+02 -0.14611113261E+01  0.43592866059E+02  0.00000000000E+00 0. -1.
        -14    1    6    6    0    0 -0.70867488175E+01  0.43632409567E+02 -0.27438337032E+02  0.52027603371E+02  0.00000000000E+00 0.  1.
</event>
<event>
12    1  0.8416569E-002  0.2056880E+03  0.7818608E-02  0.1145178E+00
         21   -1    0    0  503  502  0.00000000000E+00  0.00000000000E+00  0.54725043061E+03  0.54725043061E+03  0.00000000000E+00 0. -1.
         21   -1    0    0  501  503 -0.00000000000E+00 -0.00000000000E+00 -0.17529311534E+03  0.17529311534E+03  0.00000000000E+00 0. -1.
          6    2    1    2  501    0 -0.33436838153E+02  0.10630936003E+03 -0.84653582194E+02  0.22174311065E+03  0.17200022083E+03 0.  0.
         24    2    3    3    0    0 -0.25203652268E+02 -0.95519517997E+01 -0.56748341147E+02  0.10219219511E+03  0.80600289378E+02 0.  0.
         -6    2    1    2    0  502  0.33436838153E+02 -0.10630936003E+03  0.45661089746E+03  0.50080043531E+03  0.17288106359E+03 0.  0.
        -24    2    5    5    0    0 -0.31859047749E+02 -0.77404467743E+02  0.37421017587E+03  0.39166284127E+03  0.79750078091E+02 0.  0.
          5    1    3    3  501    0 -0.82331858841E+01  0.11586131183E+03 -0.27905241046E+02  0.11955091554E+03  0.47000000000E+01 0. -1.
        -13    1    4    4    0    0 -0.49501563521E+02  0.47315116022E+01 -0.54711706454E+02  0.73933502664E+02  0.00000000000E+00 0.  1.
         14    1    4    4    0    0  0.24297911252E+02 -0.14283463402E+02 -0.20366346928E+01  0.28258692447E+02  0.00000000000E+00 0. -1.
         -5    1    5    5    0  502  0.65295885902E+02 -0.28904892284E+02  0.82400721586E+02  0.10913759403E+03  0.47000000000E+01 0.  1.
         13    1    6    6    0    0 -0.37760676804E+02 -0.89932111844E+02  0.28139065371E+03  0.29781597246E+03  0.00000000000E+00 0. -1.
        -14    1    6    6    0    0  0.59016290545E+01  0.12527644101E+02  0.92819522159E+02  0.93846868813E+02  0.00000000000E+00 0.  1.
</event>
<event>
12    1  0.8416569E-002  0.3596469E+03  0.7818608E-02  0.1058748E+00
         21   -1    0    0  503  502  0.00000000000E+00  0.00000000000E+00  0.32027999122E+03  0.32027999122E+03  0.00000000000E+00 0.  1.
         21   -1    0    0  501  503 -0.00000000000E+00 -0.00000000000E+00 -0.54150085734E+03  0.54150085734E+03  0.00000000000E+00 0. -1.
          6    2    1    2  501    0 -0.20999188890E+03 -0.23628584189E+03  0.10682338602E+03  0.37517614398E+03  0.17151766886E+03 0.  0.
         24    2    3    3    0    0 -0.21168567069E+03 -0.15521637321E+03  0.58846303721E+02  0.28084153700E+03  0.80660620849E+02 0.  0.
         -6    2    1    2    0  502  0.20999188890E+03  0.23628584189E+03 -0.32804425214E+03  0.48660470458E+03  0.17100735271E+03 0.  0.
        -24    2    5    5    0    0  0.17469072931E+03  0.10144866828E+03 -0.22732109962E+03  0.31457424592E+03  0.80457384115E+02 0.  0.
          5    1    3    3  501    0  0.16937817879E+01 -0.81069468682E+02  0.47977082300E+02  0.94334606986E+02  0.47000000000E+01 0. -1.
        -11    1    4    4    0    0 -0.20601303517E+03 -0.15908559489E+03  0.43324249932E+02  0.26386850474E+03  0.00000000000E+00 0.  1.
         12    1    4    4    0    0 -0.56726355150E+01  0.38692216833E+01  0.15522053789E+02  0.16973032256E+02  0.00000000000E+00 0. -1.
         -5    1    5    5    0  502  0.35301159587E+02  0.13483717361E+03 -0.10072315251E+03  0.17203045866E+03  0.47000000000E+01 0.  1.
         13    1    6    6    0    0  0.81870952046E+01  0.52163356198E+01 -0.56570783662E+02  0.57397667630E+02  0.00000000000E+00 0. -1.
        -14    1    6    6    0    0  0.16650363411E+03  0.96232332660E+02 -0.17075031596E+03  0.25717657829E+03  0.00000000000E+00 0.  1.
</event>
<event>
12    1  0.8416569E-002  0.1934749E+03  0.7818608E-02  0.1155391E+00
         21   -1    0    0  503  502  0.00000000000E+00  0.00000000000E+00  0.65992763180E+02  0.65992763180E+02  0.00000000000E+00 0.  1.
         21   -1    0    0  501  503 -0.00000000000E+00 -0.00000000000E+00 -0.96667379048E+03  0.96667379048E+03  0.00000000000E+00 0. -1.
          6    2    1    2  501    0  0.29243015216E+02 -0.84821487127E+02 -0.78231863651E+03  0.80585780626E+03  0.17127322111E+03 0.  0.
         24    2    3    3    0    0  0.54470045971E+02 -0.10836492851E+03 -0.47409301154E+03  0.49567105187E+03  0.78839485247E+02 0.  0.
         -6    2    1    2    0  502 -0.29243015216E+02  0.84821487127E+02 -0.11836239080E+03  0.22680874740E+03  0.17141386678E+03 0.  0.
        -24    2    5    5    0    0 -0.83805237688E+02  0.72026453840E+02 -0.92702546593E+02  0.16499235312E+03  0.80109840376E+02 0.  0.
          5    1    3    3  501    0 -0.25227030755E+02  0.23543441379E+02 -0.30822562497E+03  0.31018675439E+03  0.47000000000E+01 0. -1.
        -11    1    4    4    0    0  0.50925362747E+02 -0.17975248917E+02 -0.18977572726E+03  0.19731023492E+03  0.00000000000E+00 0.  1.
         12    1    4    4    0    0  0.35446832243E+01 -0.90389679590E+02 -0.28431728428E+03  0.29836081696E+03  0.00000000000E+00 0. -1.
         -5    1    5    5    0  502  0.54562222472E+02  0.12795033287E+02 -0.25659844203E+02  0.61816394285E+02  0.47000000000E+01 0.  1.
         11    1    6    6    0    0 -0.60830530441E+02  0.79307100580E+02 -0.41159205043E+02  0.10809278327E+03  0.00000000000E+00 0. -1.
        -12    1    6    6    0    0 -0.22974707247E+02 -0.72806467403E+01 -0.51543341549E+02  0.56899569841E+02  0.00000000000E+00 0.  1.
</event>
<event>
12    1  0.8416569E-002  0.1868204E+03  0.7818608E-02  0.1161529E+00
         21   -1    0    0  501  502  0.00000000000E+00  0.00000000000E+00  0.91899534255E+03  0.91899534255E+03  0.00000000000E+00 0. -1.
         21   -1    0    0  502  503 -0.00000000000E+00 -0.00000000000E+00 -0.46408337123E+02  0.46408337123E+02  0.00000000000E+00 0. -1.
         -6    2    1    2    0  503 -0.14199267100E+02  0.69141393863E+02  0.22806702019E+03  0.29435384079E+03  0.17218439638E+03 0.  0.
        -24    2    3    3    0    0 -0.12800789055E+02 -0.21682929191E+02  0.60151792529E+02  0.10338623338E+03  0.80227585589E+02 0.  0.
          6    2    1    2  501    0  0.14199267100E+02 -0.69141393863E+02  0.64451998524E+03  0.67104983888E+03  0.17297318683E+03 0.  0.
         24    2    5    5    0    0  0.71066700304E+02 -0.67243085272E+02  0.46043095290E+03  0.47831071374E+03  0.84925662076E+02 0.  0.
          5    1    5    5  501    0 -0.56867433204E+02 -0.18983085911E+01  0.18408903234E+03  0.19273912515E+03  0.47000000000E+01 0. -1.
        -13    1    6    6    0    0  0.66945382395E+02 -0.30537164195E+02  0.16606465259E+03  0.18163609625E+03  0.00000000000E+00 0.  1.
         14    1    6    6    0    0  0.41213179090E+01 -0.36705921077E+02  0.29436630031E+03  0.29667461749E+03  0.00000000000E+00 0. -1.
         -5    1    3    3    0  503 -0.13984780451E+01  0.90824323054E+02  0.16791522766E+03  0.19096760741E+03  0.47000000000E+01 0.  1.
         11    1    4    4    0    0  0.21020105197E+02 -0.31973987591E+02  0.60229787222E+01  0.38735732569E+02  0.00000000000E+00 0. -1.
        -12    1    4    4    0    0 -0.33820894252E+02  0.10291058400E+02  0.54128813807E+02  0.64650500811E+02  0.00000000000E+00 0.  1.
</event>
<event>
12    1  0.8416569E-002  0.2083544E+03  0.7818608E-02  0.1145984E+00
         21   -1    0    0  503  502  0.00000000000E+00  0.00000000000E+00  0.16595627021E+03  0.16595627021E+03  0.00000000000E+00 0.  1.
         21   -1    0    0  501  503 -0.00000000000E+00 -0.00000000000E+00 -0.24339543085E+03  0.24339543085E+03  0.00000000000E+00 0.  1.
          6    2    1    2  501    0 -0.40037830375E+02  0.80002821873E+02 -0.43481740950E+02  0.19824828840E+03  0.17148831648E+03 0.  0.
         24    2    3    3    0    0 -0.46341181545E+02  0.11563373409E+03 -0.58754176060E+02  0.15869286632E+03  0.78820727289E+02 0.  0.
         -6    2    1    2    0  502  0.40037830375E+02 -0.80002821873E+02 -0.33957419688E+02  0.21110341266E+03  0.18817030881E+03 0.  0.
        -24    2    5    5    0    0  0.64178581613E+02 -0.12140980701E+03 -0.38544770488E+02  0.16272523498E+03  0.78323503432E+02 0.  0.
          5    1    3    3  501    0  0.63033511697E+01 -0.35630912220E+02  0.15272435110E+02  0.39555422078E+02  0.47000000000E+01 0. -1.
        -13    1    4    4    0    0 -0.13883365667E+02  0.22613773012E+02 -0.53870983770E+02  0.60051756547E+02  0.00000000000E+00 0.  1.
         14    1    4    4    0    0 -0.32457815878E+02  0.93019961081E+02 -0.48831922903E+01  0.98641109776E+02  0.00000000000E+00 0. -1.
         -5    1    5    5    0  502 -0.24140751238E+02  0.41406985141E+02  0.45873507999E+01  0.48378177685E+02  0.47000000000E+01 0.  1.
         13    1    6    6    0    0  0.24031714873E+02 -0.61259395786E+02 -0.58129605224E+02  0.87802550619E+02  0.00000000000E+00 0. -1.
        -14    1    6    6    0    0  0.40146866740E+02 -0.60150411229E+02  0.19584834736E+02  0.74922684359E+02  0.00000000000E+00 0.  1.
</event>
<event>
12    1  0.8416569E-002  0.1901992E+03  0.7818608E-02  0.1158474E+00
         21   -1    0    0  501  502  0.00000000000E+00  0.00000000000E+00  0.23058008052E+02  0.23058008052E+02  0.00000000000E+00 0. -1.
         21   -1    0    0  502  503 -0.00000000000E+00 -0.00000000000E+00 -0.15747988216E+04  0.15747988216E+04  0.00000000000E+00 0.  1.
         -6    2    1    2    0  503 -0.63390564505E+02  0.50489368637E+02 -0.70178849927E+03  0.72688341605E+03  0.17112820576E+03 0.  0.
        -24    2    3    3    0    0 -0.10733048448E+03  0.44439609243E+02 -0.45015396750E+03  0.47132648749E+03  0.77558697673E+02 0.  0.
          6    2    1    2  501    0  0.63390564505E+02 -0.50489368637E+02 -0.84995231428E+03  0.87097341360E+03  0.17207036538E+03 0.  0.
         24    2    5    5    0    0 -0.27466101626E+02 -0.52276598105E+02 -0.42850810453E+03  0.43981747905E+03  0.79580084080E+02 0.  0.
          5    1    5    5  501    0  0.90856666131E+02  0.17872294689E+01 -0.42144420975E+03  0.43115593455E+03  0.47000000000E+01 0. -1.
        -11    1    6    6    0    0 -0.36276231179E+02  0.61579688483E+01 -0.11353270137E+03  0.11934638582E+03  0.00000000000E+00 0.  1.
         12    1    6    6    0    0  0.88101295534E+01 -0.58434566954E+02 -0.31497540316E+03  0.32047109322E+03  0.00000000000E+00 0. -1.
         -5    1    3    3    0  503  0.43939919976E+02  0.60497593932E+01 -0.25163453176E+03  0.25555692856E+03  0.47000000000E+01 0.  1.
         13    1    4    4    0    0 -0.55797952345E+02  0.50629053001E+02 -0.16367663145E+03  0.18018532730E+03  0.00000000000E+00 0. -1.
        -14    1    4    4    0    0 -0.51532532136E+02 -0.61894437576E+01 -0.28647733606E+03  0.29114116019E+03  0.00000000000E+00 0.  1.
</event>
<event>
12    1  0.8416569E-002  0.1947315E+03  0.7818608E-02  0.1154841E+00
         21   -1    0    0  501  502  0.00000000000E+00  0.00000000000E+00  0.11258549284E+04  0.11258549284E+04  0.00000000000E+00 0. -1.
         21   -1    0    0  502  503 -0.00000000000E+00 -0.00000000000E+00 -0.34955075034E+02  0.34955075034E+02  0.00000000000E+00 0.  1.
         -6    2    1    2    0  503 -0.89453521300E+02 -0.72962512386E+01  0.41290648783E+03  0.45540562145E+03  0.16984506056E+03 0.  0.
        -24    2    3    3    0    0 -0.48555621803E+02  0.40723823326E+02  0.12809287681E+03  0.16365324568E+03  0.79740338197E+02 0.  0.
          6    2    1    2  501    0  0.89453521300E+02  0.72962512386E+01  0.67799336555E+03  0.70540438201E+03  0.17281542369E+03 0.  0.
         24    2    5    5    0    0  0.31028051029E+01 -0.38561544544E+02  0.22099769202E+03  0.23804315207E+03  0.79548364228E+02 0.  0.
          5    1    5    5  501    0  0.86350716197E+02  0.45857795783E+02  0.45699567353E+03  0.46736122993E+03  0.47000000000E+01 0. -1.
        -11    1    6    6    0    0  0.36446534150E+02 -0.28993741495E+01  0.64917066319E+02  0.74504910720E+02  0.00000000000E+00 0.  1.
         12    1    6    6    0    0 -0.33343729047E+02 -0.35662170395E+02  0.15608062570E+03  0.16353824135E+03  0.00000000000E+00 0. -1.
         -5    1    3    3    0  503 -0.40897899497E+02 -0.48020074565E+02  0.28481361102E+03  0.29175237577E+03  0.47000000000E+01 0.  1.
         13    1    4    4    0    0 -0.23133428194E+02  0.39801147189E+02  0.13022750862E+03  0.13812491020E+03  0.00000000000E+00 0. -1.
        -14    1    4    4    0    0 -0.25422193609E+02  0.92267613751E+00 -0.21346318068E+01  0.25528335474E+02  0.00000000000E+00 0.  1.
</event>
<event>
12    1  0.8416569E-002  0.2034164E+03  0.7818608E-02  0.1146930E+00
         21   -1    0    0  503  502  0.00000000000E+00  0.00000000000E+00  0.10149006011E+04  0.10149006011E+04  0.00000000000E+00 0. -1.
         21   -1    0    0  501  503 -0.00000000000E+00 -0.00000000000E+00 -0.41726656175E+02  0.41726656175E+02  0.00000000000E+00 0. -1.
          6    2    1    2  501    0 -0.48112284141E+01  0.10688690834E+03  0.40472635057E+03  0.45287987942E+03  0.17276807357E+03 0.  0.
         24    2    3    3    0    0 -0.28715737454E+02  0.11870077015E+03  0.20778053524E+03  0.25408164739E+03  0.80437965567E+02 0.  0.
         -6    2    1    2    0  502  0.48112284141E+01 -0.10688690834E+03  0.56844759431E+03  0.60374737781E+03  0.17300366944E+03 0.  0.
        -24    2    5    5    0    0  0.58004981647E+02 -0.28382899325E+02  0.36945885906E+03  0.38326821423E+03  0.78895555208E+02 0.  0.
          5    1    3    3  501    0  0.23904509040E+02 -0.11813861807E+02  0.19694581533E+03  0.19879823203E+03  0.47000000000E+01 0. -1.
        -13    1    4    4    0    0 -0.32093267741E+01  0.60830796207E+01 -0.72597748124E+01  0.10000398309E+02  0.00000000000E+00 0.  1.
         14    1    4    4    0    0 -0.25506410680E+02  0.11261769053E+03  0.21504031005E+03  0.24408124908E+03  0.00000000000E+00 0. -1.
         -5    1    5    5    0  502 -0.53193753233E+02 -0.78504009019E+02  0.19898873525E+03  0.22047916357E+03  0.47000000000E+01 0.  1.
         13    1    6    6    0    0  0.41459202085E+01 -0.34246604430E+02  0.60921330521E+02  0.70010192699E+02  0.00000000000E+00 0. -1.
        -14    1    6    6    0    0  0.53859061439E+02  0.58637051053E+01  0.30853752854E+03  0.31325802153E+03  0.00000000000E+00 0.  1.
</event>
<event>
12    1  0.8416569E-002  0.2216688E+03  0.7818608E-02  0.1133891E+00
         21   -1    0    0  501  502  0.00000000000E+00  0.00000000000E+00  0.53036895688E+03  0.53036895688E+03  0.00000000000E+00 0.  1.
         21   -1    0    0  502  503 -0.00000000000E+00 -0.00000000000E+00 -0.11590880429E+03  0.11590880429E+03  0.00000000000E+00 0.  1.
         -6    2    1    2    0  503 -0.10885686158E+02  0.13702899502E+03  0.56592440664E+02  0.22877881078E+03  0.17390111064E+03 0.  0.
        -24    2    3    3    0    0 -0.94443838522E+01  0.11395230369E+02  0.62654493947E+02  0.10290284539E+03  0.80276785666E+02 0.  0.
          6    2    1    2  501    0  0.10885686158E+02 -0.13702899502E+03  0.35786771192E+03  0.41749895039E+03  0.16535002480E+03 0.  0.
         24    2    5    5    0    0  0.23436001306E+02 -0.64487425851E+02  0.90341711672E+02  0.13998851729E+03  0.82020033259E+02 0.  0.
          5    1    5    5  501    0 -0.12550315148E+02 -0.72541569165E+02  0.26752600025E+03  0.27751043310E+03  0.47000000000E+01 0. -1.
        -13    1    6    6    0    0  0.17479053833E+01 -0.50980586673E+02  0.54096802893E+01  0.51296588888E+02  0.00000000000E+00 0.  1.
         14    1    6    6    0    0  0.21688095923E+02 -0.13506839179E+02  0.84932031383E+02  0.88691928405E+02  0.00000000000E+00 0. -1.
         -5    1    3    3    0  503 -0.14413023060E+01  0.12563376465E+03 -0.60620532826E+01  0.12587596539E+03  0.47000000000E+01 0.  1.
         13    1    4    4    0    0 -0.90901522291E+01 -0.28990235323E+02  0.25487787591E+01  0.30488700937E+02  0.00000000000E+00 0. -1.
        -14    1    4    4    0    0 -0.35423162309E+00  0.40385465692E+02  0.60105715188E+02  0.72414144457E+02  0.00000000000E+00 0.  1.
</event>
<event>
12    1  0.8416569E-002  0.1802780E+03  0.7818608E-02  0.1169582E+00
         21   -1    0    0  501  502  0.00000000000E+00  0.00000000000E+00  0.99922822648E+02  0.99922822648E+02  0.00000000000E+00 0. -1.
         21   -1    0    0  502  503 -0.00000000000E+00 -0.00000000000E+00 -0.32039470110E+03  0.32039470110E+03  0.00000000000E+00 0. -1.
         -6    2    1    2    0  503  0.22065613248E+02  0.28928586430E+00 -0.14464267591E+03  0.22474087384E+03  0.17058716747E+03 0.  0.
        -24    2    3    3    0    0  0.63160780963E+00  0.63966590923E+01 -0.50430272011E+00  0.78813915317E+02  0.78549746979E+02 0.  0.
          6    2    1    2  501    0 -0.22065613248E+02 -0.28928586430E+00 -0.75829202539E+02  0.19557664991E+03  0.17892228217E+03 0.  0.
         24    2    5    5    0    0  0.29966575538E+02 -0.34437799695E+02  0.50469153009E+01  0.93417430532E+02  0.81347324946E+02 0.  0.
          5    1    5    5  501    0 -0.52032188785E+02  0.34148513831E+02 -0.80876117840E+02  0.10215921938E+03  0.47000000000E+01 0. -1.
        -11    1    6    6    0    0 -0.14004461731E+02  0.14348259383E+02 -0.14670634991E+02  0.24844013902E+02  0.00000000000E+00 0.  1.
         12    1    6    6    0    0  0.43971037269E+02 -0.48786059078E+02  0.19717550292E+02  0.68573416631E+02  0.00000000000E+00 0. -1.
         -5    1    3    3    0  503  0.21434005438E+02 -0.61073732280E+01 -0.14413837319E+03  0.14592695852E+03  0.47000000000E+01 0.  1.
         11    1    4    4    0    0 -0.37450733839E+02 -0.68367250614E+01 -0.43377629161E+01  0.38315981806E+02  0.00000000000E+00 0. -1.
        -12    1    4    4    0    0  0.38082341649E+02  0.13233384154E+02  0.38334601960E+01  0.40497933511E+02  0.00000000000E+00 0.  1.
</event>
<event>
12    1  0.8416569E-002  0.2169349E+03  0.7818608E-02  0.1136312E+00
         21   -1    0    0  501  502  0.00000000000E+00  0.00000000000E+00  0.37886328616E+03  0.37886328616E+03  0.00000000000E+00 0.  1.
         21   -1    0    0  502  503 -0.00000000000E+00 -0.00000000000E+00 -0.15524716463E+03  0.15524716463E+03  0.00000000000E+00 0.  1.
         -6    2    1    2    0  503  0.87834839224E+02  0.98783200815E+02 -0.81628543413E+01  0.21708844213E+03  0.17201069667E+03 0.  0.
        -24    2    3    3    0    0  0.68550342919E+01  0.51698250531E+02 -0.58230584879E+02  0.11077010415E+03  0.78482573571E+02 0.  0.
          6    2    1    2  501    0 -0.87834839224E+02 -0.98783200815E+02  0.23177897587E+03  0.31702200867E+03  0.17119690587E+03 0.  0.
         24    2    5    5    0    0 -0.12551760094E+03 -0.97886301610E+02  0.19984209177E+03  0.26739490392E+03  0.78909928484E+02 0.  0.
          5    1    5    5  501    0  0.37682761720E+02 -0.89689920538E+00  0.31936884102E+02  0.49627104743E+02  0.47000000000E+01 0. -1.
        -11    1    6    6    0    0  0.15416624219E+01 -0.96319810235E+01  0.53702496064E+02  0.54581222641E+02  0.00000000000E+00 0.  1.
         12    1    6    6    0    0 -0.12705926337E+03 -0.88254320586E+02  0.14613959570E+03  0.21281368128E+03  0.00000000000E+00 0. -1.
         -5    1    3    3    0  503  0.80979804932E+02  0.47084950284E+02  0.50067730537E+02  0.10631833798E+03  0.47000000000E+01 0.  1.
         11    1    4    4    0    0 -0.17643299103E+02 -0.14087103411E+02 -0.22989697356E+02  0.32222021511E+02  0.00000000000E+00 0. -1.
        -12    1    4    4    0    0  0.24498333395E+02  0.65785353942E+02 -0.35240887523E+02  0.78548082636E+02  0.00000000000E+00 0.  1.
</event>
<event>
12    1  0.8416569E-002  0.2537431E+03  0.7818608E-02  0.1111361E+00
         21   -1    0    0  503  502  0.00000000000E+00  0.00000000000E+00  0.15501075227E+03  0.15501075227E+03  0.00000000000E+00 0. -1.
         21   -1    0    0  501  503 -0.00000000000E+00 -0.00000000000E+00 -0.45361783913E+03  0.45361783913E+03  0.00000000000E+00 0.  1.
          6    2    1    2  501    0  0.80817823668E+02  0.16808965413E+03 -0.24307479481E+03  0.35138428291E+03  0.17204623201E+03 0.  0.
         24    2    3    3    0    0  0.10415296942E+03  0.10514835355E+03 -0.22663265336E+03  0.28211256889E+03  0.79505500826E+02 0.  0.
         -6    2    1    2    0  502 -0.80817823668E+02 -0.16808965413E+03 -0.55532292048E+02  0.25724430850E+03  0.16824133365E+03 0.  0.
        -24    2    5    5    0    0 -0.18483496684E+02 -0.45767752986E+02  0.23539656723E+02  0.98742955501E+02  0.82217570868E+02 0.  0.
          5    1    3    3  501    0 -0.23335145757E+02  0.62941300588E+02 -0.16442141450E+02  0.69271714016E+02  0.47000000000E+01 0. -1.
        -11    1    4    4    0    0  0.23067780142E+02  0.62674430240E+02 -0.14426397724E+03  0.15897264487E+03  0.00000000000E+00 0.  1.
         12    1    4    4    0    0  0.81085189283E+02  0.42473923306E+02 -0.82368676120E+02  0.12313992402E+03  0.00000000000E+00 0. -1.
         -5    1    5    5    0  502 -0.62334326984E+02 -0.12232190115E+03 -0.79071948771E+02  0.15850135300E+03  0.47000000000E+01 0.  1.
         11    1    6    6    0    0  0.26498170076E+02  0.15847196366E+01 -0.57552537230E+01  0.27162240319E+02  0.00000000000E+00 0. -1.
        -12    1    6    6    0    0 -0.44981666760E+02 -0.47352472622E+02  0.29294910446E+02  0.71580715182E+02  0.00000000000E+00 0.  1.
</event>
<event>
12    1  0.8416569E-002  0.2158042E+03  0.7818608E-02  0.1137372E+00
         21   -1    0    0  501  502  0.00000000000E+00  0.00000000000E+00  0.83421592845E+03  0.83421592845E+03  0.00000000000E+00 0.  1.
         21   -1    0    0  502  503 -0.00000000000E+00 -0.00000000000E+00 -0.58666305983E+02  0.58666305983E+02  0.00000000000E+00 0. -1.
         -6    2    1    2    0  503 -0.10382114174E+03 -0.76129193795E+02  0.49464757759E+03  0.53967369531E+03  0.17319638501E+03 0.  0.
        -24    2    3    3    0    0  0.71996980720E+01 -0.77013266591E+01  0.13413882879E+03  0.15627227665E+03  0.79477373988E+02 0.  0.
          6    2    1    2  501    0  0.10382114174E+03  0.76129193795E+02  0.28090204488E+03  0.35320853912E+03  0.17110181083E+03 0.  0.
         24    2    5    5    0    0  0.28051929109E+02  0.38041532090E+01  0.20971463644E+03  0.22647408367E+03  0.80677751131E+02 0.  0.
          5    1    5    5  501    0  0.75769212629E+02  0.72325040586E+02  0.71187408440E+02  0.12673445545E+03  0.47000000000E+01 0. -1.
        -11    1    6    6    0    0 -0.28520064813E+02  0.18409963620E+01  0.61441440985E+02  0.67763072797E+02  0.00000000000E+00 0.  1.
         12    1    6    6    0    0  0.56571993923E+02  0.19631568470E+01  0.14827319545E+03  0.15871101087E+03  0.00000000000E+00 0. -1.
         -5    1    3    3    0  503 -0.11102083981E+03 -0.68427867136E+02  0.36050874880E+03  0.38340141866E+03  0.47000000000E+01 0.  1.
         13    1    4    4    0    0 -0.13199973102E+02  0.16903505772E+02  0.11898100694E+03  0.12089850209E+03  0.00000000000E+00 0. -1.
        -14    1    4    4    0    0  0.20399671174E+02 -0.24604832431E+02  0.15157821853E+02  0.35373774556E+02  0.00000000000E+00 0.  1.
</event>
<event>
12    1  0.8416569E-002  0.2709592E+03  0.7818608E-02  0.1100834E+00
         21   -1    0    0  501  502  0.00000000000E+00  0.00000000000E+00  0.33216984458E+03  0.33216984458E+03  0.00000000000E+00 0. -1.
         21   -1    0    0  502  503 -0.00000000000E+00 -0.00000000000E+00 -0.24099302068E+03  0.24099302068E+03  0.00000000000E+00 0.  1.
         -6    2    1    2    0  503 -0.16338682963E+03 -0.12880787288E+03  0.12933033690E+03  0.30024197819E+03  0.17358624719E+03 0.  0.
        -24    2    3    3    0    0 -0.10108107155E+03 -0.13699817257E+02  0.10629366346E+03  0.16725833152E+03  0.79195571544E+02 0.  0.
          6    2    1    2  501    0  0.16338682963E+03  0.12880787288E+03 -0.38153512994E+02  0.27292088706E+03  0.17246273750E+03 0.  0.
         24    2    5    5    0    0  0.18354059142E+03  0.14124813600E+03 -0.26911113821E+02  0.24628602645E+03  0.79337344003E+02 0.  0.
          5    1    5    5  501    0 -0.20153761789E+02 -0.12440263116E+02 -0.11242399173E+02  0.26634860612E+02  0.47000000000E+01 0. -1.
        -11    1    6    6    0    0  0.33018977995E+02  0.11002377590E+02 -0.31846597461E+02  0.47175321836E+02  0.00000000000E+00 0.  1.
         12    1    6    6    0    0  0.15052161343E+03  0.13024575841E+03  0.49354836401E+01  0.19911070461E+03  0.00000000000E+00 0. -1.
         -5    1    3    3    0  503 -0.62305758077E+02 -0.11510805563E+03  0.23036673437E+02  0.13298364667E+03  0.47000000000E+01 0.  1.
         13    1    4    4    0    0 -0.10581946773E+03 -0.25025867347E+02  0.10975760876E+03  0.15450173613E+03  0.00000000000E+00 0. -1.
        -14    1    4    4    0    0  0.47383961736E+01  0.11326050090E+02 -0.34639452994E+01  0.12756595391E+02  0.00000000000E+00 0.  1.
</event>
<event>
12    1  0.8416569E-002  0.3558664E+03  0.7818608E-02  0.1060274E+00
         21   -1    0    0  501  502  0.00000000000E+00  0.00000000000E+00  0.42887977027E+03  0.42887977027E+03  0.00000000000E+00 0. -1.
         21   -1    0    0  502  503 -0.00000000000E+00 -0.00000000000E+00 -0.42976216868E+03  0.42976216868E+03  0.00000000000E+00 0.  1.
         -6    2    1    2    0  503  0.27929216532E+03 -0.13838941556E+03 -0.24090271877E+03  0.42939765942E+03  0.17085808747E+03 0.  0.
        -24    2    3    3    0    0  0.13698874761E+03 -0.88718805873E+01 -0.71711721335E+02  0.17313073184E+03  0.77376043406E+02 0.  0.
          6    2    1    2  501    0 -0.27929216532E+03  0.13838941556E+03  0.24002032036E+03  0.42924427953E+03  0.17171241472E+03 0.  0.
         24    2    5    5    0    0 -0.18669934234E+03  0.16261499999E+03  0.18182069628E+03  0.31713006968E+03  0.78818987831E+02 0.  0.
          5    1    5    5  501    0 -0.92592822978E+02 -0.24225584423E+02  0.58199624081E+02  0.11211420985E+03  0.47000000000E+01 0. -1.
        -13    1    6    6    0    0 -0.82939300620E+02  0.75548890714E+02  0.35344041716E+02  0.11762552342E+03  0.00000000000E+00 0.  1.
         14    1    6    6    0    0 -0.10376004172E+03  0.87066109273E+02  0.14647665457E+03  0.19950454625E+03  0.00000000000E+00 0. -1.
         -5    1    3    3    0  503  0.14230341772E+03 -0.12951753498E+03 -0.16919099744E+03  0.25626692758E+03  0.47000000000E+01 0.  1.
         11    1    4    4    0    0  0.90582733251E+02 -0.39281965041E+02 -0.28376974494E+02  0.10273050677E+03  0.00000000000E+00 0. -1.
        -12    1    4    4    0    0  0.46406014356E+02  0.30410084454E+02 -0.43334746841E+02  0.70400225061E+02  0.00000000000E+00 0.  1.
</event>
<event>
12    1  0.8416569E-002  0.1829505E+03  0.7818608E-02  0.1165220E+00
         21   -1    0    0  503  502  0.00000000000E+00  0.00000000000E+00  0.28391838826E+03  0.28391838826E+03  0.00000000000E+00 0.  1.
         21   -1    0    0  501  503 -0.00000000000E+00 -0.00000000000E+00 -0.14519280678E+03  0.14519280678E+03  0.00000000000E+00 0.  1.
          6    2    1    2  501    0  0.22206396525E+02  0.54823794221E+02 -0.24944318270E+02  0.18363466976E+03  0.17204854102E+03 0.  0.
         24    2    3    3    0    0 -0.30072312117E+02 -0.24746031342E+01 -0.50629738240E+02  0.10179335675E+03  0.82994273704E+02 0.  0.
         -6    2    1    2    0  502 -0.22206396525E+02 -0.54823794221E+02  0.16366989975E+03  0.24547652527E+03  0.17312456763E+03 0.  0.
        -24    2    5    5    0    0 -0.39137089345E+02  0.92712464028E+01  0.15624432020E+03  0.17860312381E+03  0.76610185135E+02 0.  0.
          5    1    3    3  501    0  0.52278708642E+02  0.57298397355E+02  0.25685419969E+02  0.81841313013E+02  0.47000000000E+01 0. -1.
        -13    1    4    4    0    0 -0.43697528272E+02  0.26529864816E+02 -0.13752439238E+02  0.52938051430E+02  0.00000000000E+00 0.  1.
         14    1    4    4    0    0  0.13625216155E+02 -0.29004467950E+02 -0.36877299002E+02  0.48855305321E+02  0.00000000000E+00 0. -1.
         -5    1    5    5    0  502  0.16930692819E+02 -0.64095040623E+02  0.74255795438E+01  0.66873401464E+02  0.47000000000E+01 0.  1.
         13    1    6    6    0    0 -0.40248472253E+02  0.33791794693E+02  0.62301052878E+02  0.81506110795E+02  0.00000000000E+00 0. -1.
        -14    1    6    6    0    0  0.11113829089E+01 -0.24520548290E+02  0.93943267326E+02  0.97097013015E+02  0.00000000000E+00 0.  1.
</event>
<event>
12    1  0.8416569E-002  0.2004997E+03  0.7818608E-02  0.1151764E+00
         21   -1    0    0  501  502  0.00000000000E+00  0.00000000000E+00  0.88578874648E+03  0.88578874648E+03  0.00000000000E+00 0.  1.
         21   -1    0    0  502  503 -0.00000000000E+00 -0.00000000000E+00 -0.72501785945E+02  0.72501785945E+02  0.00000000000E+00 0.  1.
         -6    2    1    2    0  503 -0.57208075912E+02 -0.59235629345E+02  0.10734188173E+03  0.22742558808E+03  0.18280726136E+03 0.  0.
        -24    2    3    3    0    0 -0.65239183648E+01  0.14515094529E+02 -0.80389992865E+01  0.81333525316E+02  0.79355323393E+02 0.  0.
          6    2    1    2  501    0  0.57208075912E+02  0.59235629345E+02  0.70594507881E+03  0.73086494435E+03  0.17036281534E+03 0.  0.
         24    2    5    5    0    0  0.61822639015E+02  0.10300265429E+03  0.54765301380E+03  0.56650158313E+03  0.81047113984E+02 0.  0.
          5    1    5    5  501    0 -0.46145631031E+01 -0.43767024942E+02  0.15829206501E+03  0.16436336122E+03  0.47000000000E+01 0. -1.
        -11    1    6    6    0    0  0.14214712189E+02  0.92177186187E+02  0.40913876894E+03  0.41963463149E+03  0.00000000000E+00 0.  1.
         12    1    6    6    0    0  0.47607926826E+02  0.10825468101E+02  0.13851424485E+03  0.14686695164E+03  0.00000000000E+00 0. -1.
         -5    1    3    3    0  503 -0.50684157547E+02 -0.73750723874E+02  0.11538088102E+03  0.14609206276E+03  0.47000000000E+01 0.  1.
         11    1    4    4    0    0 -0.21803785648E+01 -0.22854383676E+02  0.23047305837E+02  0.32530834760E+02  0.00000000000E+00 0. -1.
        -12    1    4    4    0    0 -0.43435398000E+01  0.37369478205E+02 -0.31086305123E+02  0.48802690556E+02  0.00000000000E+00 0.  1.
</event>
<event>
12    1  0.8416569E-002  0.2521828E+03  0.7818608E-02  0.1112238E+00
         21   -1    0    0  503  502  0.00000000000E+00  0.00000000000E+00  0.11830647380E+04  0.11830647380E+04  0.00000000000E+00 0. -1.
         21   -1    0    0  501  503 -0.00000000000E+00 -0.00000000000E+00 -0.33288809016E+03  0.33288809016E+03  0.00000000000E+00 0.  1.
          6    2    1    2  501    0  0.14730286331E+03 -0.11095136569E+03 -0.26977303911E+03  0.36796177105E+03  0.16914500653E+03 0.  0.
         24    2    3    3    0    0  0.94768680719E+02  0.34333998272E+01 -0.12850141509E+03  0.17869086288E+03  0.80155596932E+02 0.  0.
         -6    2    1    2    0  502 -0.14730286331E+03  0.11095136569E+03  0.11199496870E+04  0.11479910571E+04  0.17201112406E+03 0.  0.
        -24    2    5    5    0    0 -0.84112884871E+01  0.33197057604E+02  0.54388278665E+03  0.55031910226E+03  0.76614843809E+02 0.  0.
          5    1    3    3  501    0  0.52534182592E+02 -0.11438476552E+03 -0.14127162403E+03  0.18927090817E+03  0.47000000000E+01 0. -1.
        -13    1    4    4    0    0  0.83488186219E+02 -0.24760598588E+02 -0.66219039263E+02  0.10939984297E+03  0.00000000000E+00 0.  1.
         14    1    4    4    0    0  0.11280494500E+02  0.28193998415E+02 -0.62282375822E+02  0.69291019915E+02  0.00000000000E+00 0. -1.
         -5    1    5    5    0  502 -0.13889157482E+03  0.77754308085E+02  0.57606690034E+03  0.59767195488E+03  0.47000000000E+01 0.  1.
         13    1    6    6    0    0 -0.42003014758E+02  0.13409699769E+02  0.24950406312E+03  0.25336998798E+03  0.00000000000E+00 0. -1.
        -14    1    6    6    0    0  0.33591726271E+02  0.19787357834E+02  0.29437872354E+03  0.29694911429E+03  0.00000000000E+00 0.  1.
</event>
<event>
12    1  0.8416569E-002  0.2412945E+03  0.7818608E-02  0.1119045E+00
         21   -1    0    0  501  502  0.00000000000E+00  0.00000000000E+00  0.19146839060E+03  0.19146839060E+03  0.00000000000E+00 0.  1.
         21   -1    0    0  502  503 -0.00000000000E+00 -0.00000000000E+00 -0.30538078588E+03  0.30538078588E+03  0.00000000000E+00 0.  1.
         -6    2    1    2    0  503 -0.16728932301E+03  0.26711161858E+02 -0.77838108194E+02  0.25353858665E+03  0.17182502749E+03 0.  0.
        -24    2    3    3    0    0 -0.41149789135E+02  0.56178549220E+02 -0.60660743900E+02  0.12278438684E+03  0.80913195852E+02 0.  0.
          6    2    1    2  501    0  0.16728932301E+03 -0.26711161858E+02 -0.36074287088E+02  0.24331058982E+03  0.17087856850E+03 0.  0.
         24    2    5    5    0    0  0.10575856071E+02 -0.21516193546E+02 -0.18348780013E+02  0.85442347244E+02  0.79930730375E+02 0.  0.
          5    1    5    5  501    0  0.15671346693E+03 -0.51949683120E+01 -0.17725507075E+02  0.15786824258E+03  0.47000000000E+01 0. -1.
        -11    1    6    6    0    0  0.32842735638E+01  0.13672578351E+01  0.30659662693E+02  0.30865365108E+02  0.00000000000E+00 0.  1.
         12    1    6    6    0    0  0.72915825074E+01 -0.22883451381E+02 -0.49008442706E+02  0.54576982135E+02  0.00000000000E+00 0. -1.
         -5    1    3    3    0  503 -0.12613953387E+03 -0.29467387362E+02 -0.17177364294E+02  0.13075419981E+03  0.47000000000E+01 0.  1.
         13    1    4    4    0    0 -0.19454852110E+02 -0.70035036377E+01 -0.51323349070E+02  0.55331966290E+02  0.00000000000E+00 0. -1.
        -14    1    4    4    0    0 -0.21694937025E+02  0.63182052858E+02 -0.93373948303E+01  0.67452420550E+02  0.00000000000E+00 0.  1.
</event>
<event>
12    1  0.8416569E-002  0.2069952E+03  0.7818608E-02  0.1144309E+00
         21   -1    0    0  503  502  0.00000000000E+00  0.00000000000E+00  0.23495817716E+04  0.23495817716E+04  0.00000000000E+00 0. -1.
         21   -1    0    0  501  503 -0.00000000000E+00 -0.00000000000E+00 -0.24031428697E+02  0.24031428697E+02  0.00000000000E+00 0. -1.
          6    2    1    2  501    0  0.24882619714E+02  0.11159171175E+03  0.56897866281E+03  0.60488737067E+03  0.17052905197E+03 0.  0.
         24    2    3    3    0    0  0.23895012769E+02  0.86984663027E+02  0.56693109024E+03  0.57973255467E+03  0.80880594896E+02 0.  0.
         -6    2    1    2    0  502 -0.24882619714E+02 -0.11159171175E+03  0.17565716801E+04  0.17687258297E+04  0.17255473971E+03 0.  0.
        -24    2    5    5    0    0 -0.34031884969E+02 -0.10531727391E+03  0.77698469655E+03  0.78906475255E+03  0.81658236928E+02 0.  0.
          5    1    3    3  501    0  0.98760694544E+00  0.24607048719E+02  0.20475725661E+01  0.25154815991E+02  0.47000000000E+01 0. -1.
        -11    1    4    4    0    0 -0.23379767494E+02  0.27138252702E+02  0.92189141627E+02  0.98903670922E+02  0.00000000000E+00 0.  1.
         12    1    4    4    0    0  0.47274780263E+02  0.59846410326E+02  0.47474194861E+03  0.48082888375E+03  0.00000000000E+00 0. -1.
         -5    1    5    5    0  502  0.91492652547E+01 -0.62744378344E+01  0.97958698357E+03  0.97966107711E+03  0.47000000000E+01 0.  1.
         11    1    6    6    0    0 -0.70112567364E+01 -0.74042963557E+02  0.25993747067E+03  0.27036828001E+03  0.00000000000E+00 0. -1.
        -12    1    6    6    0    0 -0.27020628233E+02 -0.31274310355E+02  0.51704722588E+03  0.51869647254E+03  0.00000000000E+00 0.  1.
</event>
<event>
12    1  0.8416569E-002  0.1742005E+03  0.7818608E-02  0.1174459E+00
         21   -1    0    0  501  502  0.00000000000E+00  0.00000000000E+00  0.35875045282E+03  0.35875045282E+03  0.00000000000E+00 0.  1.
         21   -1    0    0  502  503 -0.00000000000E+00 -0.00000000000E+00 -0.88222505801E+02  0.88222505801E+02  0.00000000000E+00 0.  1.
         -6    2    1    2    0  503  0.27226608495E+02 -0.25266709288E+01  0.19177485674E+03  0.25908186353E+03  0.17204111153E+03 0.  0.
        -24    2    3    3    0    0  0.50736014148E+02 -0.59409597833E+02  0.11416352099E+03  0.15991549340E+03  0.80224759634E+02 0.  0.
          6    2    1    2  501    0 -0.27226608495E+02  0.25266709288E+01  0.78753090276E+02  0.18789109509E+03  0.16838450674E+03 0.  0.
         24    2    5    5    0    0 -0.64928090016E+02  0.28115879031E+02  0.12452665772E+02  0.10730545388E+03  0.79707164173E+02 0.  0.
          5    1    5    5  501    0  0.37701481521E+02 -0.25589208103E+02  0.66300424504E+02  0.80585641212E+02  0.47000000000E+01 0. -1.
        -11    1    6    6    0    0 -0.21958242494E+02 -0.85548880495E+01  0.38468082820E+02  0.45112569410E+02  0.00000000000E+00 0.  1.
         12    1    6    6    0    0 -0.42969847522E+02  0.36670767081E+02 -0.26015417048E+02  0.62192884468E+02  0.00000000000E+00 0. -1.
         -5    1    3    3    0  503 -0.23509405653E+02  0.56882926904E+02  0.77611335752E+02  0.99166370129E+02  0.47000000000E+01 0.  1.
         13    1    4    4    0    0  0.20682241283E+02 -0.58646944464E+02  0.11399213850E+03  0.12985155694E+03  0.00000000000E+00 0. -1.
        -14    1    4    4    0    0  0.30053772865E+02 -0.76265336941E+00  0.17138248860E+00  0.30063936461E+02  0.00000000000E+00 0.  1.
</event>
<event>
12    1  0.8416569E-002  0.2461028E+03  0.7818608E-02  0.1116267E+00
         21   -1    0    0  501  502  0.00000000000E+00  0.00000000000E+00  0.31144642213E+03  0.31144642213E+03  0.00000000000E+00 0. -1.
         21   -1    0    0  502  503 -0.00000000000E+00 -0.00000000000E+00 -0.19375633320E+03  0.19375633320E+03  0.00000000000E+00 0. -1.
         -6    2    1    2    0  503 -0.10615462427E+03  0.13641489279E+03  0.36314237404E+02  0.24876761151E+03  0.17518211515E+03 0.  0.
        -24    2    3    3    0    0 -0.10042640258E+03  0.78607118955E+02  0.84436682103E+02  0.17318711850E+03  0.81238434526E+02 0.  0.
          6    2    1    2  501    0  0.10615462427E+03 -0.13641489279E+03  0.81375851522E+02  0.25643514382E+03  0.17105299339E+03 0.  0.
         24    2    5    5    0    0  0.10796503258E+03 -0.66528743985E+02  0.10376932227E+03  0.18287626329E+03  0.81198112012E+02 0.  0.
          5    1    5    5  501    0 -0.18104083104E+01 -0.69886148801E+02 -0.22393470750E+02  0.73558880529E+02  0.47000000000E+01 0. -1.
        -11    1    6    6    0    0  0.53460739056E+02 -0.74310547352E+02  0.84395897349E+02  0.12451014239E+03  0.00000000000E+00 0.  1.
         12    1    6    6    0    0  0.54504293520E+02  0.77818033672E+01  0.19373424923E+02  0.58366120901E+02  0.00000000000E+00 0. -1.
         -5    1    3    3    0  503 -0.57282216823E+01  0.57807773831E+02 -0.48122444700E+02  0.75580493005E+02  0.47000000000E+01 0.  1.
         11    1    4    4    0    0 -0.12011708483E+02 -0.15264242873E+02  0.23710173721E+02  0.30650458219E+02  0.00000000000E+00 0. -1.
        -12    1    4    4    0    0 -0.88414694100E+02  0.93871361828E+02  0.60726508382E+02  0.14253666028E+03  0.00000000000E+00 0.  1.
</event>
<event>
12    1  0.8416569E-002  0.2066864E+03  0.7818608E-02  0.1145842E+00
         21   -1    0    0  501  502  0.00000000000E+00  0.00000000000E+00  0.42113785923E+03  0.42113785923E+03  0.00000000000E+00 0. -1.
         21   -1    0    0  502  503 -0.00000000000E+00 -0.00000000000E+00 -0.17334407809E+03  0.17334407809E+03  0.00000000000E+00 0. -1.
         -6    2    1    2    0  503  0.10099114854E+03  0.38861943713E+02 -0.73909414736E+02  0.21210489987E+03  0.16678256567E+03 0.  0.
        -24    2    3    3    0    0  0.11773357514E+03  0.60983352074E+02 -0.89246768898E+02  0.18005821535E+03  0.82920511393E+02 0.  0.
          6    2    1    2  501    0 -0.10099114854E+03 -0.38861943713E+02  0.32170319587E+03  0.38237703745E+03  0.17609596752E+03 0.  0.
         24    2    5    5    0    0 -0.70284398125E+01  0.25426837311E+02  0.41409142622E+02  0.79806575759E+02  0.62916209516E+02 0.  0.
          5    1    5    5  501    0 -0.93962708727E+02 -0.64288781024E+02  0.28029405325E+03  0.30257046169E+03  0.47000000000E+01 0. -1.
        -11    1    6    6    0    0  0.21439416161E+02  0.24767248257E+02  0.39430584715E+02  0.51262424469E+02  0.00000000000E+00 0.  1.
         12    1    6    6    0    0 -0.28467855973E+02  0.65958905482E+00  0.19785579067E+01  0.28544151289E+02  0.00000000000E+00 0. -1.
         -5    1    3    3    0  503 -0.16742426602E+02 -0.22121408361E+02  0.15337354162E+02  0.32046684526E+02  0.47000000000E+01 0.  1.
         13    1    4    4    0    0  0.10530250927E+03  0.66941170621E+02 -0.43284164041E+02  0.13207292546E+03  0.00000000000E+00 0. -1.
        -14    1    4    4    0    0  0.12431065873E+02 -0.59578185470E+01 -0.45962604857E+02  0.47985289890E+02  0.00000000000E+00 0.  1.
</event>
<event>
12    1  0.8416569E-002  0.1797579E+03  0.7818608E-02  0.1168050E+00
         21   -1    0    0  501  502  0.00000000000E+00  0.00000000000E+00  0.27651662919E+03  0.27651662919E+03  0.00000000000E+00 0.  1.
         21   -1    0    0  502  503 -0.00000000000E+00 -0.00000000000E+00 -0.21811118171E+03  0.21811118171E+03  0.00000000000E+00 0.  1.
         -6    2    1    2    0  503 -0.43276410296E+02  0.26324476118E+02 -0.13932889634E+03  0.22743229541E+03  0.17247342377E+03 0.  0.
        -24    2    3    3    0    0 -0.50533739962E+02 -0.19566355657E+02 -0.15978939075E+02  0.95538629024E+02  0.77044156129E+02 0.  0.
          6    2    1    2  501    0  0.43276410296E+02 -0.26324476118E+02  0.19773434382E+03  0.26719551548E+03  0.17242026284E+03 0.  0.
         24    2    5    5    0    0 -0.27434177215E+02 -0.31434104720E+02  0.16437454310E+03  0.18870308404E+03  0.82759449528E+02 0.  0.
          5    1    5    5  501    0  0.70710587511E+02  0.51096286012E+01  0.33359800720E+02  0.78492431448E+02  0.47000000000E+01 0. -1.
        -13    1    6    6    0    0  0.24980221650E+02 -0.64191305095E+01  0.93918100343E+02  0.97395206670E+02  0.00000000000E+00 0.  1.
         14    1    6    6    0    0 -0.52414398865E+02 -0.25014974210E+02  0.70456442758E+02  0.91307877367E+02  0.00000000000E+00 0. -1.
         -5    1    3    3    0  503  0.72573296655E+01  0.45890831775E+02 -0.12334995727E+03  0.13189366638E+03  0.47000000000E+01 0.  1.
         13    1    4    4    0    0 -0.18914966620E+02 -0.38449296925E+02 -0.33846465361E+02  0.54605014547E+02  0.00000000000E+00 0. -1.
        -14    1    4    4    0    0 -0.31618773341E+02  0.18882941268E+02  0.17867526287E+02  0.40933614477E+02  0.00000000000E+00 0.  1.
</event>
<event>
12    1  0.8416569E-002  0.2796245E+03  0.7818608E-02  0.1097914E+00
         21   -1    0    0  501  502  0.00000000000E+00  0.00000000000E+00  0.11531793889E+03  0.11531793889E+03  0.00000000000E+00 0.  1.
         21   -1    0    0  502  503 -0.00000000000E+00 -0.00000000000E+00 -0.10910318679E+04  0.10910318679E+04  0.00000000000E+00 0.  1.
         -6    2    1    2    0  503 -0.16732325481E+03 -0.11697126282E+03 -0.88159713507E+03  0.92488018323E+03  0.19107720126E+03 0.  0.
        -24    2    3    3    0    0 -0.15136777099E+02 -0.73323311351E+01 -0.22298947936E+03  0.24006812616E+03  0.87324178754E+02 0.  0.
          6    2    1    2  501    0  0.16732325481E+03  0.11697126282E+03 -0.94116793946E+02  0.28146962357E+03  0.16937482150E+03 0.  0.
         24    2    5    5    0    0  0.14285756148E+03  0.10898601601E+03 -0.13146355872E+02  0.19637769587E+03  0.78135383822E+02 0.  0.
          5    1    5    5  501    0  0.24465693333E+02  0.79852468148E+01 -0.80970438074E+02  0.85091927695E+02  0.47000000000E+01 0. -1.
        -13    1    6    6    0    0  0.13203496215E+03  0.64846552703E+02  0.56239625522E+01  0.14720711797E+03  0.00000000000E+00 0.  1.
         14    1    6    6    0    0  0.10822599334E+02  0.44139463307E+02 -0.18770318424E+02  0.49170577901E+02  0.00000000000E+00 0. -1.
         -5    1    3    3    0  503 -0.15218647771E+03 -0.10963893169E+03 -0.65860765572E+03  0.68481205707E+03  0.47000000000E+01 0.  1.
         11    1    4    4    0    0 -0.39258725563E+02  0.26403110959E+01 -0.43358672496E+02  0.58550775026E+02  0.00000000000E+00 0. -1.
        -12    1    4    4    0    0  0.24121948464E+02 -0.99726422311E+01 -0.17963080686E+03  0.18151735114E+03  0.00000000000E+00 0.  1.
</event>
<event>
12    1  0.8416569E-002  0.2014251E+03  0.7818608E-02  0.1148591E+00
         21   -1    0    0  503  502  0.00000000000E+00  0.00000000000E+00  0.69159512549E+03  0.69159512549E+03  0.00000000000E+00 0.  1.
         21   -1    0    0  501  503 -0.00000000000E+00 -0.00000000000E+00 -0.12936782114E+03  0.12936782114E+03  0.00000000000E+00 0. -1.
          6    2    1    2  501    0 -0.48174347059E+02 -0.91231624871E+02 -0.22566249792E+02  0.20245217984E+03  0.17272426698E+03 0.  0.
         24    2    3    3    0    0 -0.56094903511E+02 -0.10139528566E+03  0.32874393018E+02  0.14534009627E+03  0.81334959959E+02 0.  0.
         -6    2    1    2    0  502  0.48174347059E+02  0.91231624871E+02  0.58479355413E+03  0.61851076679E+03  0.17299737162E+03 0.  0.
        -24    2    5    5    0    0  0.50069317858E+02  0.55223838878E+02  0.56773614103E+03  0.57834614420E+03  0.81260862044E+02 0.  0.
          5    1    3    3  501    0  0.79205564523E+01  0.10163660794E+02 -0.55440642810E+02  0.57112083576E+02  0.47000000000E+01 0. -1.
        -13    1    4    4    0    0 -0.12169691948E+02 -0.15911042178E+02  0.44237484022E+02  0.48561483275E+02  0.00000000000E+00 0.  1.
         14    1    4    4    0    0 -0.43925211563E+02 -0.85484243486E+02 -0.11363091004E+02  0.96778612991E+02  0.00000000000E+00 0. -1.
         -5    1    5    5    0  502 -0.18949707994E+01  0.36007785992E+02  0.17057413102E+02  0.40164622594E+02  0.47000000000E+01 0.  1.
         13    1    6    6    0    0  0.57690915002E+01 -0.58119325188E+01  0.31959672166E+01  0.87906303978E+01  0.00000000000E+00 0. -1.
        -14    1    6    6    0    0  0.44300226358E+02  0.61035771397E+02  0.56454017382E+03  0.56955551380E+03  0.00000000000E+00 0.  1.
</event>
<event>
12    1  0.8416569E-002  0.1925653E+03  0.7818608E-02  0.1156541E+00
         21   -1    0    0  503  502  0.00000000000E+00  0.00000000000E+00  0.20172069440E+03  0.20172069440E+03  0.00000000000E+00 0.  1.
         21   -1    0    0  501  503 -0.00000000000E+00 -0.00000000000E+00 -0.18482790241E+03  0.18482790241E+03  0.00000000000E+00 0.  1.
          6    2    1    2  501    0  0.66125373210E+02 -0.50601940915E+02 -0.14436379730E+02  0.19310569407E+03  0.17363259664E+03 0.  0.
         24    2    3    3    0    0  0.62174051127E+02 -0.98832165530E+02  0.29241029705E+01  0.14147969411E+03  0.79840740794E+02 0.  0.
         -6    2    1    2    0  502 -0.66125373210E+02  0.50601940915E+02  0.31329171716E+02  0.19344290274E+03  0.17177170376E+03 0.  0.
        -24    2    5    5    0    0  0.26326428727E+02  0.94146997786E+01 -0.11316146125E+02  0.83513663461E+02  0.77876565154E+02 0.  0.
          5    1    3    3  501    0  0.39513220832E+01  0.48230224614E+02 -0.17360482700E+02  0.51625999962E+02  0.47000000000E+01 0. -1.
        -13    1    4    4    0    0  0.70461496305E+02 -0.92411105935E+02 -0.18457538253E+02  0.11766611951E+03  0.00000000000E+00 0.  1.
         14    1    4    4    0    0 -0.82874451786E+01 -0.64210595944E+01  0.21381641224E+02  0.23813574602E+02  0.00000000000E+00 0. -1.
         -5    1    5    5    0  502 -0.92451801937E+02  0.41187241137E+02  0.42645317842E+02  0.10992923928E+03  0.47000000000E+01 0.  1.
         11    1    6    6    0    0  0.11198719110E+01 -0.31812822093E+02 -0.14720173395E+02  0.35071259849E+02  0.00000000000E+00 0. -1.
        -12    1    6    6    0    0  0.25206556816E+02  0.41227521871E+02  0.34040272695E+01  0.48442403613E+02  0.00000000000E+00 0.  1.
</event>
<event>
12    1  0.8416569E-002  0.2501449E+03  0.7818608E-02  0.1115463E+00
         21   -1    0    0  501  502  0.00000000000E+00  0.00000000000E+00  0.20085251357E+04  0.20085251357E+04  0.00000000000E+00 0. -1.
         21   -1    0    0  502  503 -0.00000000000E+00 -0.00000000000E+00 -0.30347615120E+02  0.30347615120E+02  0.00000000000E+00 0. -1.
         -6    2    1    2    0  503  0.61012889264E+02 -0.15035665977E+03  0.78711319160E+03  0.82182439954E+03  0.17180939876E+03 0.  0.
        -24    2    3    3    0    0  0.63741130185E+02 -0.17898084381E+03  0.64158542326E+03  0.67340873808E+03  0.75831385689E+02 0.  0.
          6    2    1    2  501    0 -0.61012889264E+02  0.15035665977E+03  0.11910643290E+04  0.12170483513E+04  0.19037530243E+03 0.  0.
         24    2    5    5    0    0 -0.46920962450E+02  0.45125587777E+02  0.25879581936E+03  0.27874199142E+03  0.80522830755E+02 0.  0.
          5    1    5    5  501    0 -0.14091926814E+02  0.10523107200E+03  0.93226850962E+03  0.93830635985E+03  0.47000000000E+01 0. -1.
        -13    1    6    6    0    0 -0.57545266758E+02  0.60369264400E+02  0.19036499702E+03  0.20783343788E+03  0.00000000000E+00 0.  1.
         14    1    6    6    0    0  0.10624304308E+02 -0.15243676622E+02  0.68430822338E+02  0.70908553539E+02  0.00000000000E+00 0. -1.
         -5    1    3    3    0  503 -0.27282409215E+01  0.28624184036E+02  0.14552776834E+03  0.14841566146E+03  0.47000000000E+01 0.  1.
         11    1    4    4    0    0 -0.14046649871E+02 -0.88752948180E+01  0.37228284613E+02  0.40767933550E+02  0.00000000000E+00 0. -1.
        -12    1    4    4    0    0  0.77787780056E+02 -0.17010554899E+03  0.60435713865E+03  0.63264080453E+03  0.00000000000E+00 0.  1.
</event>
<event>
12    1  0.8416569E-002  0.1898219E+03  0.7818608E-02  0.1158749E+00
         21   -1    0    0  503  502  0.00000000000E+00  0.00000000000E+00  0.23136657715E+02  0.23136657715E+02  0.00000000000E+00 0.  1.
         21   -1    0    0  501  503 -0.00000000000E+00 -0.00000000000E+00 -0.15537524103E+04  0.15537524103E+04  0.00000000000E+00 0. -1.
          6    2    1    2  501    0 -0.51681325570E+02  0.60058999740E+02 -0.78403888940E+03  0.80655839242E+03  0.17187616890E+03 0.  0.
         24    2    3    3    0    0 -0.77695873239E+02  0.93375912444E+02 -0.55675622013E+03  0.57533063649E+03  0.79196861612E+02 0.  0.
         -6    2    1    2    0  502  0.51681325570E+02 -0.60058999740E+02 -0.74657686321E+03  0.77033067562E+03  0.17249433107E+03 0.  0.
        -24    2    5    5    0    0  0.56360682073E+01 -0.20822684509E+02 -0.65214958015E+03  0.65808872292E+03  0.85535623526E+02 0.  0.
          5    1    3    3  501    0  0.26014547669E+02 -0.33316912705E+02 -0.22728266926E+03  0.23122775593E+03  0.47000000000E+01 0. -1.
        -13    1    4    4    0    0  0.78240416354E+01  0.33690122222E+02 -0.77635336499E+02  0.84991090334E+02  0.00000000000E+00 0.  1.
         14    1    4    4    0    0 -0.85519914874E+02  0.59685790222E+02 -0.47912088363E+03  0.49033954616E+03  0.00000000000E+00 0. -1.
         -5    1    5    5    0  502  0.46045257363E+02 -0.39236315231E+02 -0.94427283060E+02  0.11224195269E+03  0.47000000000E+01 0.  1.
         13    1    6    6    0    0  0.43277652238E+02  0.27126672519E+01 -0.35575285495E+03  0.35838583615E+03  0.00000000000E+00 0. -1.
        -14    1    6    6    0    0 -0.37641584031E+02 -0.23535351761E+02 -0.29639672520E+03  0.29970288677E+03  0.00000000000E+00 0.  1.
</event>
<event>
12    1  0.8416569E-002  0.2074071E+03  0.7818608E-02  0.1143664E+00
         21   -1    0    0  501  502  0.00000000000E+00  0.00000000000E+00  0.51896399431E+02  0.51896399431E+02  0.00000000000E+00 0. -1.
         21   -1    0    0  502  503 -0.00000000000E+00 -0.00000000000E+00 -0.11330172411E+04  0.11330172411E+04  0.00000000000E+00 0. -1.
         -6    2    1    2    0  503 -0.11443847441E+03 -0.17940573839E+02 -0.23347736432E+03  0.31229696738E+03  0.17204559735E+03 0.  0.
        -24    2    3    3    0    0 -0.64564423297E+02 -0.73267814230E+02 -0.18220238128E+03  0.22174456051E+03  0.80225962213E+02 0.  0.
          6    2    1    2  501    0  0.11443847441E+03  0.17940573839E+02 -0.84764347732E+03  0.87261667312E+03  0.17187892527E+03 0.  0.
         24    2    5    5    0    0 -0.10798259002E+02  0.75732031470E+01 -0.39660228794E+03  0.40437318274E+03  0.77783933517E+02 0.  0.
          5    1    5    5  501    0  0.12523673342E+03  0.10367370692E+02 -0.45104118938E+03  0.46824349039E+03  0.47000000000E+01 0. -1.
        -11    1    6    6    0    0 -0.31441520359E+02  0.22182344921E+02 -0.10772479076E+03  0.11439080459E+03  0.00000000000E+00 0.  1.
         12    1    6    6    0    0  0.20643261357E+02 -0.14609141774E+02 -0.28887749718E+03  0.28998237815E+03  0.00000000000E+00 0. -1.
         -5    1    3    3    0  503 -0.49874051118E+02  0.55327240390E+02 -0.51274983033E+02  0.90552406865E+02  0.47000000000E+01 0.  1.
         11    1    4    4    0    0 -0.67230797747E+02 -0.17988234745E+02 -0.84647974655E+02  0.10958483640E+03  0.00000000000E+00 0. -1.
        -12    1    4    4    0    0  0.26663744494E+01 -0.55279579484E+02 -0.97554406628E+02  0.11215972411E+03  0.00000000000E+00 0.  1.
</event>
<event>
12    1  0.8416569E-002  0.2233704E+03  0.7818608E-02  0.1131530E+00
         21   -1    0    0  501  502  0.00000000000E+00  0.00000000000E+00  0.25593928517E+03  0.25593928517E+03  0.00000000000E+00 0.  1.
         21   -1    0    0  502  503 -0.00000000000E+00 -0.00000000000E+00 -0.19839110594E+03  0.19839110594E+03  0.00000000000E+00 0.  1.
         -6    2    1    2    0  503 -0.75451292432E+02  0.11969642790E+03 -0.38926455827E+01  0.22266400178E+03  0.17188360195E+03 0.  0.
        -24    2    3    3    0    0  0.19069647605E+01  0.24778851286E+02  0.40766798888E+02  0.92240835562E+02  0.78922822225E+02 0.  0.
          6    2    1    2  501    0  0.75451292432E+02 -0.11969642790E+03  0.61440824810E+02  0.23166638933E+03  0.17284157085E+03 0.  0.
         24    2    5    5    0    0  0.76459836929E+02 -0.15267899833E+03  0.46174857892E+02  0.19500569021E+03  0.82086043399E+02 0.  0.
          5    1    5    5  501    0 -0.10085444965E+01  0.32982570429E+02  0.15265966918E+02  0.36660699121E+02  0.47000000000E+01 0. -1.
        -13    1    6    6    0    0  0.16055585731E+02 -0.11942813205E+03  0.30122525466E+02  0.12421041461E+03  0.00000000000E+00 0.  1.
         14    1    6    6    0    0  0.60404251197E+02 -0.33250866277E+02  0.16052332426E+02  0.70795275599E+02  0.00000000000E+00 0. -1.
         -5    1    3    3    0  503 -0.77358257193E+02  0.94917576611E+02 -0.44659444471E+02  0.13042316622E+03  0.47000000000E+01 0.  1.
         13    1    4    4    0    0 -0.36105715320E+02  0.15204440180E+02  0.35162792221E+02  0.52642374915E+02  0.00000000000E+00 0. -1.
        -14    1    4    4    0    0  0.38012680080E+02  0.95744111060E+01  0.56040066673E+01  0.39598460647E+02  0.00000000000E+00 0.  1.
</event>
<event>
12    1  0.8416569E-002  0.2002737E+03  0.7818608E-02  0.1150659E+00
         21   -1    0    0  503  502  0.00000000000E+00  0.00000000000E+00  0.46990329125E+03  0.46990329125E+03  0.00000000000E+00 0.  1.
         21   -1    0    0  501  503 -0.00000000000E+00 -0.00000000000E+00 -0.16583847452E+04  0.16583847452E+04  0.00000000000E+00 0.  1.
          6    2    1    2  501    0  0.83579815392E+02  0.41502398370E+02 -0.16309774373E+04  0.16425800635E+04  0.17109596573E+03 0.  0.
         24    2    3    3    0    0  0.40566906784E+02  0.92090819147E+02 -0.10689764855E+04  0.10766503342E+04  0.79616724643E+02 0.  0.
         -6    2    1    2    0  502 -0.83579815392E+02 -0.41502398370E+02  0.44249598333E+03  0.48570797294E+03  0.17720469830E+03 0.  0.
        -24    2    5    5    0    0  0.24159421536E+02 -0.93383835280E+01  0.15589534420E+03  0.17780493077E+03  0.81488355046E+02 0.  0.
          5    1    3    3  501    0  0.43012908608E+02 -0.50588420777E+02 -0.56200095185E+03  0.56592972930E+03  0.47000000000E+01 0. -1.
        -13    1    4    4    0    0  0.51853233165E+02  0.46871140788E+02 -0.40071042676E+03  0.40676099585E+03  0.00000000000E+00 0.  1.
         14    1    4    4    0    0 -0.11286326381E+02  0.45219678359E+02 -0.66826605870E+03  0.66988933839E+03  0.00000000000E+00 0. -1.
         -5    1    5    5    0  502 -0.10773923693E+03 -0.32164014842E+02  0.28660063914E+03  0.30790304217E+03  0.47000000000E+01 0.  1.
         13    1    6    6    0    0  0.32323103201E+02 -0.19810011974E+02  0.23198324847E+02  0.44445268035E+02  0.00000000000E+00 0. -1.
        -14    1    6    6    0    0 -0.81636816656E+01  0.10471628446E+02  0.13269701935E+03  0.13335966273E+03  0.00000000000E+00 0.  1.
</event>
<event>
12    1  0.8416569E-002  0.3290233E+03  0.7818608E-02  0.1071644E+00
         21   -1    0    0  503  502  0.00000000000E+00  0.00000000000E+00  0.18103933891E+03  0.18103933891E+03  0.00000000000E+00 0. -1.
         21   -1    0    0  501  503 -0.00000000000E+00 -0.00000000000E+00 -0.59804470413E+03  0.59804470413E+03  0.00000000000E+00 0. -1.
          6    2    1    2  501    0 -0.37781443737E+02 -0.27721450918E+03 -0.22629933825E+03  0.39878794397E+03  0.17188691684E+03 0.  0.
         24    2    3    3    0    0 -0.67036254735E+02 -0.20101013541E+03 -0.91094065544E+02  0.24078317723E+03  0.69133752049E+02 0.  0.
         -6    2    1    2    0  502  0.37781443737E+02  0.27721450918E+03 -0.19070602697E+03  0.38029609906E+03  0.17315026032E+03 0.  0.
        -24    2    5    5    0    0  0.31529418267E+02  0.17239565903E+03 -0.40866807500E+02  0.19726615381E+03  0.80805148428E+02 0.  0.
          5    1    3    3  501    0  0.29254810998E+02 -0.76204373760E+02 -0.13520527270E+03  0.15800476674E+03  0.47000000000E+01 0. -1.
        -11    1    4    4    0    0  0.11780114407E+02 -0.53297692590E+02 -0.31784861023E+02  0.63164012865E+02  0.00000000000E+00 0.  1.
         12    1    4    4    0    0 -0.78816369141E+02 -0.14771244282E+03 -0.59309204520E+02  0.17761916437E+03  0.00000000000E+00 0. -1.
         -5    1    5    5    0  502  0.62520254696E+01  0.10481885014E+03 -0.14983921947E+03  0.18302994525E+03  0.47000000000E+01 0.  1.
         11    1    6    6    0    0  0.44145265275E+02  0.76053658996E+02 -0.47369872265E+02  0.99884274495E+02  0.00000000000E+00 0. -1.
        -12    1    6    6    0    0 -0.12615847008E+02  0.96342000038E+02  0.65030647653E+01  0.97381879312E+02  0.00000000000E+00 0.  1.
</event>
<event>
12    1  0.8416569E-002  0.2848801E+03  0.7818608E-02  0.1093101E+00
         21   -1    0    0  503  502  0.00000000000E+00  0.00000000000E+00  0.12749122712E+04  0.12749122712E+04  0.00000000000E+00 0. -1.
         21   -1    0    0  501  503 -0.00000000000E+00 -0.00000000000E+00 -0.16111854869E+03  0.16111854869E+03  0.00000000000E+00 0.  1.
          6    2    1    2  501    0  0.57799503633E+02  0.22209247537E+03 -0.16361604681E+01  0.28488476676E+03  0.16879218902E+03 0.  0.
         24    2    3    3    0    0  0.59367270408E+02  0.24190369096E+03 -0.73727430967E+01  0.26367296495E+03  0.86181242805E+02 0.  0.
         -6    2    1    2    0  502 -0.57799503633E+02 -0.22209247537E+03  0.11154298830E+04  0.11511460531E+04  0.16818906492E+03 0.  0.
        -24    2    5    5    0    0 -0.57082196249E+02 -0.12261182142E+03  0.90334870928E+03  0.91684404870E+03  0.79196484809E+02 0.  0.
          5    1    3    3  501    0 -0.15677667754E+01 -0.19811215588E+02  0.57365826286E+01  0.21211801809E+02  0.47000000000E+01 0. -1.
        -13    1    4    4    0    0  0.20869401126E+02  0.18917266145E+03  0.22925934492E+02  0.19169618206E+03  0.00000000000E+00 0.  1.
         14    1    4    4    0    0  0.38497869282E+02  0.52731029509E+02 -0.30298677589E+02  0.71976782895E+02  0.00000000000E+00 0. -1.
         -5    1    5    5    0  502 -0.71730738409E+00 -0.99480653951E+02  0.21208117369E+03  0.23430200441E+03  0.47000000000E+01 0.  1.
         13    1    6    6    0    0 -0.27355475386E+02 -0.33693186033E+02  0.11460100390E+03  0.12254363678E+03  0.00000000000E+00 0. -1.
        -14    1    6    6    0    0 -0.29726720863E+02 -0.88918635387E+02  0.78874770537E+03  0.79430041193E+03  0.00000000000E+00 0.  1.
</event>
<event>
12    1  0.8416569E-002  0.2017646E+03  0.7818608E-02  0.1148493E+00
         21   -1    0    0  501  502  0.00000000000E+00  0.00000000000E+00  0.14322613159E+03  0.14322613159E+03  0.00000000000E+00 0.  1.
         21   -1    0    0  502  503 -0.00000000000E+00 -0.00000000000E+00 -0.30529017836E+03  0.30529017836E+03  0.00000000000E+00 0. -1.
         -6    2    1    2    0  503 -0.76396321419E+02  0.70219936828E+02 -0.20171239437E+02  0.20277041043E+03  0.17303676774E+03 0.  0.
        -24    2    3    3    0    0 -0.42275709571E+02  0.66330674078E+02 -0.77844300451E+02  0.13548285969E+03  0.78159300233E+02 0.  0.
          6    2    1    2  501    0  0.76396321419E+02 -0.70219936828E+02 -0.14189280734E+03  0.24574589952E+03  0.17172722819E+03 0.  0.
         24    2    5    5    0    0  0.76162879005E+02 -0.56676470269E+02 -0.23281874408E+02  0.12627153661E+03  0.79934028186E+02 0.  0.
          5    1    5    5  501    0  0.23344241393E+00 -0.13543466560E+02 -0.11861093293E+03  0.11947436291E+03  0.47000000000E+01 0. -1.
        -13    1    6    6    0    0  0.88111978121E+02 -0.28085320712E+02 -0.11820193809E+02  0.93232091629E+02  0.00000000000E+00 0.  1.
         14    1    6    6    0    0 -0.11949099116E+02 -0.28591149557E+02 -0.11461680599E+02  0.33039444983E+02  0.00000000000E+00 0. -1.
         -5    1    3    3    0  503 -0.34120611848E+02  0.38892627509E+01  0.57673061014E+02  0.67287550738E+02  0.47000000000E+01 0.  1.
         13    1    4    4    0    0 -0.30625772027E+02 -0.20751293423E+01  0.66495353385E+00  0.30703195880E+02  0.00000000000E+00 0. -1.
        -14    1    4    4    0    0 -0.11649937544E+02  0.68405803420E+02 -0.78509253985E+02  0.10477966381E+03  0.00000000000E+00 0.  1.
</event>
<event>
12    1  0.8416569E-002  0.2825227E+03  0.7818608E-02  0.1094361E+00
         21   -1    0    0  503  502  0.00000000000E+00  0.00000000000E+00  0.21283015655E+03  0.21283015655E+03  0.00000000000E+00 0. -1.
         21   -1    0    0  501  503 -0.00000000000E+00 -0.00000000000E+00 -0.41131773013E+03  0.41131773013E+03  0.00000000000E+00 0.  1.
          6    2    1    2  501    0 -0.20797840400E+03 -0.83310247102E+02 -0.19249823388E+03  0.34186932972E+03  0.17211465584E+03 0.  0.
         24    2    3    3    0    0 -0.36713383082E+02 -0.60154268345E+02 -0.10137543390E+03  0.14643811057E+03  0.78744733993E+02 0.  0.
         -6    2    1    2    0  502  0.20797840400E+03  0.83310247102E+02 -0.59893397057E+01  0.28227855696E+03  0.17160914232E+03 0.  0.
        -24    2    5    5    0    0  0.80880526830E+02 -0.33260745950E+02  0.11598155255E+02  0.10885976680E+03  0.63780833963E+02 0.  0.
          5    1    3    3  501    0 -0.17126502092E+03 -0.23155978757E+02 -0.91122799971E+02  0.19543121914E+03  0.47000000000E+01 0. -1.
        -13    1    4    4    0    0 -0.35263102681E+02 -0.78955132515E+02 -0.78463865796E+02  0.11676462477E+03  0.00000000000E+00 0.  1.
         14    1    4    4    0    0 -0.14502804011E+01  0.18800864170E+02 -0.22911568109E+02  0.29673485808E+02  0.00000000000E+00 0. -1.
         -5    1    5    5    0  502  0.12709787717E+03  0.11657099305E+03 -0.17587494960E+02  0.17341879016E+03  0.47000000000E+01 0.  1.
         13    1    6    6    0    0  0.21569113823E+02 -0.10659685543E+02  0.33912229058E+02  0.41579981321E+02  0.00000000000E+00 0. -1.
        -14    1    6    6    0    0  0.59311413008E+02 -0.22601060407E+02 -0.22314073803E+02  0.67279785479E+02  0.00000000000E+00 0.  1.
</event>
<event>
12    1  0.8416569E-002  0.2113501E+03  0.7818608E-02  0.1140678E+00
         21   -1    0    0  503  502  0.00000000000E+00  0.00000000000E+00  0.22281340148E+03  0.22281340148E+03  0.00000000000E+00 0.  1.
         21   -1    0    0  501  503 -0.00000000000E+00 -0.00000000000E+00 -0.20302917990E+03  0.20302917990E+03  0.00000000000E+00 0.  1.
          6    2    1    2  501    0 -0.87075526421E+02 -0.83664585099E+02 -0.17651710289E+02  0.21208595323E+03  0.17345592691E+03 0.  0.
         24    2    3    3    0    0 -0.83732641035E+02 -0.73175010292E+02 -0.74054699869E+02  0.15442666693E+03  0.77445203735E+02 0.  0.
         -6    2    1    2    0  502  0.87075526421E+02  0.83664585099E+02  0.37435931871E+02  0.21375662816E+03  0.17236164592E+03 0.  0.
        -24    2    5    5    0    0  0.48363749105E+02 -0.23813176918E+02  0.22889688321E+02  0.98501458067E+02  0.79198988551E+02 0.  0.
          5    1    3    3  501    0 -0.33428853864E+01 -0.10489574807E+02  0.56402989580E+02  0.57659286294E+02  0.47000000000E+01 0. -1.
        -13    1    4    4    0    0 -0.61021302926E+02 -0.30301008196E+02 -0.27564161721E+01  0.68186130105E+02  0.00000000000E+00 0.  1.
         14    1    4    4    0    0 -0.22711338108E+02 -0.42874002096E+02 -0.71298283697E+02  0.86240536829E+02  0.00000000000E+00 0. -1.
         -5    1    5    5    0  502  0.38711777316E+02  0.10747776202E+03  0.14546243550E+02  0.11525517009E+03  0.47000000000E+01 0.  1.
         13    1    6    6    0    0 -0.28209238996E+01 -0.28525418726E+01  0.40312810674E+02  0.40511940354E+02  0.00000000000E+00 0. -1.
        -14    1    6    6    0    0  0.51184673005E+02 -0.20960635045E+02 -0.17423122353E+02  0.57989517713E+02  0.00000000000E+00 0.  1.
</event>
<event>
12    1  0.8416569E-002  0.1862240E+03  0.7818608E-02  0.1162599E+00
         21   -1    0    0  501  502  0.00000000000E+00  0.00000000000E+00  0.13284139914E+04  0.13284139914E+04  0.00000000000E+00 0.  1.
         21   -1    0    0  502  503 -0.00000000000E+00 -0.00000000000E+00 -0.32993329525E+02  0.32993329525E+02  0.00000000000E+00 0.  1.
         -6    2    1    2    0  503  0.38924375339E+02  0.52811313832E+02  0.33158227380E+03  0.38029747371E+03  0.17428488848E+03 0.  0.
        -24    2    3    3    0    0 -0.35482835375E+02  0.48889318803E+01  0.23412222534E+03  0.24856464279E+03  0.75420368504E+02 0.  0.
          6    2    1    2  501    0 -0.38924375339E+02 -0.52811313832E+02  0.96383838805E+03  0.98110984718E+03  0.17113723178E+03 0.  0.
         24    2    5    5    0    0 -0.27046889549E+02 -0.57817028260E+02  0.96184040863E+03  0.96724572920E+03  0.79705620862E+02 0.  0.
          5    1    5    5  501    0 -0.11877485790E+02  0.50057144278E+01  0.19979794191E+01  0.13864117981E+02  0.47000000000E+01 0. -1.
        -11    1    6    6    0    0 -0.43540521294E+02 -0.19770966285E+01  0.37527308890E+03  0.37779568176E+03  0.00000000000E+00 0.  1.
         12    1    6    6    0    0  0.16493631746E+02 -0.55839931631E+02  0.58656731973E+03  0.58945004744E+03  0.00000000000E+00 0. -1.
         -5    1    3    3    0  503  0.74407210714E+02  0.47922381952E+02  0.97460048458E+02  0.13173283093E+03  0.47000000000E+01 0.  1.
         13    1    4    4    0    0 -0.42971834453E+02 -0.15918075397E+02  0.74844359323E+02  0.87758998417E+02  0.00000000000E+00 0. -1.
        -14    1    4    4    0    0  0.74889990776E+01  0.20807007278E+02  0.15927786602E+03  0.16080564437E+03  0.00000000000E+00 0.  1.
</event>
<event>
12    1  0.8416569E-002  0.1787630E+03  0.7818608E-02  0.1170680E+00
         21   -1    0    0  503  502  0.00000000000E+00  0.00000000000E+00  0.20882140801E+03  0.20882140801E+03  0.00000000000E+00 0.  1.
         21   -1    0    0  501  503 -0.00000000000E+00 -0.00000000000E+00 -0.16767028054E+03  0.16767028054E+03  0.00000000000E+00 0.  1.
          6    2    1    2  501    0  0.90119712575E+01  0.17893158817E+02 -0.44626331602E+02  0.18424903235E+03  0.17763675209E+03 0.  0.
         24    2    3    3    0    0  0.47331805484E+02  0.48315576799E+01 -0.84056736268E+02  0.12754046217E+03  0.83291000832E+02 0.  0.
         -6    2    1    2    0  502 -0.90119712575E+01 -0.17893158817E+02  0.85777459079E+02  0.19224265620E+03  0.17087447328E+03 0.  0.
        -24    2    5    5    0    0  0.59802852397E+02 -0.23084622711E+01  0.64228963622E+02  0.11831843570E+03  0.79323277193E+02 0.  0.
          5    1    3    3  501    0 -0.38319834226E+02  0.13061601138E+02  0.39430404666E+02  0.56708570177E+02  0.47000000000E+01 0. -1.
        -13    1    4    4    0    0  0.42719103415E+02 -0.34754773910E+02 -0.39572746080E+02  0.67814587947E+02  0.00000000000E+00 0.  1.
         14    1    4    4    0    0  0.46127020685E+01  0.39586331590E+02 -0.44483990188E+02  0.59725874227E+02  0.00000000000E+00 0. -1.
         -5    1    5    5    0  502 -0.68814823654E+02 -0.15584696546E+02  0.21548495457E+02  0.73924220506E+02  0.47000000000E+01 0.  1.
         13    1    6    6    0    0  0.13925598871E+02 -0.27460229710E+02 -0.53631164541E+01  0.31252992461E+02  0.00000000000E+00 0. -1.
        -14    1    6    6    0    0  0.45877253525E+02  0.25151767439E+02  0.69592080076E+02  0.87065443235E+02  0.00000000000E+00 0.  1.
</event>
<event>
12    1  0.8416569E-002  0.1815346E+03  0.7818608E-02  0.1167314E+00
         21   -1    0    0  501  502  0.00000000000E+00  0.00000000000E+00  0.27742583912E+03  0.27742583912E+03  0.00000000000E+00 0.  1.
         21   -1    0    0  502  503 -0.00000000000E+00 -0.00000000000E+00 -0.11690270798E+03  0.11690270798E+03  0.00000000000E+00 0.  1.
         -6    2    1    2    0  503 -0.50416596251E+02 -0.85227530791E+01  0.97160635160E+02  0.20590049813E+03  0.17418483174E+03 0.  0.
        -24    2    3    3    0    0 -0.27686813424E+01  0.53666332204E+02  0.27401026644E+02  0.10089431210E+03  0.80877099014E+02 0.  0.
          6    2    1    2  501    0  0.50416596251E+02  0.85227530791E+01  0.63362495985E+02  0.18842804897E+03  0.16992896529E+03 0.  0.
         24    2    5    5    0    0  0.46519400941E+02  0.61678814695E+02  0.10376214869E+02  0.11312605030E+03  0.81984794779E+02 0.  0.
          5    1    5    5  501    0  0.38971953094E+01 -0.53156061616E+02  0.52986281116E+02  0.75301998674E+02  0.47000000000E+01 0. -1.
        -13    1    6    6    0    0  0.67073361110E+02  0.28859929872E+02  0.13576305612E+02  0.74270097596E+02  0.00000000000E+00 0.  1.
         14    1    6    6    0    0 -0.20553960169E+02  0.32818884823E+02 -0.32000907438E+01  0.38855952702E+02  0.00000000000E+00 0. -1.
         -5    1    3    3    0  503 -0.47647914908E+02 -0.62189085283E+02  0.69759608516E+02  0.10500618603E+03  0.47000000000E+01 0.  1.
         13    1    4    4    0    0  0.14028864951E+02 -0.64783752056E+01 -0.17974129202E+02  0.23703327144E+02  0.00000000000E+00 0. -1.
        -14    1    4    4    0    0 -0.16797546293E+02  0.60144707409E+02  0.45375155846E+02  0.77190984959E+02  0.00000000000E+00 0.  1.
</event>
<event>
12    1  0.8416569E-002  0.2196376E+03  0.7818608E-02  0.1134174E+00
         21   -1    0    0  503  502  0.00000000000E+00  0.00000000000E+00  0.17157249082E+04  0.17157249082E+04  0.00000000000E+00 0.  1.
         21   -1    0    0  501  503 -0.00000000000E+00 -0.00000000000E+00 -0.33563700620E+03  0.33563700620E+03  0.00000000000E+00 0.  1.
          6    2    1    2  501    0 -0.20934733889E+02  0.13577655595E+03 -0.29174409911E+03  0.36517843093E+03  0.17136840672E+03 0.  0.
         24    2    3    3    0    0  0.54008837298E+02  0.63867862013E+02 -0.17486476152E+03  0.20874867455E+03  0.77474292511E+02 0.  0.
         -6    2    1    2    0  502  0.20934733889E+02 -0.13577655595E+03  0.16718320012E+04  0.16861834835E+04  0.17122781248E+03 0.  0.
        -24    2    5    5    0    0  0.21181710553E+02 -0.15864523208E+03  0.11160833382E+04  0.11299445926E+04  0.74268365448E+02 0.  0.
          5    1    3    3  501    0 -0.74943571187E+02  0.71908693935E+02 -0.11687933759E+03  0.15642975638E+03  0.47000000000E+01 0. -1.
        -11    1    4    4    0    0  0.36248807383E+02  0.73682730024E+02 -0.91476730868E+02  0.12292726724E+03  0.00000000000E+00 0.  1.
         12    1    4    4    0    0  0.17760029915E+02 -0.98148680106E+01 -0.83388030653E+02  0.85821407311E+02  0.00000000000E+00 0. -1.
         -5    1    5    5    0  502 -0.24697666332E+00  0.22868676132E+02  0.55574866300E+03  0.55623889092E+03  0.47000000000E+01 0.  1.
         13    1    6    6    0    0 -0.24078270640E+02 -0.22714939129E+02  0.19684621825E+03  0.19961003286E+03  0.00000000000E+00 0. -1.
        -14    1    6    6    0    0  0.45259981193E+02 -0.13593029295E+03  0.91923711991E+03  0.93033455974E+03  0.00000000000E+00 0.  1.
</event>
<event>
12    1  0.8416569E-002  0.2252557E+03  0.7818608E-02  0.1130107E+00
         21   -1    0    0  503  502  0.00000000000E+00  0.00000000000E+00  0.74305667771E+03  0.74305667771E+03  0.00000000000E+00 0.  1.
         21   -1    0    0  501  503 -0.00000000000E+00 -0.00000000000E+00 -0.68425764338E+02  0.68425764338E+02  0.00000000000E+00 0.  1.
          6    2    1    2  501    0  0.87736319455E+02  0.11654665306E+03  0.36350713922E+03  0.42764184657E+03  0.17163718882E+03 0.  0.
         24    2    3    3    0    0  0.87178106381E+02  0.77547938877E+02  0.36154107604E+03  0.38830780642E+03  0.80357313355E+02 0.  0.
         -6    2    1    2    0  502 -0.87736319455E+02 -0.11654665306E+03  0.31112377416E+03  0.38384059548E+03  0.17104039230E+03 0.  0.
        -24    2    5    5    0    0 -0.47475804271E+02 -0.20637026168E+01  0.19467095998E+03  0.21558304600E+03  0.79505070306E+02 0.  0.
          5    1    3    3  501    0  0.55821307360E+00  0.38998714187E+02  0.19660631793E+01  0.39334040150E+02  0.47000000000E+01 0. -1.
        -13    1    4    4    0    0  0.99063583191E+02  0.70641950700E+02  0.34936062664E+03  0.36994151722E+03  0.00000000000E+00 0.  1.
         14    1    4    4    0    0 -0.11885476809E+02  0.69059881779E+01  0.12180449396E+02  0.18366289206E+02  0.00000000000E+00 0. -1.
         -5    1    5    5    0  502 -0.40260515184E+02 -0.11448295045E+03  0.11645281418E+03  0.16825754948E+03  0.47000000000E+01 0.  1.
         11    1    6    6    0    0  0.10224357680E+02 -0.21855335135E+02  0.10069190105E+03  0.10354251350E+03  0.00000000000E+00 0. -1.
        -12    1    6    6    0    0 -0.57700161952E+02  0.19791632518E+02  0.93979058929E+02  0.11204053251E+03  0.00000000000E+00 0.  1.
</event>
<event>
12    1  0.8416569E-002  0.1789773E+03  0.7818608E-02  0.1168838E+00
         21   -1    0    0  503  502  0.00000000000E+00  0.00000000000E+00  0.15285538167E+03  0.15285538167E+03  0.00000000000E+00 0. -1.
         21   -1    0    0  501  503 -0.00000000000E+00 -0.00000000000E+00 -0.21780943703E+03  0.21780943703E+03  0.00000000000E+00 0. -1.
          6    2    1    2  501    0 -0.42124278512E+01  0.51091652894E+02  0.39997764942E+01  0.17902202313E+03  0.17147823480E+03 0.  0.
         24    2    3    3    0    0 -0.40553471099E+02 -0.15087066074E+02  0.36306187879E+02  0.96765786371E+02  0.78570188703E+02 0.  0.
         -6    2    1    2    0  502  0.42124278512E+01 -0.51091652894E+02 -0.68953831859E+02  0.19164279557E+03  0.17130157215E+03 0.  0.
        -24    2    5    5    0    0  0.45160854442E+02 -0.66728898035E+02 -0.38909929271E+01  0.11305170138E+03  0.79204158680E+02 0.  0.
          5    1    3    3  501    0  0.36341043248E+02  0.66178718968E+02 -0.32306411384E+02  0.82256236756E+02  0.47000000000E+01 0. -1.
        -13    1    4    4    0    0 -0.85286834996E+01  0.23115200203E+01 -0.24404831170E+02  0.25955295250E+02  0.00000000000E+00 0.  1.
         14    1    4    4    0    0 -0.32024787600E+02 -0.17398586095E+02  0.60711019049E+02  0.70810491122E+02  0.00000000000E+00 0. -1.
         -5    1    5    5    0  502 -0.40948426591E+02  0.15637245141E+02 -0.65062838932E+02  0.78591094189E+02  0.47000000000E+01 0.  1.
         13    1    6    6    0    0  0.79527666161E+01 -0.34076746656E+02 -0.38973306135E+02  0.52377378233E+02  0.00000000000E+00 0. -1.
        -14    1    6    6    0    0  0.37208087826E+02 -0.32652151379E+02  0.35082313208E+02  0.60674323147E+02  0.00000000000E+00 0.  1.
</event>
<event>
12    1  0.8416569E-002  0.1739312E+03  0.7818608E-02  0.1173843E+00
         21   -1    0    0  503  502  0.00000000000E+00  0.00000000000E+00  0.57031234602E+03  0.57031234602E+03  0.00000000000E+00 0. -1.
         21   -1    0    0  501  503 -0.00000000000E+00 -0.00000000000E+00 -0.10020691813E+03  0.10020691813E+03  0.00000000000E+00 0. -1.
          6    2    1    2  501    0  0.52642867967E+01 -0.26520480344E+02  0.49058040066E+01  0.17386772346E+03  0.17168246781E+03 0.  0.
         24    2    3    3    0    0 -0.25755188205E+02  0.40919577231E+02  0.26178413574E+02  0.96505050849E+02  0.79310617082E+02 0.  0.
         -6    2    1    2    0  502 -0.52642867967E+01  0.26520480344E+02  0.46519962388E+03  0.49665154070E+03  0.17181680427E+03 0.  0.
        -24    2    5    5    0    0  0.21982606779E+02 -0.46830153166E+02  0.27192898282E+03  0.28808898571E+03  0.79834790329E+02 0.  0.
          5    1    3    3  501    0  0.31019475002E+02 -0.67440057574E+02 -0.21272609568E+02  0.77362672607E+02  0.47000000000E+01 0. -1.
        -13    1    4    4    0    0  0.21952184907E+02 -0.60215512629E+01  0.18116709666E+02  0.29092484784E+02  0.00000000000E+00 0.  1.
         14    1    4    4    0    0 -0.47707373112E+02  0.46941128494E+02  0.80617039080E+01  0.67412566065E+02  0.00000000000E+00 0. -1.
         -5    1    5    5    0  502 -0.27246893576E+02  0.73350633509E+02  0.19327064107E+03  0.20856255499E+03  0.47000000000E+01 0.  1.
         13    1    6    6    0    0  0.34670956788E+02 -0.86277118470E+01  0.21737189502E+03  0.22028856848E+03  0.00000000000E+00 0. -1.
        -14    1    6    6    0    0 -0.12688350009E+02 -0.38202441319E+02  0.54557087795E+02  0.67800417235E+02  0.00000000000E+00 0.  1.
</event>
<event>
12    1  0.8416569E-002  0.4552486E+03  0.7818608E-02  0.1026261E+00
         21   -1    0    0  503  502  0.00000000000E+00  0.00000000000E+00  0.35031268322E+03  0.35031268322E+03  0.00000000000E+00 0.  1.
         21   -1    0    0  501  503 -0.00000000000E+00 -0.00000000000E+00 -0.19407972776E+04  0.19407972776E+04  0.00000000000E+00 0. -1.
          6    2    1    2  501    0  0.30536382554E+03 -0.28995346199E+03 -0.17506128224E+04  0.18085207883E+04  0.16965291505E+03 0.  0.
         24    2    3    3    0    0  0.15816458241E+03 -0.18279655572E+03 -0.76641758060E+03  0.80761490672E+03  0.80095654002E+02 0.  0.
         -6    2    1    2    0  502 -0.30536382554E+03  0.28995346199E+03  0.16012822810E+03  0.48258917248E+03  0.17300631171E+03 0.  0.
        -24    2    5    5    0    0 -0.12367034869E+03  0.19166708980E+03  0.12812154252E+03  0.27349768913E+03  0.79719682909E+02 0.  0.
          5    1    3    3  501    0  0.14719924313E+03 -0.10715690627E+03 -0.98419524184E+03  0.10009058816E+04  0.47000000000E+01 0. -1.
        -11    1    4    4    0    0  0.15511585836E+03 -0.13176759921E+03 -0.61333612606E+03  0.64622351648E+03  0.00000000000E+00 0.  1.
         12    1    4    4    0    0  0.30487240594E+01 -0.51028956518E+02 -0.15308145454E+03  0.16139139025E+03  0.00000000000E+00 0. -1.
         -5    1    5    5    0  502 -0.18169347685E+03  0.98286372191E+02  0.32006685578E+02  0.20909148335E+03  0.47000000000E+01 0.  1.
         13    1    6    6    0    0 -0.10831723450E+02  0.86836385426E+02  0.42602015466E+02  0.97328391482E+02  0.00000000000E+00 0. -1.
        -14    1    6    6    0    0 -0.11283862524E+03  0.10483070438E+03  0.85519527052E+02  0.17616929765E+03  0.00000000000E+00 0.  1.
</event>
<event>
12    1  0.8416569E-002  0.2096482E+03  0.7818608E-02  0.1143795E+00
         21   -1    0    0  501  502  0.00000000000E+00  0.00000000000E+00  0.48980525271E+03  0.48980525271E+03  0.00000000000E+00 0. -1.
         21   -1    0    0  502  503 -0.00000000000E+00 -0.00000000000E+00 -0.13586875638E+03  0.13586875638E+03  0.00000000000E+00 0. -1.
         -6    2    1    2    0  503 -0.10132326280E+03 -0.17854942940E+02 -0.10525415989E+02  0.20991228613E+03  0.18266685774E+03 0.  0.
        -24    2    3    3    0    0  0.24702429094E+02 -0.22401185232E+02  0.22791189734E+02  0.79393208783E+02  0.68350714469E+02 0.  0.
          6    2    1    2  501    0  0.10132326280E+03  0.17854942940E+02  0.36446191232E+03  0.41576172295E+03  0.17158124073E+03 0.  0.
         24    2    5    5    0    0  0.83453871825E+02  0.61785679770E+02  0.16211681002E+03  0.20787989307E+03  0.78423025336E+02 0.  0.
          5    1    5    5  501    0  0.17869390971E+02 -0.43930736830E+02  0.20234510230E+03  0.20788182989E+03  0.47000000000E+01 0. -1.
        -11    1    6    6    0    0  0.73350553237E+02  0.61035528308E+02  0.17006231368E+03  0.19500469202E+03  0.00000000000E+00 0.  1.
         12    1    6    6    0    0  0.10103318588E+02  0.75015146253E+00 -0.79455036557E+01  0.12875201049E+02  0.00000000000E+00 0. -1.
         -5    1    3    3    0  503 -0.12602569189E+03  0.45462422917E+01 -0.33316605723E+02  0.13051907735E+03  0.47000000000E+01 0.  1.
         11    1    4    4    0    0 -0.10517080407E+02 -0.30391296937E+02 -0.66006114988E+01  0.32829986018E+02  0.00000000000E+00 0. -1.
        -12    1    4    4    0    0  0.35219509501E+02  0.79901117049E+01  0.29391801233E+02  0.46563222765E+02  0.00000000000E+00 0.  1.
</event>
<event>
12    1  0.8416569E-002  0.1845308E+03  0.7818608E-02  0.1163965E+00
         21   -1    0    0  501  502  0.00000000000E+00  0.00000000000E+00  0.18193013926E+03  0.18193013926E+03  0.00000000000E+00 0.  1.
         21   -1    0    0  502  503 -0.00000000000E+00 -0.00000000000E+00 -0.37657186413E+03  0.37657186413E+03  0.00000000000E+00 0.  1.
         -6    2    1    2    0  503 -0.56555141995E+02 -0.26994274558E+02 -0.29616641962E+03  0.34788652324E+03  0.17141560604E+03 0.  0.
        -24    2    3    3    0    0 -0.94472098373E+02  0.93309566311E+01 -0.16279904160E+03  0.20447743872E+03  0.79343877373E+02 0.  0.
          6    2    1    2  501    0  0.56555141995E+02  0.26994274558E+02  0.10152469475E+03  0.21061548015E+03  0.17356394179E+03 0.  0.
         24    2    5    5    0    0  0.47328072839E+02  0.83150877341E+02  0.58944103835E+02  0.13938416987E+03  0.82459229636E+02 0.  0.
          5    1    5    5  501    0  0.92270691562E+01 -0.56156602783E+02  0.42580590915E+02  0.71231310279E+02  0.47000000000E+01 0. -1.
        -13    1    6    6    0    0  0.35930000672E+02 -0.16886737982E+01  0.94109284265E+00  0.35981970808E+02  0.00000000000E+00 0.  1.
         14    1    6    6    0    0  0.11398072167E+02  0.84839551139E+02  0.58003010992E+02  0.10340219906E+03  0.00000000000E+00 0. -1.
         -5    1    3    3    0  503  0.37916956378E+02 -0.36325231189E+02 -0.13336737802E+03  0.14340908452E+03  0.47000000000E+01 0.  1.
         11    1    4    4    0    0  0.17014709768E+01  0.52604138346E+00  0.80376271265E+01  0.82325678161E+01  0.00000000000E+00 0. -1.
        -12    1    4    4    0    0 -0.96173569350E+02  0.88049152476E+01 -0.17083666873E+03  0.19624487091E+03  0.00000000000E+00 0.  1.
</event>
<event>
12    1  0.8416569E-002  0.2024229E+03  0.7818608E-02  0.1147892E+00
         21   -1    0    0  503  502  0.00000000000E+00  0.00000000000E+00  0.28984350299E+03  0.28984350299E+03  0.00000000000E+00 0. -1.
         21   -1    0    0  501  503 -0.00000000000E+00 -0.00000000000E+00 -0.27148577170E+03  0.27148577170E+03  0.00000000000E+00 0. -1.
          6    2    1    2  501    0 -0.91232820819E+02 -0.51558500770E+02 -0.18556625540E+03  0.27460857046E+03  0.17318581129E+03 0.  0.
         24    2    3    3    0    0 -0.54461387805E+02 -0.29842459040E+02 -0.20405230934E+03  0.22783732989E+03  0.80099243556E+02 0.  0.
         -6    2    1    2    0  502  0.91232820819E+02  0.51558500770E+02  0.20392398669E+03  0.28672070424E+03  0.17216870592E+03 0.  0.
        -24    2    5    5    0    0  0.10903280723E+03  0.74319835306E+02  0.20598834397E+03  0.25737331190E+03  0.79988954574E+02 0.  0.
          5    1    3    3  501    0 -0.36771433014E+02 -0.21716041729E+02  0.18486053944E+02  0.46771240573E+02  0.47000000000E+01 0. -1.
        -11    1    4    4    0    0  0.51276826988E+01 -0.41689634750E+01  0.54194996193E+01  0.85465994664E+01  0.00000000000E+00 0.  1.
         12    1    4    4    0    0 -0.59589070504E+02 -0.25673495565E+02 -0.20947180896E+03  0.21929073042E+03  0.00000000000E+00 0. -1.
         -5    1    5    5    0  502 -0.17799986414E+02 -0.22761334537E+02 -0.20643572805E+01  0.29347392341E+02  0.47000000000E+01 0.  1.
         11    1    6    6    0    0  0.25279198516E+01  0.43099809335E+02  0.62766773785E+02  0.76181702756E+02  0.00000000000E+00 0. -1.
        -12    1    6    6    0    0  0.10650488738E+03  0.31220025971E+02  0.14322157018E+03  0.18119160914E+03  0.00000000000E+00 0.  1.
</event>
<event>
12    1  0.8416569E-002  0.1781352E+03  0.7818608E-02  0.1169715E+00
         21   -1    0    0  503  502  0.00000000000E+00  0.00000000000E+00  0.32204806007E+03  0.32204806007E+03  0.00000000000E+00 0. -1.
         21   -1    0    0  501  503 -0.00000000000E+00 -0.00000000000E+00 -0.11121458666E+03  0.11121458666E+03  0.00000000000E+00 0. -1.
          6    2    1    2  501    0 -0.40986667964E+02  0.19416304097E+02  0.31550477518E+02  0.18052850020E+03  0.17186682908E+03 0.  0.
         24    2    3    3    0    0 -0.23607926722E+02  0.57305673459E+02  0.60831406731E+02  0.12937102007E+03  0.95891221574E+02 0.  0.
         -6    2    1    2    0  502  0.40986667964E+02 -0.19416304097E+02  0.17928299589E+03  0.25273414652E+03  0.17226507593E+03 0.  0.
        -24    2    5    5    0    0  0.48009642972E+02 -0.22845499258E+02  0.26809405324E+02  0.99988058590E+02  0.80324498081E+02 0.  0.
          5    1    3    3  501    0 -0.17378741242E+02 -0.37889369362E+02 -0.29280929213E+02  0.51157480131E+02  0.47000000000E+01 0. -1.
        -13    1    4    4    0    0 -0.49730011817E+02  0.97829329892E+01  0.55060243725E+02  0.74835889066E+02  0.00000000000E+00 0.  1.
         14    1    4    4    0    0  0.26122085095E+02  0.47522740470E+02  0.57711630059E+01  0.54535131006E+02  0.00000000000E+00 0. -1.
         -5    1    5    5    0  502 -0.70229750087E+01  0.34291951615E+01  0.15247359057E+03  0.15274608793E+03  0.47000000000E+01 0.  1.
         13    1    6    6    0    0  0.47142069986E+02 -0.42859449477E+02  0.40706973692E+02  0.75606645735E+02  0.00000000000E+00 0. -1.
        -14    1    6    6    0    0  0.86757298619E+00  0.20013950219E+02 -0.13897568368E+02  0.24381412855E+02  0.00000000000E+00 0.  1.
</event>
<event>
12    1  0.8416569E-002  0.2010663E+03  0.7818608E-02  0.1149030E+00
         21   -1    0    0  501  502  0.00000000000E+00  0.00000000000E+00  0.34542843408E+03  0.34542843408E+03  0.00000000000E+00 0. -1.
         21   -1    0    0  502  503 -0.00000000000E+00 -0.00000000000E+00 -0.12665691803E+03  0.12665691803E+03  0.00000000000E+00 0.  1.
         -6    2    1    2    0  503  0.28941517451E+02  0.98996729750E+02  0.42820642471E+02  0.20557541284E+03  0.17259686848E+03 0.  0.
        -24    2    3    3    0    0  0.68052534409E+02  0.11835133361E+03  0.36943448194E+02  0.16129331995E+03  0.77540512562E+02 0.  0.
          6    2    1    2  501    0 -0.28941517451E+02 -0.98996729750E+02  0.17595087358E+03  0.26650993926E+03  0.17155428843E+03 0.  0.
         24    2    5    5    0    0  0.41028676963E+02 -0.17323953316E+02  0.96012099815E+02  0.13242575650E+03  0.79591368762E+02 0.  0.
          5    1    5    5  501    0 -0.69970194414E+02 -0.81672776434E+02  0.79938773763E+02  0.13408418276E+03  0.47000000000E+01 0. -1.
        -13    1    6    6    0    0  0.24560158536E+02  0.25727697760E+02  0.13757419813E+02  0.38136366100E+02  0.00000000000E+00 0.  1.
         14    1    6    6    0    0  0.16468518427E+02 -0.43051651076E+02  0.82254680002E+02  0.94289390399E+02  0.00000000000E+00 0. -1.
         -5    1    3    3    0  503 -0.39111016959E+02 -0.19354603864E+02  0.58771942772E+01  0.44282092891E+02  0.47000000000E+01 0.  1.
         11    1    4    4    0    0  0.21248329876E+02  0.94517624388E+02  0.47223650811E+02  0.10777358692E+03  0.00000000000E+00 0. -1.
        -12    1    4    4    0    0  0.46804204533E+02  0.23833709226E+02 -0.10280202616E+02  0.53519733027E+02  0.00000000000E+00 0.  1.
</event>
<event>
12    1  0.8416569E-002  0.2760992E+03  0.7818608E-02  0.1097949E+00
         21   -1    0    0  501  502  0.00000000000E+00  0.00000000000E+00  0.25168870529E+03  0.25168870529E+03  0.00000000000E+00 0.  1.
         21   -1    0    0  502  503 -0.00000000000E+00 -0.00000000000E+00 -0.32838584697E+03  0.32838584697E+03  0.00000000000E+00 0.  1.
         -6    2    1    2    0  503  0.16045294120E+03 -0.14451436686E+03 -0.12060263611E+03  0.30129016886E+03  0.17205005505E+03 0.  0.
        -24    2    3    3    0    0  0.13419207743E+03 -0.33128943341E+02 -0.92475702171E+02  0.18335137137E+03  0.77207055134E+02 0.  0.
          6    2    1    2  501    0 -0.16045294120E+03  0.14451436686E+03  0.43905494431E+02  0.27878438340E+03  0.17077321633E+03 0.  0.
         24    2    5    5    0    0 -0.10805809156E+03  0.14274029386E+03  0.82939751841E+02  0.21325476524E+03  0.80915077826E+02 0.  0.
          5    1    5    5  501    0 -0.52394849649E+02  0.17740729996E+01 -0.39034257411E+02  0.65529618161E+02  0.47000000000E+01 0. -1.
        -13    1    6    6    0    0 -0.29414971545E+02 -0.29096441669E+01  0.22082809216E+02  0.36896572240E+02  0.00000000000E+00 0.  1.
         14    1    6    6    0    0 -0.78643120010E+02  0.14564993803E+03  0.60856942626E+02  0.17635819300E+03  0.00000000000E+00 0. -1.
         -5    1    3    3    0  503  0.26260863779E+02 -0.11138542352E+03 -0.28126933942E+02  0.11793879748E+03  0.47000000000E+01 0.  1.
         11    1    4    4    0    0 -0.79782707157E+01 -0.56054512457E+01  0.26347131607E+01  0.10100277260E+02  0.00000000000E+00 0. -1.
        -12    1    4    4    0    0  0.14217034814E+03 -0.27523492096E+02 -0.95110415331E+02  0.17325109412E+03  0.00000000000E+00 0.  1.
</event>
<event>
12    1  0.8416569E-002  0.1988703E+03  0.7818608E-02  0.1151494E+00
         21   -1    0    0  501  502  0.00000000000E+00  0.00000000000E+00  0.41237212991E+02  0.41237212991E+02  0.00000000000E+00 0. -1.
         21   -1    0    0  502  503 -0.00000000000E+00 -0.00000000000E+00 -0.98176876993E+03  0.98176876993E+03  0.00000000000E+00 0.  1.
         -6    2    1    2    0  503 -0.74693416376E+02  0.58705919479E+02 -0.36207101745E+03  0.41131490316E+03  0.17046711253E+03 0.  0.
        -24    2    3    3    0    0 -0.23074854182E+02  0.87355515461E+02 -0.15499335338E+03  0.19593494989E+03  0.78766300034E+02 0.  0.
          6    2    1    2  501    0  0.74693416376E+02 -0.58705919479E+02 -0.57846053949E+03  0.61169107976E+03  0.17471087510E+03 0.  0.
         24    2    5    5    0    0 -0.48536888177E+01 -0.61267566494E+02 -0.17911445166E+03  0.20446424881E+03  0.77112704846E+02 0.  0.
          5    1    5    5  501    0  0.79547105194E+02  0.25616470146E+01 -0.39934608783E+03  0.40722683095E+03  0.47000000000E+01 0. -1.
        -11    1    6    6    0    0 -0.36078001161E+02 -0.83026669936E+01 -0.71907712655E+02  0.80878152713E+02  0.00000000000E+00 0.  1.
         12    1    6    6    0    0  0.31224312343E+02 -0.52964899500E+02 -0.10720673901E+03  0.12358609610E+03  0.00000000000E+00 0. -1.
         -5    1    3    3    0  503 -0.51618562195E+02 -0.28649595982E+02 -0.20707766407E+03  0.21537995327E+03  0.47000000000E+01 0.  1.
         11    1    4    4    0    0 -0.25933302435E+02 -0.52576708548E+01 -0.44066464180E+02  0.51400705670E+02  0.00000000000E+00 0. -1.
        -12    1    4    4    0    0  0.28584482531E+01  0.92613186316E+02 -0.11092688920E+03  0.14453424422E+03  0.00000000000E+00 0.  1.
</event>
<event>
12    1  0.8416569E-002  0.1827976E+03  0.7818608E-02  0.1165258E+00
         21   -1    0    0  503  502  0.00000000000E+00  0.00000000000E+00  0.30828050822E+03  0.30828050822E+03  0.00000000000E+00 0.  1.
         21   -1    0    0  501  503 -0.00000000000E+00 -0.00000000000E+00 -0.10836631670E+03  0.10836631670E+03  0.00000000000E+00 0.  1.
          6    2    1    2  501    0  0.61652757185E+02 -0.46621711154E+01  0.88631405035E+02  0.20264026943E+03  0.17141981953E+03 0.  0.
         24    2    3    3    0    0 -0.27756926053E+02  0.13627196295E+02  0.40686628489E+02  0.99444416726E+02  0.85309101844E+02 0.  0.
         -6    2    1    2    0  502 -0.61652757185E+02  0.46621711154E+01  0.11128278649E+03  0.21400655549E+03  0.17202368708E+03 0.  0.
        -24    2    5    5    0    0 -0.10397227659E+03  0.13522702739E+02  0.99238687707E+02  0.16887783893E+03  0.87625963945E+02 0.  0.
          5    1    3    3  501    0  0.89409683238E+02 -0.18289367410E+02  0.47944776545E+02  0.10319585270E+03  0.47000000000E+01 0. -1.
        -11    1    4    4    0    0 -0.21822403856E+02 -0.27556185356E+02  0.45568319490E+02  0.57550259796E+02  0.00000000000E+00 0.  1.
         12    1    4    4    0    0 -0.59345221973E+01  0.41183381650E+02 -0.48816910007E+01  0.41894156930E+02  0.00000000000E+00 0. -1.
         -5    1    5    5    0  502  0.42319519400E+02 -0.88605316234E+01  0.12044098783E+02  0.45128716561E+02  0.47000000000E+01 0.  1.
         11    1    6    6    0    0 -0.16559212785E+01 -0.26565442987E+02  0.22406745779E+02  0.34792629863E+02  0.00000000000E+00 0. -1.
        -12    1    6    6    0    0 -0.10231635531E+03  0.40088145726E+02  0.76831941928E+02  0.13408520907E+03  0.00000000000E+00 0.  1.
</event>
<event>
12    1  0.8416569E-002  0.1849105E+03  0.7818608E-02  0.1163167E+00
         21   -1    0    0  501  502  0.00000000000E+00  0.00000000000E+00  0.23244656035E+04  0.23244656035E+04  0.00000000000E+00 0.  1.
         21   -1    0    0  502  503 -0.00000000000E+00 -0.00000000000E+00 -0.15672677499E+02  0.15672677499E+02  0.00000000000E+00 0.  1.
         -6    2    1    2    0  503  0.33753259792E+02 -0.58610092535E+02  0.86224145243E+03  0.88181627745E+03  0.17194533836E+03 0.  0.
        -24    2    3    3    0    0 -0.15151748731E+02  0.25514009679E+02  0.46202396736E+03  0.46991253895E+03  0.80443195273E+02 0.  0.
          6    2    1    2  501    0 -0.33753259792E+02  0.58610092535E+02  0.14465514736E+04  0.14583220035E+04  0.17209728315E+03 0.  0.
         24    2    5    5    0    0  0.14989530598E+02  0.81926015914E+02  0.12118951492E+04  0.12174793735E+04  0.81422441989E+02 0.  0.
          5    1    5    5  501    0 -0.48742790390E+02 -0.23315923379E+02  0.23465632432E+03  0.24084263003E+03  0.47000000000E+01 0. -1.
        -13    1    6    6    0    0  0.53165757759E+01  0.92031809657E+02  0.11622729397E+04  0.11659230277E+04  0.00000000000E+00 0.  1.
         14    1    6    6    0    0  0.96729548218E+01 -0.10105793743E+02  0.49622209503E+02  0.51556345857E+02  0.00000000000E+00 0. -1.
         -5    1    3    3    0  503  0.48905008524E+02 -0.84124102214E+02  0.40021748507E+03  0.41190373850E+03  0.47000000000E+01 0.  1.
         11    1    4    4    0    0  0.17681130433E+02  0.39956486544E+02  0.16336176925E+03  0.16910414201E+03  0.00000000000E+00 0. -1.
        -12    1    4    4    0    0 -0.32832879164E+02 -0.14442476865E+02  0.29866219811E+03  0.30080839694E+03  0.00000000000E+00 0.  1.
</event>
<event>
12    1  0.8416569E-002  0.1838508E+03  0.7818608E-02  0.1164383E+00
         21   -1    0    0  503  502  0.00000000000E+00  0.00000000000E+00  0.79464063449E+02  0.79464063449E+02  0.00000000000E+00 0.  1.
         21   -1    0    0  501  503 -0.00000000000E+00 -0.00000000000E+00 -0.50434844831E+03  0.50434844831E+03  0.00000000000E+00 0.  1.
          6    2    1    2  501    0 -0.30121420442E+02  0.57690560151E+02 -0.95634383618E+02  0.20723673014E+03  0.17194657975E+03 0.  0.
         24    2    3    3    0    0 -0.72832453820E+02  0.58364785055E+02 -0.10652375357E+03  0.16290440187E+03  0.80495463294E+02 0.  0.
         -6    2    1    2    0  502  0.30121420442E+02 -0.57690560151E+02 -0.32925000125E+03  0.37657578162E+03  0.17078716370E+03 0.  0.
        -24    2    5    5    0    0  0.58258671330E+02 -0.53591185666E+02 -0.32881140460E+03  0.34775231678E+03  0.80923705179E+02 0.  0.
          5    1    3    3  501    0  0.42711033378E+02 -0.67422490461E+00  0.10889369952E+02  0.44332328265E+02  0.47000000000E+01 0. -1.
        -11    1    4    4    0    0 -0.20430456937E+02  0.51044109005E+02 -0.93414691206E+02  0.10839376905E+03  0.00000000000E+00 0.  1.
         12    1    4    4    0    0 -0.52401996883E+02  0.73206760501E+01 -0.13109062365E+02  0.54510632827E+02  0.00000000000E+00 0. -1.
         -5    1    5    5    0  502 -0.28137250889E+02 -0.40993744849E+01 -0.43859664090E+00  0.28823464847E+02  0.47000000000E+01 0.  1.
         13    1    6    6    0    0  0.78399177638E+02 -0.43319046391E+02 -0.27957704688E+03  0.29357502615E+03  0.00000000000E+00 0. -1.
        -14    1    6    6    0    0 -0.20140506308E+02 -0.10272139275E+02 -0.49234357723E+02  0.54177290630E+02  0.00000000000E+00 0.  1.
</event>
<event>
12    1  0.8416569E-002  0.1859912E+03  0.7818608E-02  0.1162226E+00
         21   -1    0    0  501  502  0.00000000000E+00  0.00000000000E+00  0.47542603478E+02  0.47542603478E+02  0.00000000000E+00 0.  1.
         21   -1    0    0  502  503 -0.00000000000E+00 -0.00000000000E+00 -0.13089957483E+04  0.13089957483E+04  0.00000000000E+00 0.  1.
         -6    2    1    2    0  503 -0.29468992161E+02  0.64044724700E+02 -0.10837937445E+04  0.10996370419E+04  0.17211215812E+03 0.  0.
        -24    2    3    3    0    0 -0.11293659453E+02 -0.40786958078E+01 -0.88480172898E+03  0.88847109911E+03  0.79765981740E+02 0.  0.
          6    2    1    2  501    0  0.29468992161E+02 -0.64044724700E+02 -0.17765940035E+03  0.25690130994E+03  0.17165451423E+03 0.  0.
         24    2    5    5    0    0  0.22410228801E+02 -0.18206819194E+02 -0.19085978783E+03  0.20845257465E+03  0.78684881952E+02 0.  0.
          5    1    5    5  501    0  0.70587633603E+01 -0.45837905506E+02  0.13200387479E+02  0.48448735288E+02  0.47000000000E+01 0. -1.
        -13    1    6    6    0    0 -0.45949701217E+01 -0.29534193306E+02 -0.16972786919E+03  0.17233958310E+03  0.00000000000E+00 0.  1.
         14    1    6    6    0    0  0.27005198922E+02  0.11327374112E+02 -0.21131918644E+02  0.36112991550E+02  0.00000000000E+00 0. -1.
         -5    1    3    3    0  503 -0.18175332708E+02  0.68123420508E+02 -0.19899201551E+03  0.21116594275E+03  0.47000000000E+01 0.  1.
         13    1    4    4    0    0 -0.83841786095E+01 -0.36006042102E+02 -0.23602793211E+03  0.23890565974E+03  0.00000000000E+00 0. -1.
        -14    1    4    4    0    0 -0.29094808434E+01  0.31927346295E+02 -0.64877379686E+03  0.64956543936E+03  0.00000000000E+00 0.  1.
</event>
<event>
12    1  0.8416569E-002  0.1786323E+03  0.7818608E-02  0.1169518E+00
         21   -1    0    0  501  502  0.00000000000E+00  0.00000000000E+00  0.70909319859E+03  0.70909319859E+03  0.00000000000E+00 0. -1.
         21   -1    0    0  502  503 -0.00000000000E+00 -0.00000000000E+00 -0.44843009237E+02  0.44843009237E+02  0.00000000000E+00 0. -1.
         -6    2    1    2    0  503  0.21059982049E+02 -0.36446882504E+02  0.30622391802E+03  0.35451740008E+03  0.17360184591E+03 0.  0.
        -24    2    3    3    0    0 -0.50866246604E+02 -0.20584959111E+02  0.16158082777E+03  0.19213299030E+03  0.88292731717E+02 0.  0.
          6    2    1    2  501    0 -0.21059982049E+02  0.36446882504E+02  0.35802627133E+03  0.39941880775E+03  0.17199033383E+03 0.  0.
         24    2    5    5    0    0 -0.73276414824E+02  0.55451089166E+02  0.25326119324E+03  0.28073634354E+03  0.78913917175E+02 0.  0.
          5    1    5    5  501    0  0.52216432775E+02 -0.19004206662E+02  0.10476507810E+03  0.11868246421E+03  0.47000000000E+01 0. -1.
        -13    1    6    6    0    0 -0.58910706075E+01  0.42882297900E+01 -0.50871032444E+01  0.88866330550E+01  0.00000000000E+00 0.  1.
         14    1    6    6    0    0 -0.67385344216E+02  0.51162859376E+02  0.25834829648E+03  0.27184971048E+03  0.00000000000E+00 0. -1.
         -5    1    3    3    0  503  0.71926228653E+02 -0.15861923394E+02  0.14464309025E+03  0.16238440978E+03  0.47000000000E+01 0.  1.
         13    1    4    4    0    0 -0.60602311428E+01 -0.49341961509E+02  0.64775446292E+02  0.81653009800E+02  0.00000000000E+00 0. -1.
        -14    1    4    4    0    0 -0.44806015461E+02  0.28757002398E+02  0.96805381477E+02  0.11047998050E+03  0.00000000000E+00 0.  1.
</event>
<event>
12    1  0.8416569E-002  0.2462139E+03  0.7818608E-02  0.1115766E+00
         21   -1    0    0  501  502  0.00000000000E+00  0.00000000000E+00  0.23949369635E+03  0.23949369635E+03  0.00000000000E+00 0. -1.
         21   -1    0    0  502  503 -0.00000000000E+00 -0.00000000000E+00 -0.41204640075E+03  0.41204640075E+03  0.00000000000E+00 0. -1.
         -6    2    1    2    0  503 -0.12364554520E+03  0.12593143862E+03 -0.28874604120E+03  0.37928624623E+03  0.17127998189E+03 0.  0.
        -24    2    3    3    0    0 -0.93018005552E+02  0.61777465105E+01 -0.14063732391E+03  0.18631662403E+03  0.79022234865E+02 0.  0.
          6    2    1    2  501    0  0.12364554520E+03 -0.12593143862E+03  0.11619333680E+03  0.27225385086E+03  0.17168086589E+03 0.  0.
         24    2    5    5    0    0  0.67692255757E+02 -0.41948543215E+02 -0.73641141678E+01  0.11265300184E+03  0.79338180454E+02 0.  0.
          5    1    5    5  501    0  0.55953289444E+02 -0.83982895406E+02  0.12355745097E+03  0.15960084903E+03  0.47000000000E+01 0. -1.
        -11    1    6    6    0    0  0.66387019985E+02 -0.13929963908E+02  0.22705670209E+02  0.71532005261E+02  0.00000000000E+00 0.  1.
         12    1    6    6    0    0  0.13052357724E+01 -0.28018579307E+02 -0.30069784377E+02  0.41120996575E+02  0.00000000000E+00 0. -1.
         -5    1    3    3    0  503 -0.30627539649E+02  0.11975369211E+03 -0.14810871728E+03  0.19296962221E+03  0.47000000000E+01 0.  1.
         11    1    4    4    0    0 -0.64939781974E+02  0.40156855282E+02 -0.10388584101E+03  0.12892639866E+03  0.00000000000E+00 0. -1.
        -12    1    4    4    0    0 -0.28078223578E+02 -0.33979108772E+02 -0.36751482900E+02  0.57390225366E+02  0.00000000000E+00 0.  1.
</event>
<event>
12    1  0.8416569E-002  0.2131397E+03  0.7818608E-02  0.1139581E+00
         21   -1    0    0  503  502  0.00000000000E+00  0.00000000000E+00  0.33488457489E+03  0.33488457489E+03  0.00000000000E+00 0. -1.
         21   -1    0    0  501  503 -0.00000000000E+00 -0.00000000000E+00 -0.13410277385E+03  0.13410277385E+03  0.00000000000E+00 0. -1.
          6    2    1    2  501    0  0.11221938530E+03  0.54677735503E+02  0.10043545573E+03  0.23561792533E+03  0.17275902516E+03 0.  0.
         24    2    3    3    0    0  0.14388616936E+03  0.21763699025E+02  0.72140160660E+02  0.18168432974E+03  0.81413171941E+02 0.  0.
         -6    2    1    2    0  502 -0.11221938530E+03 -0.54677735503E+02  0.10034634531E+03  0.23336942341E+03  0.16973229972E+03 0.  0.
        -24    2    5    5    0    0 -0.33329828387E+02 -0.27701286753E+02 -0.13277310580E+02  0.92359791983E+02  0.80472389369E+02 0.  0.
          5    1    3    3  501    0 -0.31666784059E+02  0.32914036478E+02  0.28295295074E+02  0.53933595590E+02  0.47000000000E+01 0. -1.
        -11    1    4    4    0    0  0.79158617995E+02 -0.17300008995E+02  0.68320418561E+02  0.10598611563E+03  0.00000000000E+00 0.  1.
         12    1    4    4    0    0  0.64727551368E+02  0.39063708019E+02  0.38197420983E+01  0.75698214114E+02  0.00000000000E+00 0. -1.
         -5    1    5    5    0  502 -0.78889556917E+02 -0.26976448750E+02  0.11362365589E+03  0.14100963143E+03  0.47000000000E+01 0.  1.
         11    1    6    6    0    0 -0.21665825645E+02 -0.54617198071E+02 -0.20355209466E+02  0.62183445373E+02  0.00000000000E+00 0. -1.
        -12    1    6    6    0    0 -0.11664002742E+02  0.26915911318E+02  0.70778988867E+01  0.30176346610E+02  0.00000000000E+00 0.  1.
</event>
<event>
12    1  0.8416569E-002  0.2321882E+03  0.7818608E-02  0.1125143E+00
         21   -1    0    0  501  502  0.00000000000E+00  0.00000000000E+00  0.35452917611E+03  0.35452917611E+03  0.00000000000E+00 0. -1.
         21   -1    0    0  502  503 -0.00000000000E+00 -0.00000000000E+00 -0.17365641926E+03  0.17365641926E+03  0.00000000000E+00 0.  1.
         -6    2    1    2    0  503  0.56567696827E+02  0.14549463679E+03  0.18386551455E+03  0.29617207531E+03  0.17188012420E+03 0.  0.
        -24    2    3    3    0    0  0.39878081051E+02  0.16428769281E+03  0.19263353761E+03  0.26914078867E+03  0.82148505516E+02 0.  0.
          6    2    1    2  501    0 -0.56567696827E+02 -0.14549463679E+03 -0.29927577014E+01  0.23201352006E+03  0.17161795719E+03 0.  0.
         24    2    5    5    0    0  0.31498524139E+02 -0.97319038720E+02 -0.18523818502E+02  0.13032846031E+03  0.78608036457E+02 0.  0.
          5    1    5    5  501    0 -0.88066220966E+02 -0.48175598074E+02  0.15531060801E+02  0.10168505974E+03  0.47000000000E+01 0. -1.
        -13    1    6    6    0    0 -0.22207705120E+02 -0.58964457868E+02 -0.93892278766E+01  0.63703587485E+02  0.00000000000E+00 0.  1.
         14    1    6    6    0    0  0.53706229259E+02 -0.38354580852E+02 -0.91345906256E+01  0.66624872829E+02  0.00000000000E+00 0. -1.
         -5    1    3    3    0  503  0.16689615776E+02 -0.18793056016E+02 -0.87680230573E+01  0.27031286641E+02  0.47000000000E+01 0.  1.
         13    1    4    4    0    0  0.60949039756E+02  0.77335070693E+02  0.10313462117E+03  0.14259119429E+03  0.00000000000E+00 0. -1.
        -14    1    4    4    0    0 -0.21070958705E+02  0.86952622116E+02  0.89498916441E+02  0.12654959438E+03  0.00000000000E+00 0.  1.
</event>
<event>
12    1  0.8416569E-002  0.1844791E+03  0.7818608E-02  0.1164809E+00
         21   -1    0    0  503  502  0.00000000000E+00  0.00000000000E+00  0.62666082091E+02  0.62666082091E+02  0.00000000000E+00 0. -1.
         21   -1    0    0  501  503 -0.00000000000E+00 -0.00000000000E+00 -0.64807374150E+03  0.64807374150E+03  0.00000000000E+00 0. -1.
          6    2    1    2  501    0  0.46598492604E+02  0.19664072332E+01 -0.44249517723E+03  0.47738061562E+03  0.17295948666E+03 0.  0.
         24    2    3    3    0    0 -0.41401638931E+02 -0.42998397790E+01 -0.22031511944E+03  0.23827947158E+03  0.80658356008E+02 0.  0.
         -6    2    1    2    0  502 -0.46598492604E+02 -0.19664072332E+01 -0.14291248218E+03  0.23335920797E+03  0.17848601097E+03 0.  0.
        -24    2    5    5    0    0 -0.90163071006E+02 -0.23984760588E+02 -0.59129200795E+02  0.13627981461E+03  0.79820281694E+02 0.  0.
          5    1    3    3  501    0  0.88000131535E+02  0.62662470123E+01 -0.22218005779E+03  0.23910114404E+03  0.47000000000E+01 0. -1.
        -13    1    4    4    0    0 -0.51364823832E+01  0.36106852175E+02 -0.89012631247E+02  0.96194265664E+02  0.00000000000E+00 0.  1.
         14    1    4    4    0    0 -0.36265156548E+02 -0.40406691954E+02 -0.13130248819E+03  0.14208520591E+03  0.00000000000E+00 0. -1.
         -5    1    5    5    0  502  0.43564578402E+02  0.22018353355E+02 -0.83783281382E+02  0.97079393359E+02  0.47000000000E+01 0.  1.
         11    1    6    6    0    0 -0.37143710799E+02 -0.32129809363E+02  0.86234887876E+01  0.49863257620E+02  0.00000000000E+00 0. -1.
        -12    1    6    6    0    0 -0.53019360207E+02  0.81450487750E+01 -0.67752689582E+02  0.86416556990E+02  0.00000000000E+00 0.  1.
</event>
<event>
12    1  0.8416569E-002  0.1802642E+03  0.7818608E-02  0.1168039E+00
         21   -1    0    0  501  502  0.00000000000E+00  0.00000000000E+00  0.10988500200E+04  0.10988500200E+04  0.00000000000E+00 0. -1.
         21   -1    0    0  502  503 -0.00000000000E+00 -0.00000000000E+00 -0.56804089387E+02  0.56804089387E+02  0.00000000000E+00 0. -1.
         -6    2    1    2    0  503 -0.11820910096E+02  0.45643791227E+02  0.12003450235E+03  0.21657203948E+03  0.17398872647E+03 0.  0.
        -24    2    3    3    0    0 -0.44163673530E+02  0.84462650421E+02  0.63650347510E+02  0.14071545709E+03  0.81640086656E+02 0.  0.
          6    2    1    2  501    0  0.11820910096E+02 -0.45643791227E+02  0.92201142823E+03  0.93908206988E+03  0.17189232262E+03 0.  0.
         24    2    5    5    0    0 -0.94790293606E+01  0.36389237526E+02  0.35379363000E+03  0.36455908386E+03  0.79494429954E+02 0.  0.
          5    1    5    5  501    0  0.21299939457E+02 -0.82033028753E+02  0.56821779823E+03  0.57452298601E+03  0.47000000000E+01 0. -1.
        -13    1    6    6    0    0  0.13149231357E+02  0.16247726840E+02  0.18540238571E+02  0.27939780941E+02  0.00000000000E+00 0.  1.
         14    1    6    6    0    0 -0.22628260717E+02  0.20141510685E+02  0.33525339143E+03  0.33661930292E+03  0.00000000000E+00 0. -1.
         -5    1    3    3    0  503  0.32342763434E+02 -0.38818859194E+02  0.56384154843E+02  0.75856582397E+02  0.47000000000E+01 0.  1.
         13    1    4    4    0    0 -0.33610163748E+02  0.29348319250E+02 -0.12298912350E+02  0.46284232682E+02  0.00000000000E+00 0. -1.
        -14    1    4    4    0    0 -0.10553509782E+02  0.55114331171E+02  0.75949259861E+02  0.94431224405E+02  0.00000000000E+00 0.  1.
</event>
<event>
12    1  0.8416569E-002  0.2214065E+03  0.7818608E-02  0.1132879E+00
         21   -1    0    0  501  502  0.00000000000E+00  0.00000000000E+00  0.17123913962E+02  0.17123913962E+02  0.00000000000E+00 0. -1.
         21   -1    0    0  502  503 -0.00000000000E+00 -0.00000000000E+00 -0.28869101697E+04  0.28869101697E+04  0.00000000000E+00 0.  1.
         -6    2    1    2    0  503 -0.92793475685E+02 -0.10245602990E+03 -0.15759915776E+04  0.15914679736E+04  0.17295372546E+03 0.  0.
        -24    2    3    3    0    0 -0.13135159968E+03 -0.97241305379E+02 -0.12784165296E+04  0.12913231394E+04  0.80358653004E+02 0.  0.
          6    2    1    2  501    0  0.92793475685E+02  0.10245602990E+03 -0.12937946781E+04  0.13125661100E+04  0.17267674106E+03 0.  0.
         24    2    5    5    0    0  0.11439383621E+03  0.12586486064E+03 -0.10496167174E+04  0.10662745848E+04  0.79487884076E+02 0.  0.
          5    1    5    5  501    0 -0.21600360529E+02 -0.23408830746E+02 -0.24417796069E+03  0.24629152527E+03  0.47000000000E+01 0. -1.
        -11    1    6    6    0    0  0.47376935608E+02  0.45151063320E+02 -0.64375978252E+03  0.64707793204E+03  0.00000000000E+00 0.  1.
         12    1    6    6    0    0  0.67016900607E+02  0.80713797325E+02 -0.40585693491E+03  0.41919665273E+03  0.00000000000E+00 0. -1.
         -5    1    3    3    0  503  0.38558123994E+02 -0.52147245192E+01 -0.29757504807E+03  0.30014483422E+03  0.47000000000E+01 0.  1.
         11    1    4    4    0    0 -0.32033148081E+02  0.43385299319E+01 -0.12188425474E+03  0.12609804507E+03  0.00000000000E+00 0. -1.
        -12    1    4    4    0    0 -0.99318451599E+02 -0.10157983531E+03 -0.11565322748E+04  0.11652250943E+04  0.00000000000E+00 0.  1.
</event>
<event>
12    1  0.8416569E-002  0.2035382E+03  0.7818608E-02  0.1148120E+00
         21   -1    0    0  503  502  0.00000000000E+00  0.00000000000E+00  0.13239034991E+03  0.13239034991E+03  0.00000000000E+00 0.  1.
         21   -1    0    0  501  503 -0.00000000000E+00 -0.00000000000E+00 -0.33619863046E+03  0.33619863046E+03  0.00000000000E+00 0.  1.
          6    2    1    2  501    0  0.56893928887E+02  0.78360633476E+02 -0.17671870080E+03  0.26955020635E+03  0.17902655253E+03 0.  0.
         24    2    3    3    0    0  0.26984928070E+02  0.54986855557E+02 -0.20308043967E+03  0.22309686309E+03  0.69128899289E+02 0.  0.
         -6    2    1    2    0  502 -0.56893928887E+02 -0.78360633476E+02 -0.27089579752E+02  0.19903877401E+03  0.17177101096E+03 0.  0.
        -24    2    5    5    0    0 -0.15326490272E+02  0.22371482996E+02  0.87097551068E+01  0.84241153749E+02  0.79280057994E+02 0.  0.
          5    1    3    3  501    0  0.29909000817E+02  0.23373777919E+02  0.26361738873E+02  0.46453343265E+02  0.47000000000E+01 0. -1.
        -11    1    4    4    0    0  0.82017404556E+01 -0.10644646714E+02 -0.90077027958E+02  0.91073860223E+02  0.00000000000E+00 0.  1.
         12    1    4    4    0    0  0.18783187614E+02  0.65631502271E+02 -0.11300341171E+03  0.13202300287E+03  0.00000000000E+00 0. -1.
         -5    1    5    5    0  502 -0.41567438615E+02 -0.10073211647E+03 -0.35799334859E+02  0.11479762026E+03  0.47000000000E+01 0.  1.
         11    1    6    6    0    0 -0.31836847814E+02  0.62205804125E+01  0.36020018454E+02  0.48473933498E+02  0.00000000000E+00 0. -1.
        -12    1    6    6    0    0  0.16510357542E+02  0.16150902584E+02 -0.27310263347E+02  0.35767220251E+02  0.00000000000E+00 0.  1.
</event>
<event>
12    1  0.8416569E-002  0.2305538E+03  0.7818608E-02  0.1126392E+00
         21   -1    0    0  503  502  0.00000000000E+00  0.00000000000E+00  0.65586896408E+03  0.65586896408E+03  0.00000000000E+00 0.  1.
         21   -1    0    0  501  503 -0.00000000000E+00 -0.00000000000E+00 -0.17391906609E+03  0.17391906609E+03  0.00000000000E+00 0. -1.
          6    2    1    2  501    0  0.76722616597E+02 -0.12277952058E+03 -0.62869819398E+02  0.23819393548E+03  0.17838880609E+03 0.  0.
         24    2    3    3    0    0  0.76134665560E+02 -0.10660541227E+03 -0.10953057544E+03  0.18858281152E+03  0.80033296937E+02 0.  0.
         -6    2    1    2    0  502 -0.76722616597E+02  0.12277952058E+03  0.54481971739E+03  0.59159409468E+03  0.17942652488E+03 0.  0.
        -24    2    5    5    0    0 -0.54548250355E+01  0.34519809887E+02  0.37636801000E+03  0.38845142961E+03  0.89555914548E+02 0.  0.
          5    1    3    3  501    0  0.58795103681E+00 -0.16174108303E+02  0.46660756047E+02  0.49611123961E+02  0.47000000000E+01 0. -1.
        -11    1    4    4    0    0  0.17300565349E+02  0.88312378095E+01 -0.80172647963E+00  0.19440758421E+02  0.00000000000E+00 0.  1.
         12    1    4    4    0    0  0.58834100211E+02 -0.11543665008E+03 -0.10872884896E+03  0.16914205310E+03  0.00000000000E+00 0. -1.
         -5    1    5    5    0  502 -0.71267791562E+02  0.88259710691E+02  0.16845170739E+03  0.20314266506E+03  0.47000000000E+01 0.  1.
         13    1    6    6    0    0  0.10234007985E+02 -0.28229153684E+02  0.15244233193E+03  0.15537144075E+03  0.00000000000E+00 0. -1.
        -14    1    6    6    0    0 -0.15688833020E+02  0.62748963571E+02  0.22392567807E+03  0.23307998886E+03  0.00000000000E+00 0.  1.
</event>
<event>
12    1  0.8416569E-002  0.2663822E+03  0.7818608E-02  0.1103835E+00
         21   -1    0    0  501  502  0.00000000000E+00  0.00000000000E+00  0.11072460264E+03  0.11072460264E+03  0.00000000000E+00 0.  1.
         21   -1    0    0  502  503 -0.00000000000E+00 -0.00000000000E+00 -0.87863173686E+03  0.87863173686E+03  0.00000000000E+00 0. -1.
         -6    2    1    2    0  503 -0.13590035151E+03  0.14529815729E+03 -0.64704424487E+03  0.69973261705E+03  0.17714124448E+03 0.  0.
        -24    2    3    3    0    0 -0.12366585860E+03  0.30796914133E+02 -0.35483035791E+03  0.38561279401E+03  0.80937936107E+02 0.  0.
          6    2    1    2  501    0  0.13590035151E+03 -0.14529815729E+03 -0.12086288936E+03  0.28962372245E+03  0.17231831745E+03 0.  0.
         24    2    5    5    0    0  0.48838723981E+02 -0.13097063578E+03 -0.12033276755E+03  0.20126436589E+03  0.80553346533E+02 0.  0.
          5    1    5    5  501    0  0.87061627531E+02 -0.14327521512E+02 -0.53012181029E+00  0.88359356551E+02  0.47000000000E+01 0. -1.
        -11    1    6    6    0    0  0.17033401683E+01 -0.92960205821E+02 -0.10195931386E+03  0.13798624177E+03  0.00000000000E+00 0.  1.
         12    1    6    6    0    0  0.47135383813E+02 -0.38010429956E+02 -0.18373453682E+02  0.63278124126E+02  0.00000000000E+00 0. -1.
         -5    1    3    3    0  503 -0.12234492914E+02  0.11450124316E+03 -0.29221388695E+03  0.31411982305E+03  0.47000000000E+01 0.  1.
         13    1    4    4    0    0 -0.62755798528E+02 -0.24720940607E+02 -0.13675813605E+03  0.15248673033E+03  0.00000000000E+00 0. -1.
        -14    1    4    4    0    0 -0.60910060070E+02  0.55517854741E+02 -0.21807222187E+03  0.23312606367E+03  0.00000000000E+00 0.  1.
</event>
<event>
12    1  0.8416569E-002  0.1938297E+03  0.7818608E-02  0.1155620E+00
         21   -1    0    0  501  502  0.00000000000E+00  0.00000000000E+00  0.10902889863E+04  0.10902889863E+04  0.00000000000E+00 0.  1.
         21   -1    0    0  502  503 -0.00000000000E+00 -0.00000000000E+00 -0.45460547504E+02  0.45460547504E+02  0.00000000000E+00 0.  1.
         -6    2    1    2    0  503  0.65820429467E+02 -0.52682139691E+02  0.23473492698E+03  0.30279009032E+03  0.17167881662E+03 0.  0.
        -24    2    3    3    0    0  0.56369712312E+02 -0.12422786457E+02  0.24140074954E+03  0.26063970755E+03  0.79541594022E+02 0.  0.
          6    2    1    2  501    0 -0.65820429467E+02  0.52682139691E+02  0.81009351178E+03  0.83295944345E+03  0.17453423682E+03 0.  0.
         24    2    5    5    0    0 -0.70846839135E+02  0.39903454298E+02  0.27362209211E+03  0.29629173087E+03  0.79424053119E+02 0.  0.
          5    1    5    5  501    0  0.50264096681E+01  0.12778685393E+02  0.53647141967E+03  0.53666771257E+03  0.47000000000E+01 0. -1.
        -11    1    6    6    0    0 -0.21296039056E+02 -0.19742126247E+02  0.12862523797E+03  0.13186252186E+03  0.00000000000E+00 0.  1.
         12    1    6    6    0    0 -0.49550800079E+02  0.59645580546E+02  0.14499685414E+03  0.16442920902E+03  0.00000000000E+00 0. -1.
         -5    1    3    3    0  503  0.94507171549E+01 -0.40259353234E+02 -0.66658225647E+01  0.42150382774E+02  0.47000000000E+01 0.  1.
         13    1    4    4    0    0  0.28893519785E+02  0.26670991054E+02  0.51361929713E+02  0.64685586287E+02  0.00000000000E+00 0. -1.
        -14    1    4    4    0    0  0.27476192527E+02 -0.39093777511E+02  0.19003881983E+03  0.19595412126E+03  0.00000000000E+00 0.  1.
</event>
<event>
12    1  0.8416569E-002  0.1753763E+03  0.7818608E-02  0.1172878E+00
         21   -1    0    0  503  502  0.00000000000E+00  0.00000000000E+00  0.15091520126E+03  0.15091520126E+03  0.00000000000E+00 0.  1.
         21   -1    0    0  501  503 -0.00000000000E+00 -0.00000000000E+00 -0.41211717976E+03  0.41211717976E+03  0.00000000000E+00 0.  1.
          6    2    1    2  501    0 -0.20879332357E+02  0.22601330367E+02 -0.33152152089E+03  0.37408347683E+03  0.17054372510E+03 0.  0.
         24    2    3    3    0    0  0.92928826628E+01 -0.18943528120E+02 -0.30555311847E+03  0.31635319232E+03  0.79192292276E+02 0.  0.
         -6    2    1    2    0  502  0.20879332357E+02 -0.22601330367E+02  0.70319542383E+02  0.18894890419E+03  0.17265596919E+03 0.  0.
        -24    2    5    5    0    0  0.12917980557E+01 -0.68148632247E+02  0.38492276018E+01  0.10589096684E+03  0.80945509367E+02 0.  0.
          5    1    3    3  501    0 -0.30172215020E+02  0.41544858487E+02 -0.25968402419E+02  0.57730284514E+02  0.47000000000E+01 0. -1.
        -13    1    4    4    0    0 -0.31314437032E+02  0.22104173285E+01 -0.17988665383E+03  0.18260527960E+03  0.00000000000E+00 0.  1.
         14    1    4    4    0    0  0.40607319695E+02 -0.21153945448E+02 -0.12566646464E+03  0.13374791271E+03  0.00000000000E+00 0. -1.
         -5    1    5    5    0  502  0.19587534301E+02  0.45547301880E+02  0.66470314781E+02  0.83057937343E+02  0.47000000000E+01 0.  1.
         11    1    6    6    0    0 -0.80539828101E+01 -0.45869243703E+00 -0.28979967407E+02  0.30081814254E+02  0.00000000000E+00 0. -1.
        -12    1    6    6    0    0  0.93457808659E+01 -0.67689939810E+02  0.32829195009E+02  0.75809152590E+02  0.00000000000E+00 0.  1.
</event>
<event>
12    1  0.8416569E-002  0.1903874E+03  0.7818608E-02  0.1158446E+00
         21   -1    0    0  503  502  0.00000000000E+00  0.00000000000E+00  0.85832376578E+03  0.85832376578E+03  0.00000000000E+00 0.  1.
         21   -1    0    0  501  503 -0.00000000000E+00 -0.00000000000E+00 -0.19153970928E+03  0.19153970928E+03  0.00000000000E+00 0.  1.
          6    2    1    2  501    0  0.73117670588E+02  0.15945542167E+02 -0.13086354231E+03  0.22980917267E+03  0.17345470611E+03 0.  0.
         24    2    3    3    0    0  0.55332542585E+02  0.64837462659E+02 -0.13507055107E+03  0.17740192518E+03  0.77212709164E+02 0.  0.
         -6    2    1    2    0  502 -0.73117670588E+02 -0.15945542167E+02  0.79764759881E+03  0.82005430239E+03  0.17506259713E+03 0.  0.
        -24    2    5    5    0    0 -0.86001271265E+02 -0.34360691763E+02  0.77838732047E+03  0.79008509782E+03  0.98847181702E+02 0.  0.
          5    1    3    3  501    0  0.17785128002E+02 -0.48891920492E+02  0.42070087618E+01  0.52407247497E+02  0.47000000000E+01 0. -1.
        -11    1    4    4    0    0  0.60700285342E+02  0.31758467461E+02 -0.12477499454E+03  0.14234438576E+03  0.00000000000E+00 0.  1.
         12    1    4    4    0    0 -0.53677427568E+01  0.33078995198E+02 -0.10295556539E+02  0.35057539418E+02  0.00000000000E+00 0. -1.
         -5    1    5    5    0  502  0.12883600677E+02  0.18415149596E+02  0.19260278348E+02  0.29969204579E+02  0.47000000000E+01 0.  1.
         11    1    6    6    0    0 -0.26807229258E+02 -0.50352783015E+02  0.18646563804E+03  0.19499606270E+03  0.00000000000E+00 0. -1.
        -12    1    6    6    0    0 -0.59194042007E+02  0.15992091252E+02  0.59192168242E+03  0.59508903512E+03  0.00000000000E+00 0.  1.
</event>
<event>
12    1  0.8416569E-002  0.2079987E+03  0.7818608E-02  0.1143290E+00
         21   -1    0    0  501  502  0.00000000000E+00  0.00000000000E+00  0.44286252892E+03  0.44286252892E+03  0.00000000000E+00 0.  1.
         21   -1    0    0  502  503 -0.00000000000E+00 -0.00000000000E+00 -0.50473965221E+03  0.50473965221E+03  0.00000000000E+00 0.  1.
         -6    2    1    2    0  503 -0.11141577388E+03  0.33796085700E+02 -0.45659209521E+03  0.50173677789E+03  0.17235951613E+03 0.  0.
        -24    2    3    3    0    0 -0.12596480391E+03  0.44974623231E+02 -0.25078362036E+03  0.29505864093E+03  0.79229595408E+02 0.  0.
          6    2    1    2  501    0  0.11141577388E+03 -0.33796085700E+02  0.39471497192E+03  0.44586540323E+03  0.17158204645E+03 0.  0.
         24    2    5    5    0    0  0.13951852250E+03 -0.56446648578E+02  0.34117767644E+03  0.38112635408E+03  0.78761974397E+02 0.  0.
          5    1    5    5  501    0 -0.28102748622E+02  0.22650562878E+02  0.53537295477E+02  0.64739049157E+02  0.47000000000E+01 0. -1.
        -13    1    6    6    0    0  0.73770662780E+02 -0.45185850376E+02  0.10680086313E+03  0.13744197367E+03  0.00000000000E+00 0.  1.
         14    1    6    6    0    0  0.65747859720E+02 -0.11260798202E+02  0.23437681332E+03  0.24368438041E+03  0.00000000000E+00 0. -1.
         -5    1    3    3    0  503  0.14549030032E+02 -0.11178537531E+02 -0.20580847485E+03  0.20667813696E+03  0.47000000000E+01 0.  1.
         13    1    4    4    0    0 -0.10359001373E+03  0.65953020390E+02 -0.17983683831E+03  0.21776588405E+03  0.00000000000E+00 0. -1.
        -14    1    4    4    0    0 -0.22374790184E+02 -0.20978397159E+02 -0.70946782054E+02  0.77292756886E+02  0.00000000000E+00 0.  1.
</event>
<event>
12    1  0.8416569E-002  0.2458464E+03  0.7818608E-02  0.1118607E+00
         21   -1    0    0  503  502  0.00000000000E+00  0.00000000000E+00  0.23063943466E+03  0.23063943466E+03  0.00000000000E+00 0.  1.
         21   -1    0    0  501  503 -0.00000000000E+00 -0.00000000000E+00 -0.34044605398E+03  0.34044605398E+03  0.00000000000E+00 0.  1.
          6    2    1    2  501    0 -0.15266110076E+03  0.78160822215E+02 -0.20435987605E+03  0.30768316615E+03  0.15326919450E+03 0.  0.
         24    2    3    3    0    0 -0.16765964275E+03  0.65220033641E+02 -0.20885245589E+03  0.28683386054E+03  0.79315235769E+02 0.  0.
         -6    2    1    2    0  502  0.15266110076E+03 -0.78160822215E+02  0.94553256730E+02  0.26340232249E+03  0.17614181593E+03 0.  0.
        -24    2    5    5    0    0  0.12110459582E+02 -0.64734577005E+02  0.24317747340E+02  0.10563710587E+03  0.78934254981E+02 0.  0.
          5    1    3    3  501    0  0.14998541994E+02  0.12940788574E+02  0.44925798471E+01  0.20849305613E+02  0.47000000000E+01 0. -1.
        -11    1    4    4    0    0 -0.15802281941E+03  0.65813494094E+02 -0.15124941139E+03  0.22842725736E+03  0.00000000000E+00 0.  1.
         12    1    4    4    0    0 -0.96368233450E+01 -0.59346045292E+00 -0.57603044504E+02  0.58406603185E+02  0.00000000000E+00 0. -1.
         -5    1    5    5    0  502  0.14055064118E+03 -0.13426245210E+02  0.70235509390E+02  0.15776521662E+03  0.47000000000E+01 0.  1.
         11    1    6    6    0    0  0.12391119588E+02 -0.77024787793E+02  0.38391889898E+02  0.86949956809E+02  0.00000000000E+00 0. -1.
        -12    1    6    6    0    0 -0.28066000545E+00  0.12290210788E+02 -0.14074142557E+02  0.18687149060E+02  0.00000000000E+00 0.  1.
</event>
<event>
12    1  0.8416569E-002  0.1931808E+03  0.7818608E-02  0.1156179E+00
         21   -1    0    0  503  502  0.00000000000E+00  0.00000000000E+00  0.35574381454E+02  0.35574381454E+02  0.00000000000E+00 0.  1.
         21   -1    0    0  501  503 -0.00000000000E+00 -0.00000000000E+00 -0.10603592027E+04  0.10603592027E+04  0.00000000000E+00 0.  1.
          6    2    1    2  501    0 -0.80454645962E+02  0.13662178550E+02 -0.59302017629E+03  0.62292245144E+03  0.17233643212E+03 0.  0.
         24    2    3    3    0    0 -0.36993218720E+01 -0.44546008302E+02 -0.23659051266E+03  0.25367488149E+03  0.79861398569E+02 0.  0.
         -6    2    1    2    0  502  0.80454645962E+02 -0.13662178550E+02 -0.43176464493E+03  0.47301113269E+03  0.17509773802E+03 0.  0.
        -24    2    5    5    0    0  0.32102162459E+02 -0.72142457070E+02 -0.31078216833E+03  0.33012392094E+03  0.78493083020E+02 0.  0.
          5    1    3    3  501    0 -0.76755324090E+02  0.58208186852E+02 -0.35642966363E+03  0.36924756995E+03  0.47000000000E+01 0. -1.
        -13    1    4    4    0    0 -0.36383442420E+02 -0.97256560070E+01 -0.15137684568E+03  0.15599132243E+03  0.00000000000E+00 0.  1.
         14    1    4    4    0    0  0.32684120548E+02 -0.34820352295E+02 -0.85213666983E+02  0.97683559060E+02  0.00000000000E+00 0. -1.
         -5    1    5    5    0  502  0.48352483503E+02  0.58480278520E+02 -0.12098247660E+03  0.14288721175E+03  0.47000000000E+01 0.  1.
         11    1    6    6    0    0  0.55751071961E+02 -0.65544721000E+02 -0.22483089881E+03  0.24073476180E+03  0.00000000000E+00 0. -1.
        -12    1    6    6    0    0 -0.23648909503E+02 -0.65977360698E+01 -0.85951269514E+02  0.89389159147E+02  0.00000000000E+00 0.  1.
</event>
<event>
12    1  0.8416569E-002  0.2850000E+03  0.7818608E-02  0.1093022E+00
         21   -1    0    0  503  502  0.00000000000E+00  0.00000000000E+00  0.29611832494E+03  0.29611832494E+03  0.00000000000E+00 0. -1.
         21   -1    0    0  501  503 -0.00000000000E+00 -0.00000000000E+00 -0.31661324028E+03  0.31661324028E+03  0.00000000000E+00 0.  1.
          6    2    1    2  501    0  0.16214248076E+03  0.15939391353E+03 -0.12256940820E+03  0.31023907210E+03  0.17183834931E+03 0.  0.
         24    2    3    3    0    0  0.15020545853E+03  0.17952338674E+03 -0.13643096771E+03  0.28263615516E+03  0.80495099820E+02 0.  0.
         -6    2    1    2    0  502 -0.16214248076E+03 -0.15939391353E+03  0.10207449286E+03  0.30249249312E+03  0.17142316811E+03 0.  0.
        -24    2    5    5    0    0 -0.43507744345E+02 -0.11395037562E+03  0.96956007842E+02  0.17526197512E+03  0.80241389223E+02 0.  0.
          5    1    3    3  501    0  0.11937022233E+02 -0.20129473215E+02  0.13861559502E+02  0.27602916939E+02  0.47000000000E+01 0. -1.
        -13    1    4    4    0    0  0.71168817131E+02  0.14409960819E+03 -0.83213330194E+02  0.18098109276E+03  0.00000000000E+00 0.  1.
         14    1    4    4    0    0  0.79036641397E+02  0.35423778552E+02 -0.53217637512E+02  0.10165506240E+03  0.00000000000E+00 0. -1.
         -5    1    5    5    0  502 -0.11863473642E+03 -0.45443537905E+02  0.51184850191E+01  0.12723051800E+03  0.47000000000E+01 0.  1.
         11    1    6    6    0    0 -0.37080625366E+02 -0.12543267062E+03  0.95645418342E+02  0.16203818589E+03  0.00000000000E+00 0. -1.
        -12    1    6    6    0    0 -0.64271189785E+01  0.11482294999E+02  0.13105894997E+01  0.13223789232E+02  0.00000000000E+00 0.  1.
</event>
<event>
12    1  0.8416569E-002  0.1889271E+03  0.7818608E-02  0.1159606E+00
         21   -1    0    0  503  502  0.00000000000E+00  0.00000000000E+00  0.34078977350E+03  0.34078977350E+03  0.00000000000E+00 0.  1.
         21   -1    0    0  501  503 -0.00000000000E+00 -0.00000000000E+00 -0.12548227721E+03  0.12548227721E+03  0.00000000000E+00 0. -1.
          6    2    1    2  501    0 -0.65331668015E+02  0.40149824447E+02  0.11719450327E+02  0.18852841066E+03  0.17182951104E+03 0.  0.
         24    2    3    3    0    0 -0.68891503250E+02 -0.23530165695E+02 -0.29239957242E+02  0.11258384773E+03  0.80749239945E+02 0.  0.
         -6    2    1    2    0  502  0.65331668015E+02 -0.40149824447E+02  0.20358804597E+03  0.27774364004E+03  0.17266499899E+03 0.  0.
        -24    2    5    5    0    0 -0.93960539574E+01  0.26552746154E+02  0.65201929595E+02  0.10684521243E+03  0.79820258320E+02 0.  0.
          5    1    3    3  501    0  0.35598352348E+01  0.63679990142E+02  0.40959407569E+02  0.75944562937E+02  0.47000000000E+01 0. -1.
        -11    1    4    4    0    0 -0.29540718504E+01  0.19408329078E+02  0.12736591596E+02  0.23401507292E+02  0.00000000000E+00 0.  1.
         12    1    4    4    0    0 -0.65937431399E+02 -0.42938494773E+02 -0.41976548837E+02  0.89182340434E+02  0.00000000000E+00 0. -1.
         -5    1    5    5    0  502  0.74727721972E+02 -0.66702570600E+02  0.13838611637E+03  0.17089842761E+03  0.47000000000E+01 0.  1.
         13    1    6    6    0    0 -0.22289470163E+01 -0.11384037235E+02 -0.14330550052E+02  0.18437168258E+02  0.00000000000E+00 0. -1.
        -14    1    6    6    0    0 -0.71671069410E+01  0.37936783389E+02  0.79532479647E+02  0.88408044174E+02  0.00000000000E+00 0.  1.
</event>
<event>
12    1  0.8416569E-002  0.1818938E+03  0.7818608E-02  0.1167530E+00
         21   -1    0    0  503  502  0.00000000000E+00  0.00000000000E+00  0.20031634461E+03  0.20031634461E+03  0.00000000000E+00 0. -1.
         21   -1    0    0  501  503 -0.00000000000E+00 -0.00000000000E+00 -0.18152378689E+03  0.18152378689E+03  0.00000000000E+00 0. -1.
          6    2    1    2  501    0  0.31453900784E+02 -0.96792800080E+01 -0.57333185622E+02  0.18465875414E+03  0.17242019885E+03 0.  0.
         24    2    3    3    0    0 -0.17769063374E+02  0.28182635135E+02  0.16897104207E+02  0.87763703974E+02  0.79416340058E+02 0.  0.
         -6    2    1    2    0  502 -0.31453900784E+02  0.96792800080E+01  0.76125743339E+02  0.19718137736E+03  0.17889195186E+03 0.  0.
        -24    2    5    5    0    0  0.72783114939E+01 -0.59147763634E+02  0.56211177340E+02  0.11559690491E+03  0.81556828083E+02 0.  0.
          5    1    3    3  501    0  0.49222964158E+02 -0.37861915143E+02 -0.74230289829E+02  0.96895050167E+02  0.47000000000E+01 0. -1.
        -13    1    4    4    0    0 -0.59811081471E+01  0.51474287844E+02  0.28562725252E+02  0.59170983070E+02  0.00000000000E+00 0.  1.
         14    1    4    4    0    0 -0.11787955227E+02 -0.23291652708E+02 -0.11665621045E+02  0.28592720904E+02  0.00000000000E+00 0. -1.
         -5    1    5    5    0  502 -0.38732212278E+02  0.68827043642E+02  0.19914565999E+02  0.81584472440E+02  0.47000000000E+01 0.  1.
         13    1    6    6    0    0 -0.84235779721E+01 -0.15089134765E+01  0.55189311196E+02  0.55848845610E+02  0.00000000000E+00 0. -1.
        -14    1    6    6    0    0  0.15701889466E+02 -0.57638850157E+02  0.10218661441E+01  0.59748059305E+02  0.00000000000E+00 0.  1.
</event>
<event>
12    1  0.8416569E-002  0.1799236E+03  0.7818608E-02  0.1168147E+00
         21   -1    0    0  501  502  0.00000000000E+00  0.00000000000E+00  0.30073093876E+03  0.30073093876E+03  0.00000000000E+00 0. -1.
         21   -1    0    0  502  503 -0.00000000000E+00 -0.00000000000E+00 -0.16692536658E+03  0.16692536658E+03  0.00000000000E+00 0. -1.
         -6    2    1    2    0  503 -0.35801444333E+02  0.31229396016E+02 -0.73352126770E+02  0.19327190037E+03  0.17238466980E+03 0.  0.
        -24    2    3    3    0    0 -0.58128610679E+02  0.71233605411E+02 -0.92433484563E+02  0.14342185181E+03  0.59772205830E+02 0.  0.
          6    2    1    2  501    0  0.35801444333E+02 -0.31229396016E+02  0.20715769894E+03  0.27438440496E+03  0.17353809629E+03 0.  0.
         24    2    5    5    0    0  0.36656261454E+02  0.81579014924E+01  0.27060239094E+02  0.89968367262E+02  0.77148024650E+02 0.  0.
          5    1    5    5  501    0 -0.85481712172E+00 -0.39387297508E+02  0.18009745985E+03  0.18441603770E+03  0.47000000000E+01 0. -1.
        -11    1    6    6    0    0  0.19322184966E+01  0.37506532440E+02  0.23634449057E+02  0.44374098596E+02  0.00000000000E+00 0.  1.
         12    1    6    6    0    0  0.34724042958E+02 -0.29348630948E+02  0.34257900372E+01  0.45594268666E+02  0.00000000000E+00 0. -1.
         -5    1    3    3    0  503  0.22327166346E+02 -0.40004209395E+02  0.19081357792E+02  0.49850048561E+02  0.47000000000E+01 0.  1.
         11    1    4    4    0    0 -0.16511376654E+02  0.36111020553E+02 -0.77298644461E+02  0.86900585728E+02  0.00000000000E+00 0. -1.
        -12    1    4    4    0    0 -0.41617234025E+02  0.35122584857E+02 -0.15134840102E+02  0.56521266085E+02  0.00000000000E+00 0.  1.
</event>
<event>
12    1  0.8416569E-002  0.1941329E+03  0.7818608E-02  0.1154984E+00
         21   -1    0    0  503  502  0.00000000000E+00  0.00000000000E+00  0.58044933869E+02  0.58044933869E+02  0.00000000000E+00 0.  1.
         21   -1    0    0  501  503 -0.00000000000E+00 -0.00000000000E+00 -0.12011351466E+04  0.12011351466E+04  0.00000000000E+00 0.  1.
          6    2    1    2  501    0 -0.43484490350E+02 -0.76233550657E+02 -0.99874222128E+03  0.10172628744E+04  0.17214899358E+03 0.  0.
         24    2    3    3    0    0 -0.92389100115E+02 -0.33233314159E+02 -0.71774044240E+03  0.72877583672E+03  0.79515272389E+02 0.  0.
         -6    2    1    2    0  502  0.43484490350E+02  0.76233550657E+02 -0.14434799141E+03  0.24191720599E+03  0.17316216903E+03 0.  0.
        -24    2    5    5    0    0  0.71001479883E+02  0.87636554603E+02 -0.15707380349E+03  0.20918725785E+03  0.79785670738E+02 0.  0.
          5    1    3    3  501    0  0.48904609765E+02 -0.43000236498E+02 -0.28100177888E+03  0.28848703772E+03  0.47000000000E+01 0. -1.
        -11    1    4    4    0    0 -0.32657023827E+00  0.19173201916E+02 -0.15179130643E+03  0.15299777458E+03  0.00000000000E+00 0.  1.
         12    1    4    4    0    0 -0.92062529877E+02 -0.52406516075E+02 -0.56594913597E+03  0.57577806214E+03  0.00000000000E+00 0. -1.
         -5    1    5    5    0  502 -0.27516989533E+02 -0.11403003945E+02  0.12725812086E+02  0.32729948139E+02  0.47000000000E+01 0.  1.
         13    1    6    6    0    0  0.10202430375E+02  0.19448096097E+02 -0.97915959799E+02  0.10034865824E+03  0.00000000000E+00 0. -1.
        -14    1    6    6    0    0  0.60799049508E+02  0.68188458505E+02 -0.59157843692E+02  0.10883859961E+03  0.00000000000E+00 0.  1.
</event>
<event>
12    1  0.8416569E-002  0.3125837E+03  0.7818608E-02  0.1079130E+00
         21   -1    0    0  501  502  0.00000000000E+00  0.00000000000E+00  0.73566544108E+02  0.73566544108E+02  0.00000000000E+00 0. -1.
         21   -1    0    0  502  503 -0.00000000000E+00 -0.00000000000E+00 -0.18308935133E+04  0.18308935133E+04  0.00000000000E+00 0. -1.
         -6    2    1    2    0  503  0.24426954794E+03  0.92354412006E+02 -0.13777844964E+04  0.14127680531E+04  0.17154155094E+03 0.  0.
        -24    2    3    3    0    0  0.11705015933E+03  0.24245047509E+02 -0.42295502185E+03  0.44708431918E+03  0.81883306117E+02 0.  0.
          6    2    1    2  501    0 -0.24426954794E+03 -0.92354412006E+02 -0.37954247278E+03  0.49169200436E+03  0.17178937404E+03 0.  0.
         24    2    5    5    0    0 -0.13797170583E+03 -0.11911911534E+03 -0.28155020506E+03  0.34458607274E+03  0.79015747232E+02 0.  0.
          5    1    5    5  501    0 -0.10629784212E+03  0.26764703333E+02 -0.97992267722E+02  0.14710593162E+03  0.47000000000E+01 0. -1.
        -13    1    6    6    0    0 -0.45926002316E+02 -0.70628933142E+02 -0.72786560856E+02  0.11133520255E+03  0.00000000000E+00 0.  1.
         14    1    6    6    0    0 -0.92045703510E+02 -0.48490182197E+02 -0.20876364420E+03  0.23325087019E+03  0.00000000000E+00 0. -1.
         -5    1    3    3    0  503  0.12721938861E+03  0.68109364497E+02 -0.95482947456E+03  0.96568373387E+03  0.47000000000E+01 0.  1.
         11    1    4    4    0    0  0.49607165976E+02 -0.13576398753E+02 -0.27876310595E+03  0.28346791486E+03  0.00000000000E+00 0. -1.
        -12    1    4    4    0    0  0.67442993358E+02  0.37821446262E+02 -0.14419191591E+03  0.16361640432E+03  0.00000000000E+00 0.  1.
</event>
<event>
12    1  0.8416569E-002  0.1802371E+03  0.7818608E-02  0.1167667E+00
         21   -1    0    0  501  502  0.00000000000E+00  0.00000000000E+00  0.82657097597E+02  0.82657097597E+02  0.00000000000E+00 0. -1.
         21   -1    0    0  502  503 -0.00000000000E+00 -0.00000000000E+00 -0.39307081359E+03  0.39307081359E+03  0.00000000000E+00 0. -1.
         -6    2    1    2    0  503 -0.25262998757E+02 -0.46548830778E+02 -0.14367411095E+03  0.23019276630E+03  0.17187625417E+03 0.  0.
        -24    2    3    3    0    0 -0.69791073755E+02 -0.68434703889E+02 -0.81534888467E+02  0.15053654322E+03  0.80369211358E+02 0.  0.
          6    2    1    2  501    0  0.25262998757E+02  0.46548830778E+02 -0.16673960504E+03  0.24553514489E+03  0.17228000096E+03 0.  0.
         24    2    5    5    0    0  0.50545793804E+02  0.75937970252E+02 -0.16824354943E+03  0.20645454749E+03  0.77434718684E+02 0.  0.
          5    1    5    5  501    0 -0.25282795047E+02 -0.29389139474E+02  0.15039443840E+01  0.39080597400E+02  0.47000000000E+01 0. -1.
        -13    1    6    6    0    0 -0.25323571438E+00  0.55240802728E+02 -0.43939110055E+02  0.70585096209E+02  0.00000000000E+00 0.  1.
         14    1    6    6    0    0  0.50799029519E+02  0.20697167524E+02 -0.12430443937E+03  0.13586945128E+03  0.00000000000E+00 0. -1.
         -5    1    3    3    0  503  0.44528074998E+02  0.21885873111E+02 -0.62139222483E+02  0.79656223082E+02  0.47000000000E+01 0.  1.
         11    1    4    4    0    0 -0.39344892007E+02 -0.96198826351E+01  0.58141088014E+01  0.40919024061E+02  0.00000000000E+00 0. -1.
        -12    1    4    4    0    0 -0.30446181747E+02 -0.58814821254E+02 -0.87348997268E+02  0.10961751916E+03  0.00000000000E+00 0.  1.
</event>
<event>
12    1  0.8416569E-002  0.1839770E+03  0.7818608E-02  0.1164257E+00
         21   -1    0    0  501  502  0.00000000000E+00  0.00000000000E+00  0.72044593516E+02  0.72044593516E+02  0.00000000000E+00 0.  1.
         21   -1    0    0  502  503 -0.00000000000E+00 -0.00000000000E+00 -0.66439190123E+03  0.66439190123E+03  0.00000000000E+00 0.  1.
         -6    2    1    2    0  503 -0.59948314758E+02  0.13484004012E+02 -0.49621570802E+03  0.52885805526E+03  0.17229392015E+03 0.  0.
        -24    2    3    3    0    0 -0.12121854127E+02 -0.16327623942E+02 -0.44487644172E+03  0.45247799397E+03  0.80048460209E+02 0.  0.
          6    2    1    2  501    0  0.59948314758E+02 -0.13484004012E+02 -0.96131599701E+02  0.20757843949E+03  0.17341252918E+03 0.  0.
         24    2    5    5    0    0  0.20396153740E+02 -0.59833958699E+02 -0.10088834944E+02  0.10204105698E+03  0.79463746564E+02 0.  0.
          5    1    5    5  501    0  0.39552161019E+02  0.46349954688E+02 -0.86042764757E+02  0.10553738251E+03  0.47000000000E+01 0. -1.
        -11    1    6    6    0    0  0.47055106966E+02 -0.15032970005E+02 -0.41862850910E+01  0.49575177878E+02  0.00000000000E+00 0.  1.
         12    1    6    6    0    0 -0.26658953227E+02 -0.44800988694E+02 -0.59025498530E+01  0.52465879102E+02  0.00000000000E+00 0. -1.
         -5    1    3    3    0  503 -0.47826460631E+02  0.29811627954E+02 -0.51339266301E+02  0.76380061286E+02  0.47000000000E+01 0.  1.
         13    1    4    4    0    0 -0.24492946221E+02 -0.24408910425E+02 -0.78201200418E+02  0.85505128908E+02  0.00000000000E+00 0. -1.
        -14    1    4    4    0    0  0.12371092094E+02  0.80812864826E+01 -0.36667524130E+03  0.36697286506E+03  0.00000000000E+00 0.  1.
</event>
<event>
12    1  0.8416569E-002  0.2360766E+03  0.7818608E-02  0.1122449E+00
         21   -1    0    0  503  502  0.00000000000E+00  0.00000000000E+00  0.25845563923E+03  0.25845563923E+03  0.00000000000E+00 0. -1.
         21   -1    0    0  501  503 -0.00000000000E+00 -0.00000000000E+00 -0.23304961411E+03  0.23304961411E+03  0.00000000000E+00 0. -1.
          6    2    1    2  501    0  0.61493358393E+02 -0.14893069997E+03 -0.54624461832E+02  0.24223224800E+03  0.17242634259E+03 0.  0.
         24    2    3    3    0    0  0.46023602488E+02 -0.10166123497E+02 -0.41566169580E+02  0.10191998899E+03  0.80239738586E+02 0.  0.
         -6    2    1    2    0  502 -0.61493358393E+02  0.14893069997E+03  0.80030486947E+02  0.24927300535E+03  0.17254091061E+03 0.  0.
        -24    2    5    5    0    0 -0.26998471925E+02  0.92446093499E+02 -0.21825409131E+02  0.12771182106E+03  0.80986190577E+02 0.  0.
          5    1    3    3  501    0  0.15469755905E+02 -0.13876457647E+03 -0.13058292252E+02  0.14031225901E+03  0.47000000000E+01 0. -1.
        -11    1    4    4    0    0 -0.18313503936E+02  0.16671863599E+01 -0.30441213201E+02  0.35564468194E+02  0.00000000000E+00 0.  1.
         12    1    4    4    0    0  0.64337106423E+02 -0.11833309857E+02 -0.11124956379E+02  0.66355520792E+02  0.00000000000E+00 0. -1.
         -5    1    5    5    0  502 -0.34494886468E+02  0.56484606474E+02  0.10185589608E+03  0.12156118429E+03  0.47000000000E+01 0.  1.
         13    1    6    6    0    0 -0.84029609927E+01  0.96223540789E+02  0.27918994539E+01  0.96630089816E+02  0.00000000000E+00 0. -1.
        -14    1    6    6    0    0 -0.18595510933E+02 -0.37774472898E+01 -0.24617308585E+02  0.31081731240E+02  0.00000000000E+00 0.  1.
</event>
<event>
12    1  0.8416569E-002  0.1943951E+03  0.7818608E-02  0.1154987E+00
         21   -1    0    0  501  502  0.00000000000E+00  0.00000000000E+00  0.13659687606E+04  0.13659687606E+04  0.00000000000E+00 0. -1.
         21   -1    0    0  502  503 -0.00000000000E+00 -0.00000000000E+00 -0.16667092358E+03  0.16667092358E+03  0.00000000000E+00 0. -1.
         -6    2    1    2    0  503  0.89301363179E+02  0.13328955197E+02 -0.10038721911E+03  0.21878540581E+03  0.17215419113E+03 0.  0.
        -24    2    3    3    0    0  0.11056266005E+03  0.46872875279E+02 -0.47695364964E+02  0.15263588721E+03  0.81250833786E+02 0.  0.
          6    2    1    2  501    0 -0.89301363179E+02 -0.13328955197E+02  0.12996850562E+04  0.13138542784E+04  0.16993947502E+03 0.  0.
         24    2    5    5    0    0 -0.11249479003E+03  0.19097657940E+02  0.74646869875E+03  0.75918334136E+03  0.78256177232E+02 0.  0.
          5    1    5    5  501    0  0.23193426852E+02 -0.32426613138E+02  0.55321635741E+03  0.55467093704E+03  0.47000000000E+01 0. -1.
        -13    1    6    6    0    0 -0.55606698995E+02  0.41341359885E+02  0.26721010000E+03  0.27604791351E+03  0.00000000000E+00 0.  1.
         14    1    6    6    0    0 -0.56888091036E+02 -0.22243701944E+02  0.47925859875E+03  0.48313542786E+03  0.00000000000E+00 0. -1.
         -5    1    3    3    0  503 -0.21261296867E+02 -0.33543920082E+02 -0.52691854142E+02  0.66149518606E+02  0.47000000000E+01 0.  1.
         13    1    4    4    0    0  0.47591328573E+02  0.61009370464E+02 -0.10334380561E+02  0.78063290101E+02  0.00000000000E+00 0. -1.
        -14    1    4    4    0    0  0.62971331472E+02 -0.14136495185E+02 -0.37360984403E+02  0.74572597106E+02  0.00000000000E+00 0.  1.
</event>
<event>
12    1  0.8416569E-002  0.2075214E+03  0.7818608E-02  0.1144276E+00
         21   -1    0    0  501  502  0.00000000000E+00  0.00000000000E+00  0.35500600226E+03  0.35500600226E+03  0.00000000000E+00 0.  1.
         21   -1    0    0  502  503 -0.00000000000E+00 -0.00000000000E+00 -0.14450711111E+03  0.14450711111E+03  0.00000000000E+00 0.  1.
         -6    2    1    2    0  503  0.65433385124E+02 -0.92386339060E+02  0.15114983927E+01  0.20752687082E+03  0.17392053919E+03 0.  0.
        -24    2    3    3    0    0  0.32406465946E+02 -0.13051197274E+01 -0.46675923371E+02  0.99218590801E+02  0.81325300893E+02 0.  0.
          6    2    1    2  501    0 -0.65433385124E+02  0.92386339060E+02  0.20898739276E+03  0.29198624255E+03  0.16959797160E+03 0.  0.
         24    2    5    5    0    0  0.28826636505E+02  0.35330425700E+02  0.10927280423E+03  0.14330733317E+03  0.80729375353E+02 0.  0.
          5    1    5    5  501    0 -0.94260021629E+02  0.57055913359E+02  0.99714588534E+02  0.14867890938E+03  0.47000000000E+01 0. -1.
        -11    1    6    6    0    0  0.10513419585E+01 -0.22498772548E+02  0.54433392231E+02  0.58909203659E+02  0.00000000000E+00 0.  1.
         12    1    6    6    0    0  0.27775294546E+02  0.57829198248E+02  0.54839411997E+02  0.84398129513E+02  0.00000000000E+00 0. -1.
         -5    1    3    3    0  503  0.33026919178E+02 -0.91081219332E+02  0.48187421764E+02  0.10830828002E+03  0.47000000000E+01 0.  1.
         11    1    4    4    0    0 -0.83558121742E+01 -0.33023270504E+02 -0.88354539145E+01  0.35191209666E+02  0.00000000000E+00 0. -1.
        -12    1    4    4    0    0  0.40762278120E+02  0.31718150777E+02 -0.37840469456E+02  0.64027381135E+02  0.00000000000E+00 0.  1.
</event>
<event>
12    1  0.8416569E-002  0.1976112E+03  0.7818608E-02  0.1151918E+00
         21   -1    0    0  501  502  0.00000000000E+00  0.00000000000E+00  0.69401572807E+02  0.69401572807E+02  0.00000000000E+00 0. -1.
         21   -1    0    0  502  503 -0.00000000000E+00 -0.00000000000E+00 -0.63591591001E+03  0.63591591001E+03  0.00000000000E+00 0. -1.
         -6    2    1    2    0  503 -0.21692860648E+01  0.96202892115E+02 -0.40409675417E+03  0.44952523052E+03  0.17181107034E+03 0.  0.
        -24    2    3    3    0    0 -0.15722121184E+01 -0.11294418749E+01 -0.28320151640E+03  0.29424584280E+03  0.79835891802E+02 0.  0.
          6    2    1    2  501    0  0.21692860648E+01 -0.96202892115E+02 -0.16241758303E+03  0.25579225230E+03  0.17259925493E+03 0.  0.
         24    2    5    5    0    0 -0.30486737250E+02 -0.15561480245E+02 -0.14294563391E+03  0.16651347559E+03  0.78241181506E+02 0.  0.
          5    1    5    5  501    0  0.32656023314E+02 -0.80641411871E+02 -0.19471949118E+02  0.89278776703E+02  0.47000000000E+01 0. -1.
        -11    1    6    6    0    0  0.10930671687E+02  0.56336212755E+01 -0.10703994508E+03  0.10774398876E+03  0.00000000000E+00 0.  1.
         12    1    6    6    0    0 -0.41417408937E+02 -0.21195101520E+02 -0.35905688835E+02  0.58769486830E+02  0.00000000000E+00 0. -1.
         -5    1    3    3    0  503 -0.59707394638E+00  0.97332333990E+02 -0.12089523777E+03  0.15527938773E+03  0.47000000000E+01 0.  1.
         13    1    4    4    0    0  0.45533068584E+01  0.29904941576E+02 -0.23268051651E+03  0.23463857505E+03  0.00000000000E+00 0. -1.
        -14    1    4    4    0    0 -0.61255189768E+01 -0.31034383451E+02 -0.50520999889E+02  0.59607267751E+02  0.00000000000E+00 0.  1.
</event>
<event>
12    1  0.8416569E-002  0.2034268E+03  0.7818608E-02  0.1148555E+00
         21   -1    0    0  501  502  0.00000000000E+00  0.00000000000E+00  0.55187050350E+03  0.55187050350E+03  0.00000000000E+00 0.  1.
         21   -1    0    0  502  503 -0.00000000000E+00 -0.00000000000E+00 -0.12727852694E+03  0.12727852694E+03  0.00000000000E+00 0. -1.
         -6    2    1    2    0  503 -0.10254764057E+03  0.37976090737E+02 -0.89002573781E+01  0.20362141575E+03  0.17153502359E+03 0.  0.
        -24    2    3    3    0    0 -0.49551995948E+02 -0.40449584240E+02 -0.31840863731E+02  0.10611507614E+03  0.78453805602E+02 0.  0.
          6    2    1    2  501    0  0.10254764057E+03 -0.37976090737E+02  0.43349223393E+03  0.47552761469E+03  0.16202713784E+03 0.  0.
         24    2    5    5    0    0 -0.75111837780E+01 -0.20503737959E+02  0.19197862679E+03  0.20950291590E+03  0.80986773459E+02 0.  0.
          5    1    5    5  501    0  0.11005882435E+03 -0.17472352778E+02  0.24151360715E+03  0.26602469879E+03  0.47000000000E+01 0. -1.
        -13    1    6    6    0    0  0.11414403662E+02 -0.98501793284E+01  0.18649470011E+03  0.18710314753E+03  0.00000000000E+00 0.  1.
         14    1    6    6    0    0 -0.18925587440E+02 -0.10653558631E+02  0.54839266746E+01  0.22399768374E+02  0.00000000000E+00 0. -1.
         -5    1    3    3    0  503 -0.52995644625E+02  0.78425674977E+02  0.22940606353E+02  0.97506339613E+02  0.47000000000E+01 0.  1.
         11    1    4    4    0    0 -0.67276750862E+02 -0.19211288688E+02 -0.96026840993E+01  0.70621854701E+02  0.00000000000E+00 0. -1.
        -12    1    4    4    0    0  0.17724754914E+02 -0.21238295552E+02 -0.22238179632E+02  0.35493221438E+02  0.00000000000E+00 0.  1.
</event>
<event>
12    1  0.8416569E-002  0.1967776E+03  0.7818608E-02  0.1152832E+00
         21   -1    0    0  501  502  0.00000000000E+00  0.00000000000E+00  0.48173698488E+02  0.48173698488E+02  0.00000000000E+00 0. -1.
         21   -1    0    0  502  503 -0.00000000000E+00 -0.00000000000E+00 -0.16191187039E+04  0.16191187039E+04  0.00000000000E+00 0. -1.
         -6    2    1    2    0  503 -0.53946789717E+02 -0.80088366121E+02 -0.13809766756E+04  0.13949258121E+04  0.17145565146E+03 0.  0.
        -24    2    3    3    0    0 -0.21735005876E+02  0.26438463006E+02 -0.59501307175E+03  0.60110817511E+03  0.78224547453E+02 0.  0.
          6    2    1    2  501    0  0.53946789717E+02  0.80088366121E+02 -0.18996832990E+03  0.27236659030E+03  0.16962072585E+03 0.  0.
         24    2    5    5    0    0 -0.78485071560E+00 -0.19153460340E+02 -0.81618268550E+02  0.11550257792E+03  0.79447043446E+02 0.  0.
          5    1    5    5  501    0  0.54731640433E+02  0.99241826461E+02 -0.10835006135E+03  0.15686401238E+03  0.47000000000E+01 0. -1.
        -13    1    6    6    0    0 -0.97601513807E+01  0.11714942380E+02 -0.81947607529E+02  0.83354128930E+02  0.00000000000E+00 0.  1.
         14    1    6    6    0    0  0.89753006651E+01 -0.30868402720E+02  0.32933897900E+00  0.32148448994E+02  0.00000000000E+00 0. -1.
         -5    1    3    3    0  503 -0.32211783841E+02 -0.10652682913E+03 -0.78596360380E+03  0.79381763702E+03  0.47000000000E+01 0.  1.
         13    1    4    4    0    0  0.19558295046E+01 -0.24901070874E+01 -0.48316798489E+03  0.48317835995E+03  0.00000000000E+00 0. -1.
        -14    1    4    4    0    0 -0.23690835381E+02  0.28928570094E+02 -0.11184508686E+03  0.11792981516E+03  0.00000000000E+00 0.  1.
</event>
<event>
12    1  0.8416569E-002  0.1757622E+03  0.7818608E-02  0.1172031E+00
         21   -1    0    0  503  502  0.00000000000E+00  0.00000000000E+00  0.10434041671E+04  0.10434041671E+04  0.00000000000E+00 0. -1.
         21   -1    0    0  501  503 -0.00000000000E+00 -0.00000000000E+00 -0.29566126601E+02  0.29566126601E+02  0.00000000000E+00 0. -1.
          6    2    1    2  501    0 -0.80054870240E+01 -0.32094248310E+02  0.50374484604E+03  0.53344511400E+03  0.17236789476E+03 0.  0.
         24    2    3    3    0    0 -0.24817047950E+01 -0.86271493993E+02  0.38720308721E+03  0.40472154324E+03  0.80152150814E+02 0.  0.
         -6    2    1    2    0  502  0.80054870240E+01  0.32094248310E+02  0.51009319441E+03  0.53952517965E+03  0.17262162059E+03 0.  0.
        -24    2    5    5    0    0 -0.61289896327E+02  0.11969488033E+02  0.33608289325E+03  0.35108810517E+03  0.80071383260E+02 0.  0.
          5    1    3    3  501    0 -0.55237822290E+01  0.54177245683E+02  0.11654175883E+03  0.12872357076E+03  0.47000000000E+01 0. -1.
        -13    1    4    4    0    0 -0.23468765656E+02 -0.81969674031E+02  0.36071116669E+03  0.37065125953E+03  0.00000000000E+00 0.  1.
         14    1    4    4    0    0  0.20987060861E+02 -0.43018199621E+01  0.26491920528E+02  0.34070283707E+02  0.00000000000E+00 0. -1.
         -5    1    5    5    0  502  0.69295383351E+02  0.20124760278E+02  0.17401030116E+03  0.18843707448E+03  0.47000000000E+01 0.  1.
         11    1    6    6    0    0 -0.17230122328E+02 -0.55588081955E+01  0.26513752760E+03  0.26575493599E+03  0.00000000000E+00 0. -1.
        -12    1    6    6    0    0 -0.44059773998E+02  0.17528296228E+02  0.70945365658E+02  0.85333169177E+02  0.00000000000E+00 0.  1.
</event>
<event>
12    1  0.8416569E-002  0.2486401E+03  0.7818608E-02  0.1114202E+00
         21   -1    0    0  501  502  0.00000000000E+00  0.00000000000E+00  0.13431671560E+03  0.13431671560E+03  0.00000000000E+00 0.  1.
         21   -1    0    0  502  503 -0.00000000000E+00 -0.00000000000E+00 -0.66574097761E+03  0.66574097761E+03  0.00000000000E+00 0. -1.
         -6    2    1    2    0  503  0.70806367091E+02 -0.16506974918E+03 -0.48808380359E+03  0.54766853809E+03  0.17162011704E+03 0.  0.
        -24    2    3    3    0    0 -0.18703057455E+02 -0.12529815590E+03 -0.30826602530E+03  0.34285096047E+03  0.80432620927E+02 0.  0.
          6    2    1    2  501    0 -0.70806367091E+02  0.16506974918E+03 -0.43340458422E+02  0.25238915511E+03  0.17193116811E+03 0.  0.
         24    2    5    5    0    0  0.76450162763E+01  0.59170520723E+02  0.25446658592E+02  0.10365105103E+03  0.80848074489E+02 0.  0.
          5    1    5    5  501    0 -0.78451383367E+02  0.10589922846E+03 -0.68787117013E+02  0.14873810409E+03  0.47000000000E+01 0. -1.
        -11    1    6    6    0    0 -0.29290769009E+02  0.44716712233E+02  0.33627079098E+02  0.63153099296E+02  0.00000000000E+00 0.  1.
         12    1    6    6    0    0  0.36935785286E+02  0.14453808490E+02 -0.81804205067E+01  0.40497951729E+02  0.00000000000E+00 0. -1.
         -5    1    3    3    0  503  0.89509424545E+02 -0.39771593283E+02 -0.17981777828E+03  0.20481757762E+03  0.47000000000E+01 0.  1.
         13    1    4    4    0    0  0.29161426621E+02 -0.25443445929E+02 -0.66710917331E+02  0.77123953701E+02  0.00000000000E+00 0. -1.
        -14    1    4    4    0    0 -0.47864484076E+02 -0.99854709969E+02 -0.24155510797E+03  0.26572700677E+03  0.00000000000E+00 0.  1.
</event>
<event>
12    1  0.8416569E-002  0.1875882E+03  0.7818608E-02  0.1160744E+00
         21   -1    0    0  501  502  0.00000000000E+00  0.00000000000E+00  0.17769848389E+03  0.17769848389E+03  0.00000000000E+00 0. -1.
         21   -1    0    0  502  503 -0.00000000000E+00 -0.00000000000E+00 -0.24992200268E+03  0.24992200268E+03  0.00000000000E+00 0. -1.
         -6    2    1    2    0  503 -0.26208517729E+02  0.70280587110E+02 -0.13389521167E+03  0.23015467890E+03  0.17151385130E+03 0.  0.
        -24    2    3    3    0    0  0.18055199718E+02  0.37637683008E+02 -0.14793410052E+03  0.17319841261E+03  0.79816079913E+02 0.  0.
          6    2    1    2  501    0  0.26208517729E+02 -0.70280587110E+02  0.61671692880E+02  0.19746580766E+03  0.17193923394E+03 0.  0.
         24    2    5    5    0    0 -0.27394918323E+02 -0.19407151211E+02 -0.15876045533E+02  0.90240919836E+02  0.82245095434E+02 0.  0.
          5    1    5    5  501    0  0.53603436052E+02 -0.50873435899E+02  0.77547738413E+02  0.10722488783E+03  0.47000000000E+01 0. -1.
        -11    1    6    6    0    0  0.17735239883E+02  0.20443881052E+02  0.27878536426E+01  0.27207777089E+02  0.00000000000E+00 0.  1.
         12    1    6    6    0    0 -0.45130158207E+02 -0.39851032262E+02 -0.18663899176E+02  0.63033142747E+02  0.00000000000E+00 0. -1.
         -5    1    3    3    0  503 -0.44263717446E+02  0.32642904102E+02  0.14038888854E+02  0.56956266298E+02  0.47000000000E+01 0.  1.
         11    1    4    4    0    0  0.44119428152E+02 -0.19909523986E+00 -0.71304658573E+02  0.83850568952E+02  0.00000000000E+00 0. -1.
        -12    1    4    4    0    0 -0.26064228434E+02  0.37836778248E+02 -0.76629441950E+02  0.89347843653E+02  0.00000000000E+00 0.  1.
</event>
<event>
12    1  0.8416569E-002  0.2774903E+03  0.7818608E-02  0.1097164E+00
         21   -1    0    0  501  502  0.00000000000E+00  0.00000000000E+00  0.38207350459E+03  0.38207350459E+03  0.00000000000E+00 0.  1.
         21   -1    0    0  502  503 -0.00000000000E+00 -0.00000000000E+00 -0.22029131880E+03  0.22029131880E+03  0.00000000000E+00 0.  1.
         -6    2    1    2    0  503 -0.13900830133E+03 -0.16640291198E+03  0.16985819681E+03  0.32475706058E+03  0.17205262108E+03 0.  0.
        -24    2    3    3    0    0 -0.69280801257E+02 -0.10775692945E+03  0.23948049135E+02  0.15267238164E+03  0.79523341163E+02 0.  0.
          6    2    1    2  501    0  0.13900830133E+03  0.16640291198E+03 -0.80760110185E+01  0.27760776281E+03  0.17316931328E+03 0.  0.
         24    2    5    5    0    0  0.52891372189E+02  0.10945376325E+03 -0.66566923525E+02  0.15885336132E+03  0.77624812749E+02 0.  0.
          5    1    5    5  501    0  0.86116929143E+02  0.56949148733E+02  0.58490912506E+02  0.11875440149E+03  0.47000000000E+01 0. -1.
        -11    1    6    6    0    0  0.70535492486E+02  0.68260006495E+02 -0.55231307937E+02  0.11262851132E+03  0.00000000000E+00 0.  1.
         12    1    6    6    0    0 -0.17644120297E+02  0.41193756751E+02 -0.11335615588E+02  0.46224849995E+02  0.00000000000E+00 0. -1.
         -5    1    3    3    0  503 -0.69727500075E+02 -0.58645982528E+02  0.14591014767E+03  0.17208467894E+03  0.47000000000E+01 0.  1.
         11    1    4    4    0    0 -0.84629218779E+02 -0.73462539742E+02  0.26004482048E+02  0.11504382862E+03  0.00000000000E+00 0. -1.
        -12    1    4    4    0    0  0.15348417522E+02 -0.34294389709E+02 -0.20564329129E+01  0.37628553019E+02  0.00000000000E+00 0.  1.
</event>
<event>
12    1  0.8416569E-002  0.1876196E+03  0.7818608E-02  0.1161274E+00
         21   -1    0    0  503  502  0.00000000000E+00  0.00000000000E+00  0.49782385360E+03  0.49782385360E+03  0.00000000000E+00 0. -1.
         21   -1    0    0  501  503 -0.00000000000E+00 -0.00000000000E+00 -0.21362378137E+03  0.21362378137E+03  0.00000000000E+00 0. -1.
          6    2    1    2  501    0 -0.41115950837E+02  0.51766054327E+02 -0.15027036639E+03  0.23819750120E+03  0.17258800877E+03 0.  0.
         24    2    3    3    0    0 -0.87108153656E+01  0.91501153119E+02 -0.14057092989E+03  0.18580341805E+03  0.79463101507E+02 0.  0.
         -6    2    1    2    0  502  0.41115950837E+02 -0.51766054327E+02  0.43447043862E+03  0.47325013377E+03  0.17558724692E+03 0.  0.
        -24    2    5    5    0    0  0.71364278698E+01 -0.98914102522E+02  0.33101980012E+03  0.35449967678E+03  0.79126382969E+02 0.  0.
          5    1    3    3  501    0 -0.32405135472E+02 -0.39735098792E+02 -0.96994364947E+01  0.52394083151E+02  0.47000000000E+01 0. -1.
        -13    1    4    4    0    0 -0.28255670074E+02  0.80477968230E+02 -0.65763122152E+02  0.10770271351E+03  0.00000000000E+00 0.  1.
         14    1    4    4    0    0  0.19544854709E+02  0.11023184889E+02 -0.74807807742E+02  0.78100704541E+02  0.00000000000E+00 0. -1.
         -5    1    5    5    0  502  0.33979522967E+02  0.47148048195E+02  0.10345063850E+03  0.11875045699E+03  0.47000000000E+01 0.  1.
         11    1    6    6    0    0 -0.24510952241E+01 -0.10522443745E+03  0.23130345312E+03  0.25412492504E+03  0.00000000000E+00 0. -1.
        -12    1    6    6    0    0  0.95875230940E+01  0.63103349240E+01  0.99716347003E+02  0.10037475173E+03  0.00000000000E+00 0.  1.
</event>
<event>
12    1  0.8416569E-002  0.2007055E+03  0.7818608E-02  0.1149274E+00
         21   -1    0    0  503  502  0.00000000000E+00  0.00000000000E+00  0.32210286301E+03  0.32210286301E+03  0.00000000000E+00 0. -1.
         21   -1    0    0  501  503 -0.00000000000E+00 -0.00000000000E+00 -0.92579490616E+03  0.92579490616E+03  0.00000000000E+00 0. -1.
          6    2    1    2  501    0 -0.96750624568E+02 -0.33157519296E+02 -0.88219911246E+03  0.90460652474E+03  0.17198135406E+03 0.  0.
         24    2    3    3    0    0 -0.13169539292E+03 -0.44575688192E+02 -0.65061386435E+03  0.67007437651E+03  0.79816045166E+02 0.  0.
         -6    2    1    2    0  502  0.96750624568E+02  0.33157519296E+02  0.27850706931E+03  0.34329124443E+03  0.17269217240E+03 0.  0.
        -24    2    5    5    0    0  0.10459794407E+03  0.64781339303E+01  0.10747713746E+03  0.16995141168E+03  0.79683443288E+02 0.  0.
          5    1    3    3  501    0  0.34944768356E+02  0.11418168896E+02 -0.23158524810E+03  0.23453214824E+03  0.47000000000E+01 0. -1.
        -13    1    4    4    0    0 -0.82680908207E+02  0.24843883699E+01 -0.23948074349E+03  0.25336402916E+03  0.00000000000E+00 0.  1.
         14    1    4    4    0    0 -0.49014484717E+02 -0.47060076562E+02 -0.41113312086E+03  0.41671034735E+03  0.00000000000E+00 0. -1.
         -5    1    5    5    0  502 -0.78473195044E+01  0.26679385366E+02  0.17102993185E+03  0.17333983274E+03  0.47000000000E+01 0.  1.
         11    1    6    6    0    0  0.82690540320E+02 -0.13473042473E+02  0.11211402472E+03  0.13996000454E+03  0.00000000000E+00 0. -1.
        -12    1    6    6    0    0  0.21907403752E+02  0.19951176404E+02 -0.46368872622E+01  0.29991407145E+02  0.00000000000E+00 0.  1.
</event>
<event>
12    1  0.8416569E-002  0.1992712E+03  0.7818608E-02  0.1150497E+00
         21   -1    0    0  501  502  0.00000000000E+00  0.00000000000E+00  0.12831598961E+04  0.12831598961E+04  0.00000000000E+00 0. -1.
         21   -1    0    0  502  503 -0.00000000000E+00 -0.00000000000E+00 -0.30851227815E+02  0.30851227815E+02  0.00000000000E+00 0. -1.
         -6    2    1    2    0  503 -0.88194875448E+02 -0.43013074369E+02  0.61407871703E+03  0.64539577555E+03  0.17266897745E+03 0.  0.
        -24    2    3    3    0    0 -0.98383003835E+02 -0.13508389451E+02  0.25804216671E+03  0.28796264957E+03  0.80467606617E+02 0.  0.
          6    2    1    2  501    0  0.88194875448E+02  0.43013074369E+02  0.63822995123E+03  0.66861534833E+03  0.17343746066E+03 0.  0.
         24    2    5    5    0    0  0.53007491304E+02  0.95556702225E+02  0.43028512527E+03  0.45121680769E+03  0.80687304071E+02 0.  0.
          5    1    5    5  501    0  0.35187384145E+02 -0.52543627856E+02  0.20794482596E+03  0.21739854064E+03  0.47000000000E+01 0. -1.
        -11    1    6    6    0    0  0.54893270478E+01  0.59373208316E+02  0.10728531648E+03  0.12274139363E+03  0.00000000000E+00 0.  1.
         12    1    6    6    0    0  0.47518164256E+02  0.36183493909E+02  0.32299980879E+03  0.32847541406E+03  0.00000000000E+00 0. -1.
         -5    1    3    3    0  503  0.10188128387E+02 -0.29504684918E+02  0.35603655032E+03  0.35743312599E+03  0.47000000000E+01 0.  1.
         11    1    4    4    0    0 -0.62402213527E+02  0.30590799571E+02  0.12041164822E+03  0.13902804860E+03  0.00000000000E+00 0. -1.
        -12    1    4    4    0    0 -0.35980790308E+02 -0.44099189021E+02  0.13763051849E+03  0.14893460097E+03  0.00000000000E+00 0.  1.
</event>
<event>
12    1  0.8416569E-002  0.2016568E+03  0.7818608E-02  0.1148441E+00
         21   -1    0    0  501  502  0.00000000000E+00  0.00000000000E+00  0.84596932395E+02  0.84596932395E+02  0.00000000000E+00 0.  1.
         21   -1    0    0  502  503 -0.00000000000E+00 -0.00000000000E+00 -0.87587539465E+03  0.87587539465E+03  0.00000000000E+00 0.  1.
         -6    2    1    2    0  503 -0.26462391923E+02 -0.10065983735E+03 -0.71840601251E+03  0.74605249864E+03  0.17220473536E+03 0.  0.
        -24    2    3    3    0    0  0.14960015618E+02 -0.82498400517E+02 -0.66863467705E+03  0.67863640659E+03  0.80282332051E+02 0.  0.
          6    2    1    2  501    0  0.26462391923E+02  0.10065983735E+03 -0.72872449749E+02  0.21441982840E+03  0.17272176423E+03 0.  0.
         24    2    5    5    0    0  0.44757296881E+02  0.10456234256E+03  0.10865700642E+00  0.13893297500E+03  0.79786343629E+02 0.  0.
          5    1    5    5  501    0 -0.18294904958E+02 -0.39025052035E+01 -0.72981106755E+02  0.75486853408E+02  0.47000000000E+01 0. -1.
        -13    1    6    6    0    0  0.20389270671E+02  0.94255035871E+02  0.28070465179E+02  0.10043746891E+03  0.00000000000E+00 0.  1.
         14    1    6    6    0    0  0.24368026210E+02  0.10307306685E+02 -0.27961808173E+02  0.38495506086E+02  0.00000000000E+00 0. -1.
         -5    1    3    3    0  503 -0.41422407542E+02 -0.18161436835E+02 -0.49771335460E+02  0.67416092055E+02  0.47000000000E+01 0.  1.
         11    1    4    4    0    0  0.61929123309E-01  0.13523928406E+02 -0.33753633240E+02  0.36362181338E+02  0.00000000000E+00 0. -1.
        -12    1    4    4    0    0  0.14898086495E+02 -0.96022328924E+02 -0.63488104381E+03  0.64227422525E+03  0.00000000000E+00 0.  1.
</event>
<event>
12    1  0.8416569E-002  0.2274457E+03  0.7818608E-02  0.1128560E+00
         21   -1    0    0  501  502  0.00000000000E+00  0.00000000000E+00  0.82376785490E+03  0.82376785490E+03  0.00000000000E+00 0. -1.
         21   -1    0    0  502  503 -0.00000000000E+00 -0.00000000000E+00 -0.67299565836E+02  0.67299565836E+02  0.00000000000E+00 0. -1.
         -6    2    1    2    0  503 -0.63836851153E+02 -0.13526909679E+03  0.49511513860E+03  0.54460381915E+03  0.17053283333E+03 0.  0.
        -24    2    3    3    0    0 -0.28476801793E+02 -0.23089266547E+02  0.33326225844E+03  0.34447113261E+03  0.79073294025E+02 0.  0.
          6    2    1    2  501    0  0.63836851153E+02  0.13526909679E+03  0.26135315046E+03  0.34646360159E+03  0.17134376516E+03 0.  0.
         24    2    5    5    0    0  0.43314042798E+02  0.14987150507E+03  0.26894949726E+03  0.31973888503E+03  0.74575788238E+02 0.  0.
          5    1    5    5  501    0  0.20522808355E+02 -0.14602408280E+02 -0.75963467965E+01  0.26724716556E+02  0.47000000000E+01 0. -1.
        -13    1    6    6    0    0 -0.65196785953E+01  0.10440417333E+03  0.14778513533E+03  0.18106127096E+03  0.00000000000E+00 0.  1.
         14    1    6    6    0    0  0.49833721393E+02  0.45467331746E+02  0.12116436193E+03  0.13867761407E+03  0.00000000000E+00 0. -1.
         -5    1    3    3    0  503 -0.35360049360E+02 -0.11217983024E+03  0.16185288016E+03  0.20013268654E+03  0.47000000000E+01 0.  1.
         13    1    4    4    0    0 -0.13565078822E+02 -0.32828162322E+02  0.32073627535E+03  0.32269716133E+03  0.00000000000E+00 0. -1.
        -14    1    4    4    0    0 -0.14911722971E+02  0.97388957741E+01  0.12525983095E+02  0.21773971281E+02  0.00000000000E+00 0.  1.
</event>
<event>
12    1  0.8416569E-002  0.2580013E+03  0.7818608E-02  0.1108397E+00
         21   -1    0    0  503  502  0.00000000000E+00  0.00000000000E+00  0.70565125192E+03  0.70565125192E+03  0.00000000000E+00 0. -1.
         21   -1    0    0  501  503 -0.00000000000E+00 -0.00000000000E+00 -0.12327342654E+03  0.12327342654E+03  0.00000000000E+00 0.  1.
          6    2    1    2  501    0  0.77255308004E+02  0.17574477655E+03  0.89840701001E+02  0.27290533593E+03  0.17190509511E+03 0.  0.
         24    2    3    3    0    0  0.35465358091E+02  0.19178561034E+03  0.87426293240E+02  0.22783175579E+03  0.78895121752E+02 0.  0.
         -6    2    1    2    0  502 -0.77255308004E+02 -0.17574477655E+03  0.49253712438E+03  0.55601934252E+03  0.17236612563E+03 0.  0.
        -24    2    5    5    0    0 -0.28695254805E+02 -0.17204766937E+03  0.45499716808E+03  0.49435017934E+03  0.83281802743E+02 0.  0.
          5    1    3    3  501    0  0.41789949912E+02 -0.16040833794E+02  0.24144077613E+01  0.45073580147E+02  0.47000000000E+01 0. -1.
        -11    1    4    4    0    0  0.42065379490E+02  0.12954710636E+03  0.23225277290E+02  0.13817149642E+03  0.00000000000E+00 0.  1.
         12    1    4    4    0    0 -0.66000213983E+01  0.62238503979E+02  0.64201015950E+02  0.89660259363E+02  0.00000000000E+00 0. -1.
         -5    1    5    5    0  502 -0.48560053198E+02 -0.36971071755E+01  0.37539956301E+02  0.61669163179E+02  0.47000000000E+01 0.  1.
         11    1    6    6    0    0  0.13879990266E+02 -0.84079117377E+02  0.29315136155E+03  0.30528621471E+03  0.00000000000E+00 0. -1.
        -12    1    6    6    0    0 -0.42575245071E+02 -0.87968551997E+02  0.16184580653E+03  0.18906396464E+03  0.00000000000E+00 0.  1.
</event>
<event>
12    1  0.8416569E-002  0.2160582E+03  0.7818608E-02  0.1136918E+00
         21   -1    0    0  503  502  0.00000000000E+00  0.00000000000E+00  0.42609714238E+02  0.42609714238E+02  0.00000000000E+00 0.  1.
         21   -1    0    0  501  503 -0.00000000000E+00 -0.00000000000E+00 -0.12128956972E+04  0.12128956972E+04  0.00000000000E+00 0.  1.
          6    2    1    2  501    0 -0.10495980786E+03 -0.81527981781E+02 -0.78215235415E+03  0.81144527199E+03  0.17034597519E+03 0.  0.
         24    2    3    3    0    0 -0.37133093092E+02 -0.38387779243E+02 -0.64663990876E+03  0.65381515695E+03  0.80489748850E+02 0.  0.
         -6    2    1    2    0  502  0.10495980786E+03  0.81527981781E+02 -0.38813362877E+03  0.44406013940E+03  0.16993622493E+03 0.  0.
        -24    2    5    5    0    0  0.89698755640E+02  0.11972745553E+03 -0.27319319206E+03  0.32189020243E+03  0.81229624264E+02 0.  0.
          5    1    3    3  501    0 -0.67826714767E+02 -0.43140202539E+02 -0.13551244539E+03  0.15763011504E+03  0.47000000000E+01 0. -1.
        -13    1    4    4    0    0 -0.56844697418E+02 -0.60168022485E+01 -0.44364965732E+03  0.44731704637E+03  0.00000000000E+00 0.  1.
         14    1    4    4    0    0  0.19711604326E+02 -0.32370976994E+02 -0.20299025143E+03  0.20649811058E+03  0.00000000000E+00 0. -1.
         -5    1    5    5    0  502  0.15261052218E+02 -0.38199473750E+02 -0.11494043671E+03  0.12216993698E+03  0.47000000000E+01 0.  1.
         11    1    6    6    0    0  0.54739516887E+02  0.10118443201E+03 -0.25195960174E+03  0.27698076630E+03  0.00000000000E+00 0. -1.
        -12    1    6    6    0    0  0.34959238753E+02  0.18543023517E+02 -0.21233590324E+02  0.44909436129E+02  0.00000000000E+00 0.  1.
</event>
<event>
12    1  0.8416569E-002  0.1873047E+03  0.7818608E-02  0.1161264E+00
         21   -1    0    0  503  502  0.00000000000E+00  0.00000000000E+00  0.34040043770E+03  0.34040043770E+03  0.00000000000E+00 0. -1.
         21   -1    0    0  501  503 -0.00000000000E+00 -0.00000000000E+00 -0.15953950365E+03  0.15953950365E+03  0.00000000000E+00 0. -1.
          6    2    1    2  501    0 -0.59557828314E+02 -0.37644780285E+02 -0.59147763059E+02  0.19642173824E+03  0.17354762166E+03 0.  0.
         24    2    3    3    0    0 -0.29807244381E+02 -0.89412873730E+02 -0.51056523144E+02  0.13598506968E+03  0.83678174065E+02 0.  0.
         -6    2    1    2    0  502  0.59557828314E+02  0.37644780285E+02  0.24000869711E+03  0.30351820310E+03  0.17191527137E+03 0.  0.
        -24    2    5    5    0    0  0.10178955328E+03  0.23698461457E+02  0.13230752449E+03  0.18690066160E+03  0.80646426060E+02 0.  0.
          5    1    3    3  501    0 -0.29750583933E+02  0.51768093445E+02 -0.80912399154E+01  0.60436668561E+02  0.47000000000E+01 0. -1.
        -13    1    4    4    0    0  0.23588714036E+02 -0.45833508609E+02 -0.23716248833E+01  0.51601962616E+02  0.00000000000E+00 0.  1.
         14    1    4    4    0    0 -0.53395958416E+02 -0.43579365122E+02 -0.48684898260E+02  0.84383107067E+02  0.00000000000E+00 0. -1.
         -5    1    5    5    0  502 -0.42231724970E+02  0.13946318828E+02  0.10770117261E+03  0.11661754150E+03  0.47000000000E+01 0.  1.
         13    1    6    6    0    0  0.61756704305E+02  0.45408533944E+02  0.11495019838E+03  0.13816429926E+03  0.00000000000E+00 0. -1.
        -14    1    6    6    0    0  0.40032848978E+02 -0.21710072486E+02  0.17357326112E+02  0.48736362343E+02  0.00000000000E+00 0.  1.
</event>
<event>
12    1  0.8416569E-002  0.2161878E+03  0.7818608E-02  0.1136815E+00
         21   -1    0    0  503  502  0.00000000000E+00  0.00000000000E+00  0.44449073369E+03  0.44449073369E+03  0.00000000000E+00 0.  1.
         21   -1    0    0  501  503 -0.00000000000E+00 -0.00000000000E+00 -0.14442888036E+03  0.14442888036E+03  0.00000000000E+00 0. -1.
          6    2    1    2  501    0 -0.13032004910E+03 -0.10830910273E+02 -0.37429245433E+01  0.21622017005E+03  0.17215263180E+03 0.  0.
         24    2    3    3    0    0 -0.22956913677E+02 -0.17384623484E+02  0.47386862439E+02  0.97030660771E+02  0.79625306145E+02 0.  0.
         -6    2    1    2    0  502  0.13032004910E+03  0.10830910273E+02  0.30380477788E+03  0.37269944400E+03  0.17177575115E+03 0.  0.
        -24    2    5    5    0    0  0.11946282625E+02  0.15402517287E+02  0.60151126895E+02  0.10173369005E+03  0.79697141833E+02 0.  0.
          5    1    3    3  501    0 -0.10736313542E+03  0.65537132106E+01 -0.51129786982E+02  0.11918950927E+03  0.47000000000E+01 0. -1.
        -13    1    4    4    0    0  0.17427584979E+02 -0.19737560084E+02 -0.88302556584E+01  0.27771665619E+02  0.00000000000E+00 0.  1.
         14    1    4    4    0    0 -0.40384498656E+02  0.23529366001E+01  0.56217118098E+02  0.69258995152E+02  0.00000000000E+00 0. -1.
         -5    1    5    5    0  502  0.11837376647E+03 -0.45716070141E+01  0.24365365098E+03  0.27096575396E+03  0.47000000000E+01 0.  1.
         13    1    6    6    0    0  0.38096562886E+02  0.24402846003E+02  0.58602659451E+02  0.74034577675E+02  0.00000000000E+00 0. -1.
        -14    1    6    6    0    0 -0.26150280261E+02 -0.90003287153E+01  0.15484674441E+01  0.27699112371E+02  0.00000000000E+00 0.  1.
</event>
<event>
12    1  0.8416569E-002  0.1764111E+03  0.7818608E-02  0.1171531E+00
         21   -1    0    0  501  502  0.00000000000E+00  0.00000000000E+00  0.82779498680E+02  0.82779498680E+02  0.00000000000E+00 0. -1.
         21   -1    0    0  502  503 -0.00000000000E+00 -0.00000000000E+00 -0.41267699096E+03  0.41267699096E+03  0.00000000000E+00 0. -1.
         -6    2    1    2    0  503  0.24476277598E+02 -0.30900899138E+02 -0.88910212478E+02  0.19679989375E+03  0.17108833556E+03 0.  0.
        -24    2    3    3    0    0 -0.22941509780E+02 -0.12632232925E+02  0.12547110734E+02  0.83231107732E+02  0.78000648247E+02 0.  0.
          6    2    1    2  501    0 -0.24476277598E+02  0.30900899138E+02 -0.24098727980E+03  0.29865659589E+03  0.17195039839E+03 0.  0.
         24    2    5    5    0    0  0.42294890887E+02  0.10521379574E+02 -0.19337605932E+03  0.21402426120E+03  0.80700228266E+02 0.  0.
          5    1    5    5  501    0 -0.66771168485E+02  0.20379519564E+02 -0.47611220487E+02  0.84632334688E+02  0.47000000000E+01 0. -1.
        -11    1    6    6    0    0 -0.11439589211E+02  0.14896141876E+02 -0.70599936566E+01  0.20064963358E+02  0.00000000000E+00 0.  1.
         12    1    6    6    0    0  0.53734480098E+02 -0.43747623020E+01 -0.18631606566E+03  0.19395929784E+03  0.00000000000E+00 0. -1.
         -5    1    3    3    0  503  0.47417787378E+02 -0.18268666214E+02 -0.10145732321E+03  0.11356878602E+03  0.47000000000E+01 0.  1.
         11    1    4    4    0    0 -0.12124251857E+02 -0.92821452000E+01  0.45707436367E+02  0.48190511949E+02  0.00000000000E+00 0. -1.
        -12    1    4    4    0    0 -0.10817257923E+02 -0.33500877246E+01 -0.33160325634E+02  0.35040595783E+02  0.00000000000E+00 0.  1.
</event>
<event>
12    1  0.8416569E-002  0.2696618E+03  0.7818608E-02  0.1101480E+00
         21   -1    0    0  503  502  0.00000000000E+00  0.00000000000E+00  0.41677571616E+02  0.41677571616E+02  0.00000000000E+00 0. -1.
         21   -1    0    0  501  503 -0.00000000000E+00 -0.00000000000E+00 -0.20799212747E+04  0.20799212747E+04  0.00000000000E+00 0.  1.
          6    2    1    2  501    0 -0.14583934187E+03 -0.14796165219E+03 -0.14452314584E+04  0.14701739532E+04  0.17191777147E+03 0.  0.
         24    2    3    3    0    0 -0.42517045475E+02 -0.11735272646E+03 -0.60048016216E+03  0.61856415654E+03  0.80410378932E+02 0.  0.
         -6    2    1    2    0  502  0.14583934187E+03  0.14796165219E+03 -0.59301224466E+03  0.65142489310E+03  0.17184034705E+03 0.  0.
        -24    2    5    5    0    0  0.10250225067E+03  0.31782861225E+02 -0.40354334007E+03  0.42493831348E+03  0.78793916532E+02 0.  0.
          5    1    3    3  501    0 -0.10332229639E+03 -0.30608925729E+02 -0.84475129623E+03  0.85160979665E+03  0.47000000000E+01 0. -1.
        -11    1    4    4    0    0 -0.14473629717E+02 -0.17028452880E+02 -0.29432334409E+03  0.29517060328E+03  0.00000000000E+00 0.  1.
         12    1    4    4    0    0 -0.28043415758E+02 -0.10032427358E+03 -0.30615681807E+03  0.32339355326E+03  0.00000000000E+00 0. -1.
         -5    1    5    5    0  502  0.43337091194E+02  0.11617879096E+03 -0.18946890459E+03  0.22648657962E+03  0.47000000000E+01 0.  1.
         11    1    6    6    0    0  0.22120778265E+02  0.65833740241E+01 -0.15368895597E+02  0.27728552008E+02  0.00000000000E+00 0. -1.
        -12    1    6    6    0    0  0.80381472410E+02  0.25199487201E+02 -0.38817444448E+03  0.39720976147E+03  0.00000000000E+00 0.  1.
</event>
<event>
12    1  0.8416569E-002  0.3607246E+03  0.7818608E-02  0.1058403E+00
         21   -1    0    0  503  502  0.00000000000E+00  0.00000000000E+00  0.23694987175E+03  0.23694987175E+03  0.00000000000E+00 0. -1.
         21   -1    0    0  501  503 -0.00000000000E+00 -0.00000000000E+00 -0.65039140157E+03  0.65039140157E+03  0.00000000000E+00 0.  1.
          6    2    1    2  501    0 -0.20973437559E+02  0.31621451499E+03 -0.38342355799E+03  0.52643695564E+03  0.17231000804E+03 0.  0.
         24    2    3    3    0    0  0.18695298697E+02  0.99015703109E+02 -0.20748527487E+03  0.24408026281E+03  0.79821123468E+02 0.  0.
         -6    2    1    2    0  502  0.20973437559E+02 -0.31621451499E+03 -0.30017971835E+02  0.36090431768E+03  0.17005688258E+03 0.  0.
        -24    2    5    5    0    0 -0.46214384372E+02 -0.11933261306E+03 -0.23780253932E+02  0.15272726359E+03  0.79900404906E+02 0.  0.
          5    1    3    3  501    0 -0.39668736256E+02  0.21719881188E+03 -0.17593828312E+03  0.28235669283E+03  0.47000000000E+01 0. -1.
        -13    1    4    4    0    0 -0.18200406012E+02 -0.36290585679E+01 -0.41544979844E+02  0.45501760354E+02  0.00000000000E+00 0.  1.
         14    1    4    4    0    0  0.36895704708E+02  0.10264476168E+03 -0.16594029502E+03  0.19857850246E+03  0.00000000000E+00 0. -1.
         -5    1    5    5    0  502  0.67187821931E+02 -0.19688190193E+03 -0.62377179029E+01  0.20817705409E+03  0.47000000000E+01 0.  1.
         13    1    6    6    0    0 -0.55198003977E+02 -0.69788172973E+02  0.13605953326E+02  0.90012947379E+02  0.00000000000E+00 0. -1.
        -14    1    6    6    0    0  0.89836196049E+01 -0.49544440086E+02 -0.37386207258E+02  0.62714316210E+02  0.00000000000E+00 0.  1.
</event>
<event>
12    1  0.8416569E-002  0.2194652E+03  0.7818608E-02  0.1134720E+00
         21   -1    0    0  503  502  0.00000000000E+00  0.00000000000E+00  0.16706212267E+03  0.16706212267E+03  0.00000000000E+00 0.  1.
         21   -1    0    0  501  503 -0.00000000000E+00 -0.00000000000E+00 -0.49542084937E+03  0.49542084937E+03  0.00000000000E+00 0.  1.
          6    2    1    2  501    0 -0.11643421463E+03 -0.62217023555E+02 -0.38042496516E+03  0.43919029619E+03  0.17531992983E+03 0.  0.
         24    2    3    3    0    0  0.12679520953E+02 -0.37938446036E+02 -0.15127666041E+03  0.17501073299E+03  0.78383880601E+02 0.  0.
         -6    2    1    2    0  502  0.11643421463E+03  0.62217023555E+02  0.52066238455E+02  0.22329267584E+03  0.17239733624E+03 0.  0.
        -24    2    5    5    0    0  0.74137983228E+02 -0.87293710640E+01 -0.22089895811E+02  0.11219099112E+03  0.80784977033E+02 0.  0.
          5    1    3    3  501    0 -0.12911373558E+03 -0.24278577519E+02 -0.22914830475E+03  0.26417956320E+03  0.47000000000E+01 0. -1.
        -13    1    4    4    0    0 -0.19042351787E+02 -0.14572728758E+02 -0.12586342318E+03  0.12812719024E+03  0.00000000000E+00 0.  1.
         14    1    4    4    0    0  0.31721872740E+02 -0.23365717278E+02 -0.25413237229E+02  0.46883542747E+02  0.00000000000E+00 0. -1.
         -5    1    5    5    0  502  0.42296231402E+02  0.70946394619E+02  0.74156134266E+02  0.11110168473E+03  0.47000000000E+01 0.  1.
         13    1    6    6    0    0  0.32915937122E+02 -0.31140084884E+02  0.19652678742E+02  0.49390197255E+02  0.00000000000E+00 0. -1.
        -14    1    6    6    0    0  0.41222046107E+02  0.22410713820E+02 -0.41742574553E+02  0.62800793860E+02  0.00000000000E+00 0.  1.
</event>
<event>
12    1  0.8416569E-002  0.2534803E+03  0.7818608E-02  0.1112590E+00
         21   -1    0    0  501  502  0.00000000000E+00  0.00000000000E+00  0.43990786989E+03  0.43990786989E+03  0.00000000000E+00 0.  1.
         21   -1    0    0  502  503 -0.00000000000E+00 -0.00000000000E+00 -0.18887529154E+03  0.18887529154E+03  0.00000000000E+00 0. -1.
         -6    2    1    2    0  503  0.94270427385E+02 -0.14502673608E+03 -0.31381773033E+02  0.25541554745E+03  0.18529063264E+03 0.  0.
        -24    2    3    3    0    0 -0.16393487860E+02 -0.44295794512E+02 -0.47605967612E+02  0.10482159267E+03  0.80562859200E+02 0.  0.
          6    2    1    2  501    0 -0.94270427385E+02  0.14502673608E+03  0.28241435138E+03  0.37336761397E+03  0.17241183729E+03 0.  0.
         24    2    5    5    0    0 -0.11924877446E+03  0.15777107537E+03  0.23682245700E+03  0.31963636757E+03  0.83489813147E+02 0.  0.
          5    1    5    5  501    0  0.24978347077E+02 -0.12744339291E+02  0.45591894378E+02  0.53731246399E+02  0.47000000000E+01 0. -1.
        -11    1    6    6    0    0 -0.29572917947E+02  0.75603206770E+02  0.14877998084E+03  0.16948712355E+03  0.00000000000E+00 0.  1.
         12    1    6    6    0    0 -0.89675856515E+02  0.82167868600E+02  0.88042476163E+02  0.15014924402E+03  0.00000000000E+00 0. -1.
         -5    1    3    3    0  503  0.11066391524E+03 -0.10073094157E+03  0.16224194580E+02  0.15059395478E+03  0.47000000000E+01 0.  1.
         13    1    4    4    0    0  0.22744805211E+02 -0.43330405989E+02 -0.88463740002E+01  0.49730358738E+02  0.00000000000E+00 0. -1.
        -14    1    4    4    0    0 -0.39138293071E+02 -0.96538852289E+00 -0.38759593612E+02  0.55091233935E+02  0.00000000000E+00 0.  1.
</event>
<event>
12    1  0.8416569E-002  0.1820266E+03  0.7818608E-02  0.1165963E+00
         21   -1    0    0  501  502  0.00000000000E+00  0.00000000000E+00  0.99086804505E+02  0.99086804505E+02  0.00000000000E+00 0.  1.
         21   -1    0    0  502  503 -0.00000000000E+00 -0.00000000000E+00 -0.55357918551E+03  0.55357918551E+03  0.00000000000E+00 0.  1.
         -6    2    1    2    0  503 -0.60266437708E+01 -0.60353466883E+02 -0.43314155784E+03  0.46983538300E+03  0.17162405598E+03 0.  0.
        -24    2    3    3    0    0  0.47118131119E+01  0.16118429472E+02 -0.10565570219E+03  0.13333524772E+03  0.79581127970E+02 0.  0.
          6    2    1    2  501    0  0.60266437708E+01  0.60353466883E+02 -0.21350823158E+02  0.18283060701E+03  0.17114996877E+03 0.  0.
         24    2    5    5    0    0 -0.30994697789E+02  0.94030539410E+02  0.28075986507E+01  0.12705924976E+03  0.79584902510E+02 0.  0.
          5    1    5    5  501    0  0.37021341560E+02 -0.33677072527E+02 -0.24158421809E+02  0.55771357247E+02  0.47000000000E+01 0. -1.
        -13    1    6    6    0    0  0.18954356613E+02  0.66208432432E+02 -0.63309585834E+01  0.69158551143E+02  0.00000000000E+00 0.  1.
         14    1    6    6    0    0 -0.49949054402E+02  0.27822106978E+02  0.91385572341E+01  0.57900698620E+02  0.00000000000E+00 0. -1.
         -5    1    3    3    0  503 -0.10738456883E+02 -0.76471896355E+02 -0.32748585566E+03  0.33650013528E+03  0.47000000000E+01 0.  1.
         13    1    4    4    0    0  0.23004654653E+02  0.58588175296E+01  0.18422552777E+01  0.23810371333E+02  0.00000000000E+00 0. -1.
        -14    1    4    4    0    0 -0.18292841541E+02  0.10259611943E+02 -0.10749795746E+03  0.10952487639E+03  0.00000000000E+00 0.  1.
</event>
<event>
12    1  0.8416569E-002  0.2071492E+03  0.7818608E-02  0.1144173E+00
         21   -1    0    0  501  502  0.00000000000E+00  0.00000000000E+00  0.18100964095E+03  0.18100964095E+03  0.00000000000E+00 0. -1.
         21   -1    0    0  502  503 -0.00000000000E+00 -0.00000000000E+00 -0.27422137718E+03  0.27422137718E+03  0.00000000000E+00 0. -1.
         -6    2    1    2    0  503 -0.24080061284E+02  0.11057614049E+03  0.39409358707E+02  0.20926524273E+03  0.17155731423E+03 0.  0.
        -24    2    3    3    0    0  0.22199608318E+02  0.67450007162E+02  0.81188878559E+02  0.13330940377E+03  0.78341796350E+02 0.  0.
          6    2    1    2  501    0  0.24080061284E+02 -0.11057614049E+03 -0.13262109494E+03  0.24596577539E+03  0.17350468479E+03 0.  0.
         24    2    5    5    0    0  0.47164976983E+02 -0.33687733488E+02 -0.10428392826E+02  0.99685609564E+02  0.80430534848E+02 0.  0.
          5    1    5    5  501    0 -0.23084915698E+02 -0.76888407002E+02 -0.12219270212E+03  0.14628016583E+03  0.47000000000E+01 0. -1.
        -13    1    6    6    0    0 -0.19807719481E+02 -0.56723605552E+01 -0.17110888706E+02  0.26782530456E+02  0.00000000000E+00 0.  1.
         14    1    6    6    0    0  0.66972696464E+02 -0.28015372933E+02  0.66824958804E+01  0.72903079108E+02  0.00000000000E+00 0. -1.
         -5    1    3    3    0  503 -0.46279669603E+02  0.43126133328E+02 -0.41779519852E+02  0.75955838968E+02  0.47000000000E+01 0.  1.
         11    1    4    4    0    0 -0.20396543756E+02  0.78198437936E+00  0.38097585879E+02  0.43221019731E+02  0.00000000000E+00 0. -1.
        -12    1    4    4    0    0  0.42596152075E+02  0.66668022783E+02  0.43091292679E+02  0.90088384036E+02  0.00000000000E+00 0.  1.
</event>
<event>
12    1  0.8416569E-002  0.2427366E+03  0.7818608E-02  0.1118108E+00
         21   -1    0    0  503  502  0.00000000000E+00  0.00000000000E+00  0.10459165644E+03  0.10459165644E+03  0.00000000000E+00 0.  1.
         21   -1    0    0  501  503 -0.00000000000E+00 -0.00000000000E+00 -0.78777211996E+03  0.78777211996E+03  0.00000000000E+00 0.  1.
          6    2    1    2  501    0 -0.56575321519E+01 -0.17057743577E+03 -0.10212186900E+03  0.26264149893E+03  0.17153137197E+03 0.  0.
         24    2    3    3    0    0  0.26180783380E+02 -0.11336274941E+03  0.28208615021E+00  0.14100327015E+03  0.79657367814E+02 0.  0.
         -6    2    1    2    0  502  0.56575321519E+01  0.17057743577E+03 -0.58105859451E+03  0.62972227747E+03  0.17260471377E+03 0.  0.
        -24    2    5    5    0    0  0.70410454998E+02  0.10483428079E+03 -0.32709292073E+03  0.35947099273E+03  0.79257537293E+02 0.  0.
          5    1    3    3  501    0 -0.31838315532E+02 -0.57214686357E+02 -0.10240395515E+03  0.12163822878E+03  0.47000000000E+01 0. -1.
        -13    1    4    4    0    0  0.17776280246E+02 -0.96450751018E+02 -0.32373454924E+02  0.10328012440E+03  0.00000000000E+00 0.  1.
         14    1    4    4    0    0  0.84045031339E+01 -0.16911998393E+02  0.32655541074E+02  0.37723145751E+02  0.00000000000E+00 0. -1.
         -5    1    5    5    0  502 -0.64752922846E+02  0.65743154978E+02 -0.25396567378E+03  0.27025128474E+03  0.47000000000E+01 0.  1.
         11    1    6    6    0    0 -0.17206965555E+02  0.13270573002E+02 -0.37093182032E+02  0.42989439688E+02  0.00000000000E+00 0. -1.
        -12    1    6    6    0    0  0.87617420553E+02  0.91563707787E+02 -0.28999973870E+03  0.31648155304E+03  0.00000000000E+00 0.  1.
</event>
<event>
12    1  0.8416569E-002  0.2271971E+03  0.7818608E-02  0.1128812E+00
         21   -1    0    0  501  502  0.00000000000E+00  0.00000000000E+00  0.44530535657E+03  0.44530535657E+03  0.00000000000E+00 0. -1.
         21   -1    0    0  502  503 -0.00000000000E+00 -0.00000000000E+00 -0.15497570647E+03  0.15497570647E+03  0.00000000000E+00 0.  1.
         -6    2    1    2    0  503  0.17877027110E+02  0.14681341354E+03 -0.67634119369E+01  0.22627197894E+03  0.17111253087E+03 0.  0.
        -24    2    3    3    0    0 -0.36893880011E+02  0.14648960002E+03 -0.13167973471E+02  0.17092701051E+03  0.78881468675E+02 0.  0.
          6    2    1    2  501    0 -0.17877027110E+02 -0.14681341354E+03  0.29709306204E+03  0.37400908409E+03  0.17246663730E+03 0.  0.
         24    2    5    5    0    0 -0.63208885267E+02 -0.89758948123E+02  0.25543527384E+03  0.28993976326E+03  0.82254819032E+02 0.  0.
          5    1    5    5  501    0  0.45331858157E+02 -0.57054465415E+02  0.41657788195E+02  0.84069320831E+02  0.47000000000E+01 0. -1.
        -11    1    6    6    0    0 -0.17498710233E+02 -0.77715990095E+02  0.10220102465E+03  0.12958020457E+03  0.00000000000E+00 0.  1.
         12    1    6    6    0    0 -0.45710175034E+02 -0.12042958028E+02  0.15323424919E+03  0.16035955870E+03  0.00000000000E+00 0. -1.
         -5    1    3    3    0  503  0.54770907122E+02  0.32381351933E+00  0.64045615345E+01  0.55344968430E+02  0.47000000000E+01 0.  1.
         11    1    4    4    0    0 -0.33798639716E+02  0.17839393448E+02  0.11470981579E+02  0.39902072924E+02  0.00000000000E+00 0. -1.
        -12    1    4    4    0    0 -0.30952402949E+01  0.12865020657E+03 -0.24638955050E+02  0.13102493758E+03  0.00000000000E+00 0.  1.
</event>
<event>
12    1  0.8416569E-002  0.1842445E+03  0.7818608E-02  0.1165250E+00
         21   -1    0    0  503  502  0.00000000000E+00  0.00000000000E+00  0.28921995805E+03  0.28921995805E+03  0.00000000000E+00 0.  1.
         21   -1    0    0  501  503 -0.00000000000E+00 -0.00000000000E+00 -0.19972776651E+03  0.19972776651E+03  0.00000000000E+00 0.  1.
          6    2    1    2  501    0  0.46204982587E+02 -0.48291714303E+01 -0.11550401270E+03  0.21745620875E+03  0.17829134714E+03 0.  0.
         24    2    3    3    0    0  0.15392859259E+02 -0.73382356129E+02 -0.64191653431E+02  0.12633006382E+03  0.78846726933E+02 0.  0.
         -6    2    1    2    0  502 -0.46204982587E+02  0.48291714303E+01  0.20499620424E+03  0.27149151581E+03  0.17183124888E+03 0.  0.
        -24    2    5    5    0    0 -0.37432903847E+02 -0.61200723246E+02  0.14310615047E+03  0.18044556525E+03  0.83273530620E+02 0.  0.
          5    1    3    3  501    0  0.30812123328E+02  0.68553184699E+02 -0.51312359265E+02  0.91126144929E+02  0.47000000000E+01 0. -1.
        -13    1    4    4    0    0  0.35721085434E+02 -0.14753265964E+02 -0.49067710717E+02  0.62460347711E+02  0.00000000000E+00 0.  1.
         14    1    4    4    0    0 -0.20328226175E+02 -0.58629090165E+02 -0.15123942713E+02  0.63869716111E+02  0.00000000000E+00 0. -1.
         -5    1    5    5    0  502 -0.87720787398E+01  0.66029894676E+02  0.61890053774E+02  0.91045950555E+02  0.47000000000E+01 0.  1.
         13    1    6    6    0    0 -0.14971102868E+02 -0.15555321195E+02 -0.64025212930E+01  0.22518752574E+02  0.00000000000E+00 0. -1.
        -14    1    6    6    0    0 -0.22461800979E+02 -0.45645402050E+02  0.14950867176E+03  0.15792681268E+03  0.00000000000E+00 0.  1.
</event>
<event>
12    1  0.8416569E-002  0.2097119E+03  0.7818608E-02  0.1142386E+00
         21   -1    0    0  501  502  0.00000000000E+00  0.00000000000E+00  0.11753415973E+04  0.11753415973E+04  0.00000000000E+00 0.  1.
         21   -1    0    0  502  503 -0.00000000000E+00 -0.00000000000E+00 -0.37390214015E+02  0.37390214015E+02  0.00000000000E+00 0.  1.
         -6    2    1    2    0  503  0.11456079868E+03  0.15275434286E+02  0.63499657097E+03  0.66780740129E+03  0.17143093240E+03 0.  0.
        -24    2    3    3    0    0  0.40452178375E+02  0.70618447438E+02  0.33003418525E+03  0.34909266456E+03  0.79497051248E+02 0.  0.
          6    2    1    2  501    0 -0.11456079868E+03 -0.15275434286E+02  0.50295481230E+03  0.54492441001E+03  0.17499015379E+03 0.  0.
         24    2    5    5    0    0 -0.66801498061E+02  0.28662962298E+02  0.44565217579E+03  0.45822253205E+03  0.77961667142E+02 0.  0.
          5    1    5    5  501    0 -0.47759300624E+02 -0.43938396584E+02  0.57302636511E+02  0.86701877959E+02  0.47000000000E+01 0. -1.
        -11    1    6    6    0    0 -0.24025224223E+02 -0.24930266519E+02  0.20852579767E+03  0.21138055228E+03  0.00000000000E+00 0.  1.
         12    1    6    6    0    0 -0.42776273838E+02  0.53593228817E+02  0.23712637812E+03  0.24684197977E+03  0.00000000000E+00 0. -1.
         -5    1    3    3    0  503  0.74108620310E+02 -0.55343013152E+02  0.30496238571E+03  0.31871473673E+03  0.47000000000E+01 0.  1.
         11    1    4    4    0    0 -0.41137646347E+01 -0.15452210081E+02  0.33509230357E+02  0.37128996418E+02  0.00000000000E+00 0. -1.
        -12    1    4    4    0    0  0.44565943010E+02  0.86070657519E+02  0.29652495490E+03  0.31196366814E+03  0.00000000000E+00 0.  1.
</event>
<event>
12    1  0.8416569E-002  0.2567097E+03  0.7818608E-02  0.1109159E+00
         21   -1    0    0  501  502  0.00000000000E+00  0.00000000000E+00  0.47319575957E+03  0.47319575957E+03  0.00000000000E+00 0.  1.
         21   -1    0    0  502  503 -0.00000000000E+00 -0.00000000000E+00 -0.13989692962E+03  0.13989692962E+03  0.00000000000E+00 0. -1.
         -6    2    1    2    0  503 -0.19249096969E+02  0.18920809981E+03  0.14474980096E+03  0.29457956904E+03  0.17220448557E+03 0.  0.
        -24    2    3    3    0    0  0.25832584389E+02  0.66333853613E+02  0.11863909115E+03  0.16103445479E+03  0.82397567502E+02 0.  0.
          6    2    1    2  501    0  0.19249096969E+02 -0.18920809981E+03  0.18854902900E+03  0.31851312014E+03  0.17242284825E+03 0.  0.
         24    2    5    5    0    0 -0.26568575368E+02 -0.15109196395E+03  0.69919047883E+02  0.18567012510E+03  0.77782075907E+02 0.  0.
          5    1    5    5  501    0  0.45817672337E+02 -0.38116135865E+02  0.11862998112E+03  0.13284299504E+03  0.47000000000E+01 0. -1.
        -11    1    6    6    0    0 -0.43306475965E+02 -0.81907541765E+02  0.67167261829E+02  0.11443660830E+03  0.00000000000E+00 0.  1.
         12    1    6    6    0    0  0.16737900598E+02 -0.69184422182E+02  0.27517860544E+01  0.71233516799E+02  0.00000000000E+00 0. -1.
         -5    1    3    3    0  503 -0.45081681358E+02  0.12287424620E+03  0.26110709805E+02  0.13354511425E+03  0.47000000000E+01 0.  1.
         13    1    4    4    0    0 -0.14327988713E+02  0.66752570627E+02  0.67477295396E+02  0.95991574317E+02  0.00000000000E+00 0. -1.
        -14    1    4    4    0    0  0.40160573102E+02 -0.41871701408E+00  0.51161795754E+02  0.65042880476E+02  0.00000000000E+00 0.  1.
</event>
<event>
12    1  0.8416569E-002  0.1914982E+03  0.7818608E-02  0.1157126E+00
         21   -1    0    0  501  502  0.00000000000E+00  0.00000000000E+00  0.11824983139E+03  0.11824983139E+03  0.00000000000E+00 0. -1.
         21   -1    0    0  502  503 -0.00000000000E+00 -0.00000000000E+00 -0.32824449244E+03  0.32824449244E+03  0.00000000000E+00 0. -1.
         -6    2    1    2    0  503 -0.69234386562E+02  0.46807443560E+02 -0.52450385776E+02  0.19855128787E+03  0.17229983718E+03 0.  0.
        -24    2    3    3    0    0 -0.29549679120E+00 -0.14702275218E+02 -0.65861883949E+02  0.10507415532E+03  0.80539096991E+02 0.  0.
          6    2    1    2  501    0  0.69234386562E+02 -0.46807443560E+02 -0.15754427528E+03  0.24794303596E+03  0.17225334062E+03 0.  0.
         24    2    5    5    0    0  0.45999444010E+02  0.97142179504E+01 -0.15089841433E+02  0.92862680993E+02  0.78647691175E+02 0.  0.
          5    1    5    5  501    0  0.23234942551E+02 -0.56521661511E+02 -0.14245443384E+03  0.15508035497E+03  0.47000000000E+01 0. -1.
        -13    1    6    6    0    0  0.24136415287E+01 -0.30024427099E+02 -0.15508217266E+02  0.33879148319E+02  0.00000000000E+00 0.  1.
         14    1    6    6    0    0  0.43585802482E+02  0.39738645050E+02  0.41837583270E+00  0.58983532674E+02  0.00000000000E+00 0. -1.
         -5    1    3    3    0  503 -0.68938889770E+02  0.61509718778E+02  0.13411498173E+02  0.93477132552E+02  0.47000000000E+01 0.  1.
         13    1    4    4    0    0 -0.23485624875E+02  0.15841041463E+02  0.60761477121E+00  0.28335178950E+02  0.00000000000E+00 0. -1.
        -14    1    4    4    0    0  0.23190128084E+02 -0.30543316681E+02 -0.66469498720E+02  0.76738976371E+02  0.00000000000E+00 0.  1.
</event>
<event>
12    1  0.8416569E-002  0.2104910E+03  0.7818608E-02  0.1141359E+00
         21   -1    0    0  503  502  0.00000000000E+00  0.00000000000E+00  0.67341662944E+03  0.67341662944E+03  0.00000000000E+00 0. -1.
         21   -1    0    0  501  503 -0.00000000000E+00 -0.00000000000E+00 -0.27253419198E+03  0.27253419198E+03  0.00000000000E+00 0.  1.
          6    2    1    2  501    0 -0.11599479626E+03  0.33448905571E+02 -0.21189611896E+03  0.29802796505E+03  0.17130989662E+03 0.  0.
         24    2    3    3    0    0 -0.10715346677E+03  0.81147666503E+02 -0.18740098381E+03  0.24348034780E+03  0.78081635571E+02 0.  0.
         -6    2    1    2    0  502  0.11599479626E+03 -0.33448905571E+02  0.61277855643E+03  0.64792285637E+03  0.17243215055E+03 0.  0.
        -24    2    5    5    0    0  0.21405654280E+02 -0.65820592635E+02  0.38392575253E+03  0.39814149646E+03  0.79543166264E+02 0.  0.
          5    1    3    3  501    0 -0.88413294961E+01 -0.47698760932E+02 -0.24495135147E+02  0.54547617249E+02  0.47000000000E+01 0. -1.
        -11    1    4    4    0    0  0.62611455661E+01  0.24834171175E+02 -0.15362455112E+02  0.29865415263E+02  0.00000000000E+00 0.  1.
         12    1    4    4    0    0 -0.11341461233E+03  0.56313495328E+02 -0.17203852870E+03  0.21361493254E+03  0.00000000000E+00 0. -1.
         -5    1    5    5    0  502  0.94589141983E+02  0.32371687065E+02  0.22885280390E+03  0.24978135991E+03  0.47000000000E+01 0.  1.
         13    1    6    6    0    0  0.46855760891E+02 -0.18320876932E+02  0.15507837679E+03  0.16303502632E+03  0.00000000000E+00 0. -1.
        -14    1    6    6    0    0 -0.25450106611E+02 -0.47499715704E+02  0.22884737573E+03  0.23510647013E+03  0.00000000000E+00 0.  1.
</event>
<event>
12    1  0.8416569E-002  0.1935535E+03  0.7818608E-02  0.1155691E+00
         21   -1    0    0  501  502  0.00000000000E+00  0.00000000000E+00  0.30498649894E+03  0.30498649894E+03  0.00000000000E+00 0.  1.
         21   -1    0    0  502  503 -0.00000000000E+00 -0.00000000000E+00 -0.14252642021E+03  0.14252642021E+03  0.00000000000E+00 0.  1.
         -6    2    1    2    0  503 -0.85844256225E+02 -0.12949025440E+02 -0.46206842199E+01  0.19181990005E+03  0.17098716252E+03 0.  0.
        -24    2    3    3    0    0 -0.17773142421E+02 -0.65880621929E+02  0.86489056744E+01  0.10444941043E+03  0.78604928800E+02 0.  0.
          6    2    1    2  501    0  0.85844256225E+02  0.12949025440E+02  0.16708076294E+03  0.25569301910E+03  0.17299140177E+03 0.  0.
         24    2    5    5    0    0 -0.63313664749E+00 -0.39538472854E+02  0.74183122360E+02  0.11826908166E+03  0.83191035193E+02 0.  0.
          5    1    5    5  501    0  0.86477392873E+02  0.52487498294E+02  0.92897640585E+02  0.13742393744E+03  0.47000000000E+01 0. -1.
        -13    1    6    6    0    0  0.29394853370E+02  0.16046151744E+01  0.57625996217E+02  0.64710027310E+02  0.00000000000E+00 0.  1.
         14    1    6    6    0    0 -0.30027990017E+02 -0.41143088029E+02  0.16557126143E+02  0.53559054352E+02  0.00000000000E+00 0. -1.
         -5    1    3    3    0  503 -0.68071113804E+02  0.52931596489E+02 -0.13269589894E+02  0.87370489625E+02  0.47000000000E+01 0.  1.
         13    1    4    4    0    0 -0.10278540664E+02 -0.67171447444E+01  0.36587643827E+02  0.38593057827E+02  0.00000000000E+00 0. -1.
        -14    1    4    4    0    0 -0.74946017575E+01 -0.59163477184E+02 -0.27938738152E+02  0.65856352599E+02  0.00000000000E+00 0.  1.
</event>
<event>
12    1  0.8416569E-002  0.1904968E+03  0.7818608E-02  0.1158141E+00
         21   -1    0    0  501  502  0.00000000000E+00  0.00000000000E+00  0.84871714690E+02  0.84871714690E+02  0.00000000000E+00 0.  1.
         21   -1    0    0  502  503 -0.00000000000E+00 -0.00000000000E+00 -0.89233974324E+03  0.89233974324E+03  0.00000000000E+00 0. -1.
         -6    2    1    2    0  503  0.65994735121E+02 -0.50100656966E+02 -0.75655048568E+03  0.78002721558E+03  0.17090476519E+03 0.  0.
        -24    2    3    3    0    0  0.29025420711E+02 -0.96815130805E+02 -0.48046633691E+03  0.49754974838E+03  0.80574230404E+02 0.  0.
          6    2    1    2  501    0 -0.65994735121E+02  0.50100656966E+02 -0.50917542869E+02  0.19718424235E+03  0.17153322817E+03 0.  0.
         24    2    5    5    0    0 -0.45182075118E+02  0.34504599754E+02  0.37380477742E+02  0.10501573222E+03  0.79993853391E+02 0.  0.
          5    1    5    5  501    0 -0.20812660003E+02  0.15596057212E+02 -0.88298020611E+02  0.92168510136E+02  0.47000000000E+01 0. -1.
        -13    1    6    6    0    0 -0.12211624262E+02  0.56568751237E+02  0.16468287827E+02  0.60169360040E+02  0.00000000000E+00 0.  1.
         14    1    6    6    0    0 -0.32970450855E+02 -0.22064151483E+02  0.20912189915E+02  0.44846372176E+02  0.00000000000E+00 0. -1.
         -5    1    3    3    0  503  0.36969314410E+02  0.46714473839E+02 -0.27608414877E+03  0.28247746720E+03  0.47000000000E+01 0.  1.
         13    1    4    4    0    0  0.51127136644E+02 -0.31477969550E+02 -0.23891365821E+03  0.24634240956E+03  0.00000000000E+00 0. -1.
        -14    1    4    4    0    0 -0.22101715933E+02 -0.65337161255E+02 -0.24155267870E+03  0.25120733882E+03  0.00000000000E+00 0.  1.
</event>
<event>
12    1  0.8416569E-002  0.1797071E+03  0.7818608E-02  0.1168688E+00
         21   -1    0    0  503  502  0.00000000000E+00  0.00000000000E+00  0.14605794222E+03  0.14605794222E+03  0.00000000000E+00 0.  1.
         21   -1    0    0  501  503 -0.00000000000E+00 -0.00000000000E+00 -0.21847239560E+03  0.21847239560E+03  0.00000000000E+00 0.  1.
          6    2    1    2  501    0 -0.16812392750E+02 -0.42889163565E+02 -0.28328129545E+02  0.17949459000E+03  0.17115398919E+03 0.  0.
         24    2    3    3    0    0  0.70089403406E+01  0.39641563158E+02 -0.22816312934E+02  0.93289909816E+02  0.81005211952E+02 0.  0.
         -6    2    1    2    0  502  0.16812392750E+02  0.42889163565E+02 -0.44086323837E+02  0.18503574782E+03  0.17370229451E+03 0.  0.
        -24    2    5    5    0    0  0.15844111015E+02  0.29463718862E+01  0.40900627087E+02  0.91007900857E+02  0.79686007310E+02 0.  0.
          5    1    3    3  501    0 -0.23821333090E+02 -0.82530726722E+02 -0.55118166106E+01  0.86204680185E+02  0.47000000000E+01 0. -1.
        -13    1    4    4    0    0 -0.35102172078E+02  0.89434356564E+01  0.43340999494E+00  0.36226169687E+02  0.00000000000E+00 0.  1.
         14    1    4    4    0    0  0.42111112419E+02  0.30698127501E+02 -0.23249722929E+02  0.57063740129E+02  0.00000000000E+00 0. -1.
         -5    1    5    5    0  502  0.96828173433E+00  0.39942791678E+02 -0.84986950924E+02  0.94027846960E+02  0.47000000000E+01 0.  1.
         11    1    6    6    0    0 -0.18140471427E+02  0.80289755971E+00 -0.16324647260E+02  0.24417523549E+02  0.00000000000E+00 0. -1.
        -12    1    6    6    0    0  0.33984582443E+02  0.21434743265E+01  0.57225274347E+02  0.66590377308E+02  0.00000000000E+00 0.  1.
</event>
<event>
12    1  0.8416569E-002  0.2262626E+03  0.7818608E-02  0.1129299E+00
         21   -1    0    0  501  502  0.00000000000E+00  0.00000000000E+00  0.56074919111E+02  0.56074919111E+02  0.00000000000E+00 0. -1.
         21   -1    0    0  502  503 -0.00000000000E+00 -0.00000000000E+00 -0.18322630384E+04  0.18322630384E+04  0.00000000000E+00 0.  1.
         -6    2    1    2    0  503 -0.14024288783E+03 -0.46400030575E+02 -0.21930570846E+03  0.31510002622E+03  0.17138261971E+03 0.  0.
        -24    2    3    3    0    0 -0.12712153986E+03  0.75382372993E+00 -0.85002834483E+02  0.17207902180E+03  0.78900277096E+02 0.  0.
          6    2    1    2  501    0  0.14024288783E+03  0.46400030575E+02 -0.15568824108E+04  0.15732379312E+04  0.17138762168E+03 0.  0.
         24    2    5    5    0    0  0.13496539486E+03  0.90788414523E+02 -0.12938937985E+04  0.13064359809E+04  0.78457734768E+02 0.  0.
          5    1    5    5  501    0  0.52774929691E+01 -0.44388383948E+02 -0.26298861225E+03  0.26680195039E+03  0.47000000000E+01 0. -1.
        -13    1    6    6    0    0  0.70377364553E+02  0.50656918666E+02 -0.39881102573E+03  0.40812906181E+03  0.00000000000E+00 0.  1.
         14    1    6    6    0    0  0.64588030309E+02  0.40131495858E+02 -0.89508277282E+03  0.89830691905E+03  0.00000000000E+00 0. -1.
         -5    1    3    3    0  503 -0.13121347969E+02 -0.47153854305E+02 -0.13430287397E+03  0.14302100442E+03  0.47000000000E+01 0.  1.
         11    1    4    4    0    0 -0.69874513647E+02  0.37987654432E+02 -0.32406518900E+02  0.85881849153E+02  0.00000000000E+00 0. -1.
        -12    1    4    4    0    0 -0.57247026215E+02 -0.37233830702E+02 -0.52596315583E+02  0.86197172646E+02  0.00000000000E+00 0.  1.
</event>
<event>
12    1  0.8416569E-002  0.2369113E+03  0.7818608E-02  0.1121871E+00
         21   -1    0    0  501  502  0.00000000000E+00  0.00000000000E+00  0.10459097779E+03  0.10459097779E+03  0.00000000000E+00 0.  1.
         21   -1    0    0  502  503 -0.00000000000E+00 -0.00000000000E+00 -0.82253043607E+03  0.82253043607E+03  0.00000000000E+00 0.  1.
         -6    2    1    2    0  503 -0.10231184870E+03  0.12590307350E+03 -0.63229966095E+03  0.67522575193E+03  0.17264894015E+03 0.  0.
        -24    2    3    3    0    0 -0.37313638875E+02  0.14283095132E+03 -0.40746960539E+03  0.44053028071E+03  0.79009243807E+02 0.  0.
          6    2    1    2  501    0  0.10231184870E+03 -0.12590307350E+03 -0.85639797325E+02  0.25189566193E+03  0.17262083105E+03 0.  0.
         24    2    5    5    0    0  0.11544172093E+02 -0.69377055715E+02 -0.97227151711E+02  0.14423732001E+03  0.80030254814E+02 0.  0.
          5    1    5    5  501    0  0.90767676608E+02 -0.56526017781E+02  0.11587354386E+02  0.10765834192E+03  0.47000000000E+01 0. -1.
        -11    1    6    6    0    0 -0.10144762224E+02 -0.81202385822E+02 -0.74057274955E+02  0.11036858084E+03  0.00000000000E+00 0.  1.
         12    1    6    6    0    0  0.21688934317E+02  0.11825330107E+02 -0.23169876756E+02  0.33868739169E+02  0.00000000000E+00 0. -1.
         -5    1    3    3    0  503 -0.64998209826E+02 -0.16927877824E+02 -0.22483005556E+03  0.23469547122E+03  0.47000000000E+01 0.  1.
         13    1    4    4    0    0 -0.58331867032E+02  0.73087081067E+02 -0.25356103928E+03  0.27025456291E+03  0.00000000000E+00 0. -1.
        -14    1    4    4    0    0  0.21018228157E+02  0.69743870253E+02 -0.15390856611E+03  0.17027571780E+03  0.00000000000E+00 0.  1.
</event>
<event>
12    1  0.8416569E-002  0.1871688E+03  0.7818608E-02  0.1161676E+00
         21   -1    0    0  503  502  0.00000000000E+00  0.00000000000E+00  0.81918027622E+02  0.81918027622E+02  0.00000000000E+00 0. -1.
         21   -1    0    0  501  503 -0.00000000000E+00 -0.00000000000E+00 -0.80637620517E+03  0.80637620517E+03  0.00000000000E+00 0. -1.
          6    2    1    2  501    0 -0.69596886693E+02 -0.13959240071E+02 -0.67050405323E+03  0.69613780787E+03  0.17318653274E+03 0.  0.
         24    2    3    3    0    0  0.82928395048E+01  0.59940697959E+01 -0.16036457668E+03  0.17967936854E+03  0.80393892577E+02 0.  0.
         -6    2    1    2    0  502  0.69596886693E+02  0.13959240071E+02 -0.53954124318E+02  0.19215642493E+03  0.17021885057E+03 0.  0.
        -24    2    5    5    0    0  0.90378895987E+02  0.52471332773E+02 -0.13667851244E+02  0.13248945758E+03  0.80281134823E+02 0.  0.
          5    1    3    3  501    0 -0.77889726198E+02 -0.19953309867E+02 -0.51013947655E+03  0.51645843933E+03  0.47000000000E+01 0. -1.
        -11    1    4    4    0    0  0.31260945673E+02 -0.23951236151E+02 -0.10933104333E+03  0.11620751039E+03  0.00000000000E+00 0.  1.
         12    1    4    4    0    0 -0.22968106168E+02  0.29945305946E+02 -0.51033533355E+02  0.63471858141E+02  0.00000000000E+00 0. -1.
         -5    1    5    5    0  502 -0.20782009294E+02 -0.38512092702E+02 -0.40286273074E+02  0.59666967350E+02  0.47000000000E+01 0.  1.
         11    1    6    6    0    0  0.20603646748E+02  0.48310050231E+01  0.30523759877E+02  0.37142277608E+02  0.00000000000E+00 0. -1.
        -12    1    6    6    0    0  0.69775249239E+02  0.47640327749E+02 -0.44191611122E+02  0.95347179969E+02  0.00000000000E+00 0.  1.
</event>
<event>
12    1  0.8416569E-002  0.2362921E+03  0.7818608E-02  0.1122522E+00
         21   -1    0    0  501  502  0.00000000000E+00  0.00000000000E+00  0.11156768500E+04  0.11156768500E+04  0.00000000000E+00 0. -1.
         21   -1    0    0  502  503 -0.00000000000E+00 -0.00000000000E+00 -0.68799206848E+02  0.68799206848E+02  0.00000000000E+00 0. -1.
         -6    2    1    2    0  503 -0.98486486384E+02 -0.11771691657E+03  0.21074423375E+03  0.31559571146E+03  0.17785010706E+03 0.  0.
        -24    2    3    3    0    0 -0.23050786042E+02 -0.79222576097E+02  0.62832563491E+02  0.14508966659E+03  0.10146686660E+03 0.  0.
          6    2    1    2  501    0  0.98486486384E+02  0.11771691657E+03  0.83613340939E+03  0.86888034538E+03  0.17965833086E+03 0.  0.
         24    2    5    5    0    0  0.13404306677E+03  0.96866316625E+02  0.56247322032E+03  0.59209341107E+03  0.82751778250E+02 0.  0.
          5    1    5    5  501    0 -0.35556580389E+02  0.20850599949E+02  0.27366018907E+03  0.27678693432E+03  0.47000000000E+01 0. -1.
        -11    1    6    6    0    0  0.10763673120E+02 -0.64008245362E+01  0.82167803926E+01  0.14978073768E+02  0.00000000000E+00 0.  1.
         12    1    6    6    0    0  0.12327939365E+03  0.10326714116E+03  0.55425643993E+03  0.57711533730E+03  0.00000000000E+00 0. -1.
         -5    1    3    3    0  503 -0.75435700343E+02 -0.38494340477E+02  0.14791167026E+03  0.17050604486E+03  0.47000000000E+01 0.  1.
         11    1    4    4    0    0  0.26908939533E+02 -0.64709268570E+02  0.61195096861E+02  0.93038810964E+02  0.00000000000E+00 0. -1.
        -12    1    4    4    0    0 -0.49959725575E+02 -0.14513307527E+02  0.16374666293E+01  0.52050855630E+02  0.00000000000E+00 0.  1.
</event>
<event>
12    1  0.8416569E-002  0.1778439E+03  0.7818608E-02  0.1169908E+00
         21   -1    0    0  503  502  0.00000000000E+00  0.00000000000E+00  0.21747940244E+03  0.21747940244E+03  0.00000000000E+00 0.  1.
         21   -1    0    0  501  503 -0.00000000000E+00 -0.00000000000E+00 -0.17573841570E+03  0.17573841570E+03  0.00000000000E+00 0.  1.
          6    2    1    2  501    0 -0.46443553022E+02  0.78803889312E+01  0.10252312614E+03  0.20527390418E+03  0.17148551017E+03 0.  0.
         24    2    3    3    0    0 -0.58026460005E+02  0.10198704640E+02  0.13739199650E+03  0.16815966914E+03  0.77006687940E+02 0.  0.
         -6    2    1    2    0  502  0.46443553022E+02 -0.78803889312E+01 -0.60782139400E+02  0.18794391396E+03  0.17149152217E+03 0.  0.
        -24    2    5    5    0    0  0.41690779123E+01  0.11559157628E+02 -0.98718249401E+02  0.12772543126E+03  0.80109285917E+02 0.  0.
          5    1    3    3  501    0  0.11582906982E+02 -0.23183157090E+01 -0.34868870364E+02  0.37114235036E+02  0.47000000000E+01 0. -1.
        -11    1    4    4    0    0 -0.24446384818E+02  0.15454226004E+02  0.13025806571E+03  0.13343021590E+03  0.00000000000E+00 0.  1.
         12    1    4    4    0    0 -0.33580075186E+02 -0.52555213634E+01  0.71339307903E+01  0.34729453247E+02  0.00000000000E+00 0. -1.
         -5    1    5    5    0  502  0.42274475110E+02 -0.19439546559E+02  0.37936110001E+02  0.60218482696E+02  0.47000000000E+01 0.  1.
         11    1    6    6    0    0 -0.28156096638E+02  0.29617265959E+02 -0.33982629332E+02  0.53148540122E+02  0.00000000000E+00 0. -1.
        -12    1    6    6    0    0  0.32325174550E+02 -0.18058108331E+02 -0.64735620069E+02  0.74576891139E+02  0.00000000000E+00 0.  1.
</event>
<event>
12    1  0.8416569E-002  0.2183583E+03  0.7818608E-02  0.1135639E+00
         21   -1    0    0  501  502  0.00000000000E+00  0.00000000000E+00  0.44180726660E+03  0.44180726660E+03  0.00000000000E+00 0. -1.
         21   -1    0    0  502  503 -0.00000000000E+00 -0.00000000000E+00 -0.10684776071E+03  0.10684776071E+03  0.00000000000E+00 0. -1.
         -6    2    1    2    0  503  0.11714217220E+03  0.52534119203E+02  0.15413434381E+03  0.26727843574E+03  0.17663024678E+03 0.  0.
        -24    2    3    3    0    0  0.14484187253E+03  0.72757302089E+02  0.14510462871E+03  0.23150307719E+03  0.79155090987E+02 0.  0.
          6    2    1    2  501    0 -0.11714217220E+03 -0.52534119203E+02  0.18082516207E+03  0.28137659157E+03  0.17318465537E+03 0.  0.
         24    2    5    5    0    0 -0.14435020685E+03 -0.49156466075E+02  0.18494092531E+03  0.25325693302E+03  0.81747097132E+02 0.  0.
          5    1    5    5  501    0  0.27208034652E+02 -0.33776531278E+01 -0.41157632392E+01  0.28119658556E+02  0.47000000000E+01 0. -1.
        -11    1    6    6    0    0 -0.52839704685E+02 -0.11156969047E+02  0.12811458119E+03  0.13903186060E+03  0.00000000000E+00 0.  1.
         12    1    6    6    0    0 -0.91510502168E+02 -0.37999497028E+02  0.56826344126E+02  0.11422507241E+03  0.00000000000E+00 0. -1.
         -5    1    3    3    0  503 -0.27699700330E+02 -0.20223182886E+02  0.90297151007E+01  0.35775358547E+02  0.47000000000E+01 0.  1.
         11    1    4    4    0    0  0.77379662101E+02  0.74032468493E+02  0.59521580237E+02  0.12252035346E+03  0.00000000000E+00 0. -1.
        -12    1    4    4    0    0  0.67462210431E+02 -0.12751664036E+01  0.85583048472E+02  0.10898272373E+03  0.00000000000E+00 0.  1.
</event>
<event>
12    1  0.8416569E-002  0.4015025E+03  0.7818608E-02  0.1043363E+00
         21   -1    0    0  501  502  0.00000000000E+00  0.00000000000E+00  0.14348796125E+04  0.14348796125E+04  0.00000000000E+00 0.  1.
         21   -1    0    0  502  503 -0.00000000000E+00 -0.00000000000E+00 -0.11283071753E+03  0.11283071753E+03  0.00000000000E+00 0. -1.
         -6    2    1    2    0  503  0.14079305273E+03 -0.33443883709E+03  0.59621207941E+03  0.71879977375E+03  0.17184950291E+03 0.  0.
        -24    2    3    3    0    0  0.13348492479E+03 -0.27648135277E+03  0.38328743890E+03  0.49795713461E+03  0.82412884395E+02 0.  0.
          6    2    1    2  501    0 -0.14079305273E+03  0.33443883709E+03  0.72583681559E+03  0.82891055632E+03  0.16906095960E+03 0.  0.
         24    2    5    5    0    0 -0.13833130853E+03  0.32872500537E+03  0.59665643031E+03  0.69949506266E+03  0.78094601500E+02 0.  0.
          5    1    5    5  501    0 -0.24617441992E+01  0.57138317220E+01  0.12918038528E+03  0.12941549366E+03  0.47000000000E+01 0. -1.
        -13    1    6    6    0    0  0.48554556116E+01  0.63451650011E+02  0.10231159934E+03  0.12048796910E+03  0.00000000000E+00 0.  1.
         14    1    6    6    0    0 -0.14318676414E+03  0.26527335536E+03  0.49434483096E+03  0.57900709356E+03  0.00000000000E+00 0. -1.
         -5    1    3    3    0  503  0.73081279330E+01 -0.57957484316E+02  0.21292464052E+03  0.22084263914E+03  0.47000000000E+01 0.  1.
         11    1    4    4    0    0  0.14628264508E+02  0.10808109243E+01  0.96004397960E+01  0.17530622323E+02  0.00000000000E+00 0. -1.
        -12    1    4    4    0    0  0.11885666029E+03 -0.27756216370E+03  0.37368699910E+03  0.48042651229E+03  0.00000000000E+00 0.  1.
</event>
<event>
12    1  0.8416569E-002  0.2784235E+03  0.7818608E-02  0.1096730E+00
         21   -1    0    0  501  502  0.00000000000E+00  0.00000000000E+00  0.25454932832E+03  0.25454932832E+03  0.00000000000E+00 0. -1.
         21   -1    0    0  502  503 -0.00000000000E+00 -0.00000000000E+00 -0.37992303497E+03  0.37992303497E+03  0.00000000000E+00 0. -1.
         -6    2    1    2    0  503  0.19855592680E+03 -0.91455376985E+02 -0.20518973923E+03  0.34483424579E+03  0.17035047972E+03 0.  0.
        -24    2    3    3    0    0  0.19892566433E+03 -0.12123556802E+03 -0.14984041956E+03  0.28180541372E+03  0.51890817948E+02 0.  0.
          6    2    1    2  501    0 -0.19855592680E+03  0.91455376985E+02  0.79816032578E+02  0.28963811749E+03  0.17242708025E+03 0.  0.
         24    2    5    5    0    0 -0.10360363894E+03  0.79689396336E+02 -0.17302352553E+02  0.15322533950E+03  0.78067402741E+02 0.  0.
          5    1    5    5  501    0 -0.94952287857E+02  0.11765980648E+02  0.97118385131E+02  0.13641277799E+03  0.47000000000E+01 0. -1.
        -11    1    6    6    0    0  0.72989586140E+01  0.19016742063E+01 -0.16074825236E+02  0.17756440184E+02  0.00000000000E+00 0.  1.
         12    1    6    6    0    0 -0.11090259755E+03  0.77787722130E+02 -0.12275273167E+01  0.13546889931E+03  0.00000000000E+00 0. -1.
         -5    1    3    3    0  503 -0.36973753795E+00  0.29780191033E+02 -0.55349319674E+02  0.63028832070E+02  0.47000000000E+01 0.  1.
         13    1    4    4    0    0  0.75383571730E+02 -0.23204482373E+02 -0.67918157920E+02  0.10408653642E+03  0.00000000000E+00 0. -1.
        -14    1    4    4    0    0  0.12354209260E+03 -0.98031085644E+02 -0.81922261640E+02  0.17771887730E+03  0.00000000000E+00 0.  1.
</event>
<event>
12    1  0.8416569E-002  0.1781278E+03  0.7818608E-02  0.1170104E+00
         21   -1    0    0  503  502  0.00000000000E+00  0.00000000000E+00  0.32581456895E+03  0.32581456895E+03  0.00000000000E+00 0.  1.
         21   -1    0    0  501  503 -0.00000000000E+00 -0.00000000000E+00 -0.43801110309E+03  0.43801110309E+03  0.00000000000E+00 0.  1.
          6    2    1    2  501    0 -0.14502019496E+02  0.34960578159E+02 -0.39334174126E+03  0.43100119856E+03  0.17208067045E+03 0.  0.
         24    2    3    3    0    0 -0.57015216823E+02 -0.24490804534E+02 -0.21308270685E+03  0.23643180647E+03  0.81518247618E+02 0.  0.
         -6    2    1    2    0  502  0.14502019496E+02 -0.34960578159E+02  0.28114520712E+03  0.33282447348E+03  0.17406019668E+03 0.  0.
        -24    2    5    5    0    0  0.19090519855E+02 -0.27073002250E+02  0.29949828792E+03  0.31179606973E+03  0.80125958567E+02 0.  0.
          5    1    3    3  501    0  0.42513197327E+02  0.59451382692E+02 -0.18025903441E+03  0.19456939209E+03  0.47000000000E+01 0. -1.
        -11    1    4    4    0    0 -0.98242371123E+01 -0.35902344849E+02 -0.32427772632E+02  0.49366531561E+02  0.00000000000E+00 0.  1.
         12    1    4    4    0    0 -0.47190979711E+02  0.11411540315E+02 -0.18065493422E+03  0.18706527491E+03  0.00000000000E+00 0. -1.
         -5    1    5    5    0  502 -0.45885003586E+01 -0.78875759086E+01 -0.18353080800E+02  0.21028403746E+02  0.47000000000E+01 0.  1.
         13    1    6    6    0    0  0.24675245136E+02 -0.21681608793E+02  0.38191900636E+02  0.50374409739E+02  0.00000000000E+00 0. -1.
        -14    1    6    6    0    0 -0.55847252808E+01 -0.53913934567E+01  0.26130638728E+03  0.26142165999E+03  0.00000000000E+00 0.  1.
</event>
<event>
12    1  0.8416569E-002  0.1949972E+03  0.7818608E-02  0.1157872E+00
         21   -1    0    0  503  502  0.00000000000E+00  0.00000000000E+00  0.32631851614E+03  0.32631851614E+03  0.00000000000E+00 0.  1.
         21   -1    0    0  501  503 -0.00000000000E+00 -0.00000000000E+00 -0.13490587901E+03  0.13490587901E+03  0.00000000000E+00 0.  1.
          6    2    1    2  501    0 -0.73479262480E+02 -0.81584634531E+01 -0.13058791593E+02  0.17867795425E+03  0.16214042296E+03 0.  0.
         24    2    3    3    0    0 -0.10387881577E+03 -0.25592614355E+01 -0.37964884121E+02  0.13870437112E+03  0.83667269323E+02 0.  0.
         -6    2    1    2    0  502  0.73479262480E+02  0.81584634531E+01  0.20447142873E+03  0.28254644090E+03  0.18043880835E+03 0.  0.
        -24    2    5    5    0    0  0.57561474387E+02  0.35905632627E+02  0.33665609997E+02  0.10870743755E+03  0.77983305221E+02 0.  0.
          5    1    3    3  501    0  0.30399553292E+02 -0.55992020176E+01  0.24906092528E+02  0.39973583134E+02  0.47000000000E+01 0. -1.
        -11    1    4    4    0    0 -0.10309680068E+03 -0.23750689554E+02 -0.14024553690E+02  0.10672269520E+03  0.00000000000E+00 0.  1.
         12    1    4    4    0    0 -0.78201509089E+00  0.21191428119E+02 -0.23940330431E+02  0.31981675917E+02  0.00000000000E+00 0. -1.
         -5    1    5    5    0  502  0.15917788093E+02 -0.27747169174E+02  0.17080581873E+03  0.17383900335E+03  0.47000000000E+01 0.  1.
         11    1    6    6    0    0 -0.64373524317E+01  0.17232638074E+02 -0.16941157675E+02  0.25008121574E+02  0.00000000000E+00 0. -1.
        -12    1    6    6    0    0  0.63998826819E+02  0.18672994554E+02  0.50606767672E+02  0.83699315971E+02  0.00000000000E+00 0.  1.
</event>
<event>
12    1  0.8416569E-002  0.1924707E+03  0.7818608E-02  0.1156572E+00
         21   -1    0    0  503  502  0.00000000000E+00  0.00000000000E+00  0.60420288875E+02  0.60420288875E+02  0.00000000000E+00 0. -1.
         21   -1    0    0  501  503 -0.00000000000E+00 -0.00000000000E+00 -0.97907567052E+03  0.97907567052E+03  0.00000000000E+00 0.  1.
          6    2    1    2  501    0 -0.67630907904E+02  0.44821993529E+02 -0.77799534469E+03  0.80110508005E+03  0.17294404330E+03 0.  0.
         24    2    3    3    0    0 -0.44804285319E+02  0.96511345573E+02 -0.58491122738E+03  0.59986788127E+03  0.79990419813E+02 0.  0.
         -6    2    1    2    0  502  0.67630907904E+02 -0.44821993529E+02 -0.14066003695E+03  0.23839087934E+03  0.17453370606E+03 0.  0.
        -24    2    5    5    0    0 -0.24833849335E+02  0.38963845679E+01 -0.40966929598E+02  0.93877844119E+02  0.80640302643E+02 0.  0.
          5    1    3    3  501    0 -0.22826622585E+02 -0.51689352043E+02 -0.19308411731E+03  0.20123719878E+03  0.47000000000E+01 0. -1.
        -13    1    4    4    0    0 -0.86732146519E+01  0.18041239886E+02 -0.33212444191E+03  0.33272714933E+03  0.00000000000E+00 0.  1.
         14    1    4    4    0    0 -0.36131070667E+02  0.78470105686E+02 -0.25278678547E+03  0.26714073194E+03  0.00000000000E+00 0. -1.
         -5    1    5    5    0  502  0.92464757238E+02 -0.48718378097E+02 -0.99693107350E+02  0.14451303522E+03  0.47000000000E+01 0.  1.
         11    1    6    6    0    0 -0.51461649741E+02 -0.12673129806E+02 -0.27997818777E+02  0.59939865444E+02  0.00000000000E+00 0. -1.
        -12    1    6    6    0    0  0.26627800407E+02  0.16569514374E+02 -0.12969110821E+02  0.33937978675E+02  0.00000000000E+00 0.  1.
</event>
<event>
12    1  0.8416569E-002  0.1996670E+03  0.7818608E-02  0.1150028E+00
         21   -1    0    0  501  502  0.00000000000E+00  0.00000000000E+00  0.26672999141E+03  0.26672999141E+03  0.00000000000E+00 0. -1.
         21   -1    0    0  502  503 -0.00000000000E+00 -0.00000000000E+00 -0.20888490105E+03  0.20888490105E+03  0.00000000000E+00 0. -1.
         -6    2    1    2    0  503 -0.60928361877E+02 -0.81931961602E+02 -0.97943123837E+02  0.22236228262E+03  0.17154304886E+03 0.  0.
        -24    2    3    3    0    0 -0.64388798534E+02 -0.12197618896E+03 -0.76115561818E+02  0.17638351327E+03  0.79331311311E+02 0.  0.
          6    2    1    2  501    0  0.60928361877E+02  0.81931961602E+02  0.15578821420E+03  0.25325260984E+03  0.17158614482E+03 0.  0.
         24    2    5    5    0    0  0.47872844742E+02 -0.14529192424E+02  0.11375873594E+03  0.14712171045E+03  0.78745418826E+02 0.  0.
          5    1    5    5  501    0  0.13055517135E+02  0.96461154025E+02  0.42029478258E+02  0.10613089939E+03  0.47000000000E+01 0. -1.
        -13    1    6    6    0    0  0.56556944751E+02 -0.23382681800E+02  0.41824828459E+02  0.74126608471E+02  0.00000000000E+00 0.  1.
         14    1    6    6    0    0 -0.86841000091E+01  0.88534893761E+01  0.71933907480E+02  0.72995101976E+02  0.00000000000E+00 0. -1.
         -5    1    3    3    0  503  0.34604366563E+01  0.40044227359E+02 -0.21827562019E+02  0.45978769344E+02  0.47000000000E+01 0.  1.
         11    1    4    4    0    0 -0.76305499922E+02 -0.70843889883E+02 -0.64912788379E+02  0.12269904705E+03  0.00000000000E+00 0. -1.
        -12    1    4    4    0    0  0.11916701388E+02 -0.51132299078E+02 -0.11202773439E+02  0.53684466224E+02  0.00000000000E+00 0.  1.
</event>
<event>
12    1  0.8416569E-002  0.1995699E+03  0.7818608E-02  0.1150218E+00
         21   -1    0    0  501  502  0.00000000000E+00  0.00000000000E+00  0.34081156851E+02  0.34081156851E+02  0.00000000000E+00 0. -1.
         21   -1    0    0  502  503 -0.00000000000E+00 -0.00000000000E+00 -0.13688978409E+04  0.13688978409E+04  0.00000000000E+00 0. -1.
         -6    2    1    2    0  503 -0.67029221465E+02  0.74740038203E+02 -0.39618676061E+03  0.44336747282E+03  0.17184812141E+03 0.  0.
        -24    2    3    3    0    0 -0.70205393559E+02  0.66060837129E+02 -0.40851549119E+03  0.42725833882E+03  0.79824495392E+02 0.  0.
          6    2    1    2  501    0  0.67029221465E+02 -0.74740038203E+02 -0.93862992344E+03  0.95961152493E+03  0.17247943577E+03 0.  0.
         24    2    5    5    0    0  0.15821274761E+02 -0.11006857773E+03 -0.61138536204E+03  0.62647273632E+03  0.79439435419E+02 0.  0.
          5    1    5    5  501    0  0.51207946704E+02  0.35328539525E+02 -0.32724456140E+03  0.33313878861E+03  0.47000000000E+01 0. -1.
        -13    1    6    6    0    0 -0.26711416315E+02 -0.37476399087E+02 -0.31619013656E+03  0.31952180318E+03  0.00000000000E+00 0.  1.
         14    1    6    6    0    0  0.42532691076E+02 -0.72592178641E+02 -0.29519522548E+03  0.30695093314E+03  0.00000000000E+00 0. -1.
         -5    1    3    3    0  503  0.31761720938E+01  0.86792010743E+01  0.12328730580E+02  0.16109133998E+02  0.47000000000E+01 0.  1.
         11    1    4    4    0    0 -0.12580887448E+02  0.64084611176E+02 -0.17678364677E+03  0.18846106729E+03  0.00000000000E+00 0. -1.
        -12    1    4    4    0    0 -0.57624506111E+02  0.19762259530E+01 -0.23173184442E+03  0.23879727154E+03  0.00000000000E+00 0.  1.
</event>
<event>
12    1  0.8416569E-002  0.2381169E+03  0.7818608E-02  0.1121114E+00
         21   -1    0    0  501  502  0.00000000000E+00  0.00000000000E+00  0.19432602565E+03  0.19432602565E+03  0.00000000000E+00 0.  1.
         21   -1    0    0  502  503 -0.00000000000E+00 -0.00000000000E+00 -0.30330162535E+03  0.30330162535E+03  0.00000000000E+00 0. -1.
         -6    2    1    2    0  503 -0.63326305590E+02  0.15097733116E+03 -0.10395112833E+03  0.25981821966E+03  0.17290255835E+03 0.  0.
        -24    2    3    3    0    0 -0.76238927222E+02  0.13795725401E+03 -0.24183248001E+02  0.17783491076E+03  0.78713709375E+02 0.  0.
          6    2    1    2  501    0  0.63326305590E+02 -0.15097733116E+03 -0.50244713678E+01  0.23780943134E+03  0.17240564033E+03 0.  0.
         24    2    5    5    0    0  0.93928208985E+02 -0.69503127564E+02  0.28640733479E+02  0.14437518515E+03  0.79816723115E+02 0.  0.
          5    1    5    5  501    0 -0.30601903395E+02 -0.81474203597E+02 -0.33665204846E+02  0.93434246187E+02  0.47000000000E+01 0. -1.
        -11    1    6    6    0    0  0.74769010825E+02 -0.10577573308E+02  0.32679890609E+02  0.82281621806E+02  0.00000000000E+00 0.  1.
         12    1    6    6    0    0  0.19159198160E+02 -0.58925554256E+02 -0.40391571303E+01  0.62093563345E+02  0.00000000000E+00 0. -1.
         -5    1    3    3    0  503  0.12912621631E+02  0.13020077147E+02 -0.79767880325E+02  0.81983308898E+02  0.47000000000E+01 0.  1.
         11    1    4    4    0    0  0.11934462404E+02  0.22423726461E+02  0.11953340276E+02  0.28073782165E+02  0.00000000000E+00 0. -1.
        -12    1    4    4    0    0 -0.88173389626E+02  0.11553352755E+03 -0.36136588277E+02  0.14976112860E+03  0.00000000000E+00 0.  1.
</event>
<event>
12    1  0.8416569E-002  0.2041820E+03  0.7818608E-02  0.1147003E+00
         21   -1    0    0  501  502  0.00000000000E+00  0.00000000000E+00  0.74237631781E+03  0.74237631781E+03  0.00000000000E+00 0. -1.
         21   -1    0    0  502  503 -0.00000000000E+00 -0.00000000000E+00 -0.11382675594E+03  0.11382675594E+03  0.00000000000E+00 0.  1.
         -6    2    1    2    0  503  0.95739341523E+02  0.39426490152E+02  0.83285834379E+01  0.20435174830E+03  0.17598239142E+03 0.  0.
        -24    2    3    3    0    0  0.97905540860E+02  0.50643209878E+02  0.61830209207E+02  0.14944253977E+03  0.79748782341E+02 0.  0.
          6    2    1    2  501    0 -0.95739341523E+02 -0.39426490152E+02  0.62022097843E+03  0.65185132545E+03  0.17180110237E+03 0.  0.
         24    2    5    5    0    0 -0.12251291258E+02 -0.46843884482E+02  0.15548975234E+03  0.17959877143E+03  0.75724579680E+02 0.  0.
          5    1    5    5  501    0 -0.83488050265E+02  0.74173943301E+01  0.46473122609E+03  0.47225255402E+03  0.47000000000E+01 0. -1.
        -11    1    6    6    0    0 -0.26642466689E+02 -0.65470738198E+01  0.12143750490E+02  0.30002597935E+02  0.00000000000E+00 0.  1.
         12    1    6    6    0    0  0.14391175431E+02 -0.40296810662E+02  0.14334600185E+03  0.14959617350E+03  0.00000000000E+00 0. -1.
         -5    1    3    3    0  503 -0.21661993374E+01 -0.11216719726E+02 -0.53501625770E+02  0.54909208526E+02  0.47000000000E+01 0.  1.
         13    1    4    4    0    0  0.53878051075E+02  0.69257258925E+02  0.46106060312E+02  0.99122051527E+02  0.00000000000E+00 0. -1.
        -14    1    4    4    0    0  0.44027489785E+02 -0.18614049047E+02  0.15724148895E+02  0.50320488245E+02  0.00000000000E+00 0.  1.
</event>
<event>
12    1  0.8416569E-002  0.2234075E+03  0.7818608E-02  0.1131739E+00
         21   -1    0    0  501  502  0.00000000000E+00  0.00000000000E+00  0.25470611356E+03  0.25470611356E+03  0.00000000000E+00 0.  1.
         21   -1    0    0  502  503 -0.00000000000E+00 -0.00000000000E+00 -0.46447803411E+03  0.46447803411E+03  0.00000000000E+00 0.  1.
         -6    2    1    2    0  503 -0.54854846302E+02 -0.13495996786E+03 -0.37939522106E+03  0.44028584685E+03  0.16937427810E+03 0.  0.
        -24    2    3    3    0    0 -0.16908196135E+02 -0.22637096342E+02 -0.11073156846E+03  0.14658766171E+03  0.91804885946E+02 0.  0.
          6    2    1    2  501    0  0.54854846302E+02  0.13495996786E+03  0.16962330050E+03  0.27889830082E+03  0.16670018308E+03 0.  0.
         24    2    5    5    0    0 -0.16557725741E+02  0.12211813396E+03  0.10104081080E+03  0.17894673236E+03  0.81398345516E+02 0.  0.
          5    1    5    5  501    0  0.71412572043E+02  0.12841833905E+02  0.68582489709E+02  0.99951568464E+02  0.47000000000E+01 0. -1.
        -13    1    6    6    0    0  0.23563916882E+00  0.84298728853E+02  0.10797958316E+03  0.13698876447E+03  0.00000000000E+00 0.  1.
         14    1    6    6    0    0 -0.16793364910E+02  0.37819405102E+02 -0.69387723630E+01  0.41957967887E+02  0.00000000000E+00 0. -1.
         -5    1    3    3    0  503 -0.37946650167E+02 -0.11232287152E+03 -0.26866365260E+03  0.29369818514E+03  0.47000000000E+01 0.  1.
         13    1    4    4    0    0 -0.15367992352E+02 -0.57876095348E+01  0.13469698833E+02  0.21239218435E+02  0.00000000000E+00 0. -1.
        -14    1    4    4    0    0 -0.15402037833E+01 -0.16849486807E+02 -0.12420126729E+03  0.12534844327E+03  0.00000000000E+00 0.  1.
</event>
<event>
12    1  0.8416569E-002  0.2095248E+03  0.7818608E-02  0.1145480E+00
         21   -1    0    0  501  502  0.00000000000E+00  0.00000000000E+00  0.12976653678E+03  0.12976653678E+03  0.00000000000E+00 0.  1.
         21   -1    0    0  502  503 -0.00000000000E+00 -0.00000000000E+00 -0.42628984401E+03  0.42628984401E+03  0.00000000000E+00 0.  1.
         -6    2    1    2    0  503  0.16164046007E+02 -0.90314014345E+02 -0.29710653553E+03  0.36355594963E+03  0.18836862129E+03 0.  0.
        -24    2    3    3    0    0  0.35035533108E+02  0.13913402092E+02 -0.72522708954E+02  0.11520242636E+03  0.81184877821E+02 0.  0.
          6    2    1    2  501    0 -0.16164046007E+02  0.90314014345E+02  0.58322829944E+00  0.19250043116E+03  0.16922818403E+03 0.  0.
         24    2    5    5    0    0 -0.60001544969E+02  0.74083002553E+02 -0.39884611114E+02  0.13049310832E+03  0.79681820062E+02 0.  0.
          5    1    5    5  501    0  0.43837498962E+02  0.16231011792E+02  0.40467839414E+02  0.62007322840E+02  0.47000000000E+01 0. -1.
        -11    1    6    6    0    0 -0.57746013396E+02  0.26167899287E+02  0.65444520926E+01  0.63735318854E+02  0.00000000000E+00 0.  1.
         12    1    6    6    0    0 -0.22555315729E+01  0.47915103266E+02 -0.46429063207E+02  0.66757789462E+02  0.00000000000E+00 0. -1.
         -5    1    3    3    0  503 -0.18871487101E+02 -0.10422741644E+03 -0.22458382658E+03  0.24835352328E+03  0.47000000000E+01 0.  1.
         13    1    4    4    0    0  0.61980166075E+01  0.43591171586E+02 -0.54510442918E+02  0.70071349617E+02  0.00000000000E+00 0. -1.
        -14    1    4    4    0    0  0.28837516500E+02 -0.29677769494E+02 -0.18012266036E+02  0.45131076741E+02  0.00000000000E+00 0.  1.
</event>
<event>
12    1  0.8416569E-002  0.1941561E+03  0.7818608E-02  0.1155268E+00
         21   -1    0    0  501  502  0.00000000000E+00  0.00000000000E+00  0.50411897582E+03  0.50411897582E+03  0.00000000000E+00 0.  1.
         21   -1    0    0  502  503 -0.00000000000E+00 -0.00000000000E+00 -0.74300166221E+02  0.74300166221E+02  0.00000000000E+00 0.  1.
         -6    2    1    2    0  503 -0.48669433462E+02  0.71495725643E+02  0.19247969698E+03  0.27178184543E+03  0.17127926091E+03 0.  0.
        -24    2    3    3    0    0 -0.52277276737E+02  0.11480142434E+03  0.15432565693E+03  0.21376270338E+03  0.77238619072E+02 0.  0.
          6    2    1    2  501    0  0.48669433462E+02 -0.71495725643E+02  0.23733911262E+03  0.30663729660E+03  0.17382814718E+03 0.  0.
         24    2    5    5    0    0  0.33671960297E+02 -0.14157818897E+02  0.22980344701E+03  0.24670870570E+03  0.81983635349E+02 0.  0.
          5    1    5    5  501    0  0.14997473165E+02 -0.57337906746E+02  0.75356656060E+01  0.59928590902E+02  0.47000000000E+01 0. -1.
        -11    1    6    6    0    0  0.34181304798E+02 -0.35947967365E+02  0.72158227556E+02  0.87563849615E+02  0.00000000000E+00 0.  1.
         12    1    6    6    0    0 -0.50934450052E+00  0.21790148468E+02  0.15764521945E+03  0.15914485609E+03  0.00000000000E+00 0. -1.
         -5    1    3    3    0  503  0.36078432753E+01 -0.43305698696E+02  0.38154040052E+02  0.58019142056E+02  0.47000000000E+01 0.  1.
         11    1    4    4    0    0 -0.24939325226E+02 -0.35390833005E+01  0.16777280415E+02  0.30265032487E+02  0.00000000000E+00 0. -1.
        -12    1    4    4    0    0 -0.27337951512E+02  0.11834050764E+03  0.13754837651E+03  0.18349767089E+03  0.00000000000E+00 0.  1.
</event>
<event>
12    1  0.8416569E-002  0.3204775E+03  0.7818608E-02  0.1075584E+00
         21   -1    0    0  501  502  0.00000000000E+00  0.00000000000E+00  0.73064514429E+03  0.73064514429E+03  0.00000000000E+00 0.  1.
         21   -1    0    0  502  503 -0.00000000000E+00 -0.00000000000E+00 -0.18519483128E+03  0.18519483128E+03  0.00000000000E+00 0.  1.
         -6    2    1    2    0  503  0.23820063795E+03  0.12644199730E+03  0.46899450484E+02  0.32389104296E+03  0.17314365900E+03 0.  0.
        -24    2    3    3    0    0  0.18496408988E+03  0.12841349310E+03  0.90220074852E+02  0.25506674970E+03  0.78852045917E+02 0.  0.
          6    2    1    2  501    0 -0.23820063795E+03 -0.12644199730E+03  0.49855086252E+03  0.59194893261E+03  0.17065595124E+03 0.  0.
         24    2    5    5    0    0 -0.34037069143E+02 -0.26818507752E+02  0.16633790109E+03  0.18946272882E+03  0.79687350555E+02 0.  0.
          5    1    5    5  501    0 -0.20416356880E+03 -0.99623489549E+02  0.33221296143E+03  0.40248620378E+03  0.47000000000E+01 0. -1.
        -11    1    6    6    0    0 -0.15192744336E+02 -0.51464776217E+02  0.13541282885E+03  0.14565739559E+03  0.00000000000E+00 0.  1.
         12    1    6    6    0    0 -0.18844324807E+02  0.24646268465E+02  0.30925072242E+02  0.43805333235E+02  0.00000000000E+00 0. -1.
         -5    1    3    3    0  503  0.53236548072E+02 -0.19714957995E+01 -0.43320624368E+02  0.68824293254E+02  0.47000000000E+01 0.  1.
         13    1    4    4    0    0  0.97193492429E+02  0.11160250528E+03  0.68622292273E+02  0.16312790427E+03  0.00000000000E+00 0. -1.
        -14    1    4    4    0    0  0.87770597446E+02  0.16810987823E+02  0.21597782579E+02  0.91938845435E+02  0.00000000000E+00 0.  1.
</event>
<event>
12    1  0.8416569E-002  0.1860342E+03  0.7818608E-02  0.1163484E+00
         21   -1    0    0  503  502  0.00000000000E+00  0.00000000000E+00  0.73989782193E+03  0.73989782193E+03  0.00000000000E+00 0.  1.
         21   -1    0    0  501  503 -0.00000000000E+00 -0.00000000000E+00 -0.66417441474E+02  0.66417441474E+02  0.00000000000E+00 0.  1.
          6    2    1    2  501    0  0.59924643914E+02  0.14871859520E+02  0.10570531718E+03  0.20883952558E+03  0.16919869447E+03 0.  0.
         24    2    3    3    0    0  0.89371856973E+02 -0.12312376786E+02  0.11627423768E+03  0.16712725951E+03  0.79201635599E+02 0.  0.
         -6    2    1    2    0  502 -0.59924643914E+02 -0.14871859520E+02  0.56777506328E+03  0.59747573783E+03  0.17548959987E+03 0.  0.
        -24    2    5    5    0    0 -0.99388423850E+02 -0.27317551019E+02  0.50861606373E+03  0.52512822653E+03  0.80281047733E+02 0.  0.
          5    1    3    3  501    0 -0.29447213059E+02  0.27184236306E+02 -0.10568920495E+02  0.41712266072E+02  0.47000000000E+01 0. -1.
        -13    1    4    4    0    0  0.94284566224E+02  0.50293560300E+01  0.11536936913E+03  0.14908039838E+03  0.00000000000E+00 0.  1.
         14    1    4    4    0    0 -0.49127092506E+01 -0.17341732816E+02  0.90486855228E+00  0.18046861121E+02  0.00000000000E+00 0. -1.
         -5    1    5    5    0  502  0.39463779935E+02  0.12445691499E+02  0.59158999543E+02  0.72347511295E+02  0.47000000000E+01 0.  1.
         11    1    6    6    0    0 -0.73585266187E+02  0.13348485736E+02  0.21612297275E+03  0.22869655183E+03  0.00000000000E+00 0. -1.
        -12    1    6    6    0    0 -0.25803157662E+02 -0.40666036755E+02  0.29249309099E+03  0.29643167470E+03  0.00000000000E+00 0.  1.
</event>
<event>
12    1  0.8416569E-002  0.1874363E+03  0.7818608E-02  0.1161235E+00
         21   -1    0    0  503  502  0.00000000000E+00  0.00000000000E+00  0.10482774124E+04  0.10482774124E+04  0.00000000000E+00 0. -1.
         21   -1    0    0  501  503 -0.00000000000E+00 -0.00000000000E+00 -0.39497835800E+02  0.39497835800E+02  0.00000000000E+00 0. -1.
          6    2    1    2  501    0  0.40162073791E+02  0.60995075830E+02  0.28892645964E+03  0.34439930808E+03  0.17262384793E+03 0.  0.
         24    2    3    3    0    0  0.56898052125E+02  0.70211820442E+02  0.10573000273E+03  0.16014927910E+03  0.79384318691E+02 0.  0.
         -6    2    1    2    0  502 -0.40162073791E+02 -0.60995075830E+02  0.71985311693E+03  0.74337594009E+03  0.17054584988E+03 0.  0.
        -24    2    5    5    0    0 -0.87415162718E+02 -0.64924565187E+02  0.58561921202E+03  0.60093603512E+03  0.79483627183E+02 0.  0.
          5    1    3    3  501    0 -0.16735978334E+02 -0.92167446112E+01  0.18319645692E+03  0.18425002898E+03  0.47000000000E+01 0. -1.
        -11    1    4    4    0    0  0.46545617435E+02 -0.60404014685E+00  0.27261256637E+02  0.53944744696E+02  0.00000000000E+00 0.  1.
         12    1    4    4    0    0  0.10352434690E+02  0.70815860588E+02  0.78468746092E+02  0.10620453440E+03  0.00000000000E+00 0. -1.
         -5    1    5    5    0  502  0.47253088927E+02  0.39294893570E+01  0.13423390491E+03  0.14243990497E+03  0.47000000000E+01 0.  1.
         11    1    6    6    0    0 -0.15853730977E+02 -0.30668299829E+02  0.58877037983E+02  0.68252406565E+02  0.00000000000E+00 0. -1.
        -12    1    6    6    0    0 -0.71561431741E+02 -0.34256265358E+02  0.52674217403E+03  0.53268362856E+03  0.00000000000E+00 0.  1.
</event>
<event>
12    1  0.8416569E-002  0.2941501E+03  0.7818608E-02  0.1088739E+00
         21   -1    0    0  501  502  0.00000000000E+00  0.00000000000E+00  0.15613682415E+03  0.15613682415E+03  0.00000000000E+00 0. -1.
         21   -1    0    0  502  503 -0.00000000000E+00 -0.00000000000E+00 -0.62247465583E+03  0.62247465583E+03  0.00000000000E+00 0.  1.
         -6    2    1    2    0  503  0.22636904228E+03  0.82113236332E+02 -0.95568339913E+02  0.30533115231E+03  0.16158056225E+03 0.  0.
        -24    2    3    3    0    0  0.88442191072E+02  0.91116936652E+02 -0.33749525971E+02  0.15384340146E+03  0.80027772445E+02 0.  0.
          6    2    1    2  501    0 -0.22636904228E+03 -0.82113236332E+02 -0.37076949177E+03  0.47328032766E+03  0.16893408669E+03 0.  0.
         24    2    5    5    0    0 -0.35536867264E+02 -0.22064437733E+01 -0.14356311452E+03  0.16595827773E+03  0.75259848298E+02 0.  0.
          5    1    5    5  501    0 -0.19083217501E+03 -0.79906792559E+02 -0.22720637724E+03  0.30732204994E+03  0.47000000000E+01 0. -1.
        -11    1    6    6    0    0 -0.53416437706E+02  0.15817118205E+02 -0.11473717783E+03  0.12754652885E+03  0.00000000000E+00 0.  1.
         12    1    6    6    0    0  0.17879570442E+02 -0.18023561978E+02 -0.28825936692E+02  0.38411748876E+02  0.00000000000E+00 0. -1.
         -5    1    3    3    0  503  0.13792685120E+03 -0.90037003198E+01 -0.61818813943E+02  0.15148775086E+03  0.47000000000E+01 0.  1.
         11    1    4    4    0    0  0.94593567473E+02  0.95591207183E+02 -0.17134458407E+02  0.13556995081E+03  0.00000000000E+00 0. -1.
        -12    1    4    4    0    0 -0.61513764010E+01 -0.44742705310E+01 -0.16615067563E+02  0.18273450647E+02  0.00000000000E+00 0.  1.
</event>
<event>
12    1  0.8416569E-002  0.2016513E+03  0.7818608E-02  0.1150209E+00
         21   -1    0    0  503  502  0.00000000000E+00  0.00000000000E+00  0.17170359062E+03  0.17170359062E+03  0.00000000000E+00 0.  1.
         21   -1    0    0  501  503 -0.00000000000E+00 -0.00000000000E+00 -0.27133180648E+03  0.27133180648E+03  0.00000000000E+00 0. -1.
          6    2    1    2  501    0 -0.31036575612E+02 -0.96913751746E+02 -0.13868996074E+03  0.23763564810E+03  0.16395197997E+03 0.  0.
         24    2    3    3    0    0  0.26708724377E+02 -0.10070411003E+02 -0.39284651842E+02  0.93483676422E+02  0.79882067771E+02 0.  0.
         -6    2    1    2    0  502  0.31036575612E+02  0.96913751746E+02  0.39061744870E+02  0.20539974900E+03  0.17409104708E+03 0.  0.
        -24    2    5    5    0    0  0.64532997898E+02  0.11354299195E+03  0.30782187976E+01  0.15328980672E+03  0.80198320265E+02 0.  0.
          5    1    3    3  501    0 -0.57745299989E+02 -0.86843340742E+02 -0.99405308897E+02  0.14415197168E+03  0.47000000000E+01 0. -1.
        -11    1    4    4    0    0  0.67556545901E+01 -0.43161472905E+02 -0.32021590142E+02  0.54165799611E+02  0.00000000000E+00 0.  1.
         12    1    4    4    0    0  0.19953069787E+02  0.33091061902E+02 -0.72630616998E+01  0.39317876811E+02  0.00000000000E+00 0. -1.
         -5    1    5    5    0  502 -0.33496422286E+02 -0.16629240208E+02  0.35983526072E+02  0.52109942280E+02  0.47000000000E+01 0.  1.
         13    1    6    6    0    0  0.39310693987E+02  0.75312768343E+01 -0.15165423789E+02  0.42802346562E+02  0.00000000000E+00 0. -1.
        -14    1    6    6    0    0  0.25222303911E+02  0.10601171512E+03  0.18243642586E+02  0.11048746016E+03  0.00000000000E+00 0.  1.
</event>
<event>
12    1  0.8416569E-002  0.2371576E+03  0.7818608E-02  0.1122932E+00
         21   -1    0    0  503  502  0.00000000000E+00  0.00000000000E+00  0.22147188270E+03  0.22147188270E+03  0.00000000000E+00 0. -1.
         21   -1    0    0  501  503 -0.00000000000E+00 -0.00000000000E+00 -0.30950888928E+03  0.30950888928E+03  0.00000000000E+00 0. -1.
          6    2    1    2  501    0  0.66121819516E+02  0.13809748770E+03 -0.16340444827E+03  0.28213550531E+03  0.17162872288E+03 0.  0.
         24    2    3    3    0    0  0.24276785654E+02  0.12128714869E+03 -0.17813390048E+03  0.23446327945E+03  0.89114578774E+02 0.  0.
         -6    2    1    2    0  502 -0.66121819516E+02 -0.13809748770E+03  0.75367441685E+02  0.24884526666E+03  0.18110964731E+03 0.  0.
        -24    2    5    5    0    0 -0.89089427415E+02 -0.69707932824E+02  0.10259820055E+03  0.17159083989E+03  0.78236203906E+02 0.  0.
          5    1    3    3  501    0  0.41845033862E+02  0.16810339010E+02  0.14729452209E+02  0.47672225865E+02  0.47000000000E+01 0. -1.
        -13    1    4    4    0    0 -0.15189093990E+02  0.56308367718E+02 -0.24915175381E+02  0.63420082116E+02  0.00000000000E+00 0.  1.
         14    1    4    4    0    0  0.39465879645E+02  0.64978780972E+02 -0.15321872510E+03  0.17104319733E+03  0.00000000000E+00 0. -1.
         -5    1    5    5    0  502  0.22967607899E+02 -0.68389554876E+02 -0.27230758861E+02  0.77254426779E+02  0.47000000000E+01 0.  1.
         13    1    6    6    0    0 -0.46898468839E+02 -0.77157634583E+02  0.88642315670E+02  0.12653152604E+03  0.00000000000E+00 0. -1.
        -14    1    6    6    0    0 -0.42190958575E+02  0.74497017590E+01  0.13955884876E+02  0.45059313848E+02  0.00000000000E+00 0.  1.
</event>
<event>
12    1  0.8416569E-002  0.2064579E+03  0.7818608E-02  0.1144563E+00
         21   -1    0    0  501  502  0.00000000000E+00  0.00000000000E+00  0.12611553979E+03  0.12611553979E+03  0.00000000000E+00 0. -1.
         21   -1    0    0  502  503 -0.00000000000E+00 -0.00000000000E+00 -0.37518033071E+03  0.37518033071E+03  0.00000000000E+00 0. -1.
         -6    2    1    2    0  503  0.11333798188E+03  0.20963087885E+01 -0.20460397706E+03  0.29010485581E+03  0.17160462491E+03 0.  0.
        -24    2    3    3    0    0  0.12608778113E+03 -0.29128763233E+02 -0.20600146015E+03  0.25602252222E+03  0.79776668910E+02 0.  0.
          6    2    1    2  501    0 -0.11333798188E+03 -0.20963087885E+01 -0.44460813862E+02  0.21119101468E+03  0.17255430469E+03 0.  0.
         24    2    5    5    0    0 -0.11375538306E+03  0.30485524667E+02 -0.80191327683E+02  0.16260593762E+03  0.78360624833E+02 0.  0.
          5    1    5    5  501    0  0.41740118443E+00 -0.32581833455E+02  0.35730513821E+02  0.48585077060E+02  0.47000000000E+01 0. -1.
        -11    1    6    6    0    0 -0.47653505230E+02  0.64682415249E+01 -0.78736293707E+02  0.92261035415E+02  0.00000000000E+00 0.  1.
         12    1    6    6    0    0 -0.66101877834E+02  0.24017283142E+02 -0.14550339758E+01  0.70344902208E+02  0.00000000000E+00 0. -1.
         -5    1    3    3    0  503 -0.12749799255E+02  0.31225072022E+02  0.13974830912E+01  0.34082333588E+02  0.47000000000E+01 0.  1.
         11    1    4    4    0    0  0.67892786162E+02  0.23451647197E+02 -0.79158286430E+02  0.10688987080E+03  0.00000000000E+00 0. -1.
        -12    1    4    4    0    0  0.58194994972E+02 -0.52580410431E+02 -0.12684317372E+03  0.14913265142E+03  0.00000000000E+00 0.  1.
</event>
<event>
12    1  0.8416569E-002  0.2382774E+03  0.7818608E-02  0.1121029E+00
         21   -1    0    0  503  502  0.00000000000E+00  0.00000000000E+00  0.54633817926E+03  0.54633817926E+03  0.00000000000E+00 0. -1.
         21   -1    0    0  501  503 -0.00000000000E+00 -0.00000000000E+00 -0.11735877974E+03  0.11735877974E+03  0.00000000000E+00 0.  1.
          6    2    1    2  501    0 -0.13796815023E+03 -0.89400869247E+02  0.32788007014E+03  0.40531648386E+03  0.17247720369E+03 0.  0.
         24    2    3    3    0    0 -0.13197339020E+03 -0.64209350063E+01  0.19705876894E+03  0.25021036057E+03  0.79466105937E+02 0.  0.
         -6    2    1    2    0  502  0.13796815023E+03  0.89400869247E+02  0.10109932937E+03  0.25838047514E+03  0.17178960864E+03 0.  0.
        -24    2    5    5    0    0  0.12311751103E+02  0.74472068028E+02  0.34554081820E+02  0.11533237233E+03  0.80061872353E+02 0.  0.
          5    1    3    3  501    0 -0.59947600305E+01 -0.82979934240E+02  0.13082130121E+03  0.15510612329E+03  0.47000000000E+01 0. -1.
        -13    1    4    4    0    0 -0.20193295740E+02 -0.13359693522E+01 -0.35104016760E+01  0.20539642813E+02  0.00000000000E+00 0.  1.
         14    1    4    4    0    0 -0.11178009446E+03 -0.50849656541E+01  0.20056917061E+03  0.22967071775E+03  0.00000000000E+00 0. -1.
         -5    1    5    5    0  502  0.12565639913E+03  0.14928801218E+02  0.66545247554E+02  0.14304810282E+03  0.47000000000E+01 0.  1.
         11    1    6    6    0    0  0.12953122508E+01 -0.15709241240E+02  0.16281144900E+02  0.22661283579E+02  0.00000000000E+00 0. -1.
        -12    1    6    6    0    0  0.11016438852E+02  0.90181309268E+02  0.18272936920E+02  0.92671088750E+02  0.00000000000E+00 0.  1.
</event>
<event>
12    1  0.8416569E-002  0.1851126E+03  0.7818608E-02  0.1163093E+00
         21   -1    0    0  503  502  0.00000000000E+00  0.00000000000E+00  0.16894245999E+04  0.16894245999E+04  0.00000000000E+00 0.  1.
         21   -1    0    0  501  503 -0.00000000000E+00 -0.00000000000E+00 -0.93411493227E+02  0.93411493227E+02  0.00000000000E+00 0. -1.
          6    2    1    2  501    0  0.25898469836E+02 -0.59492802511E+02  0.86137465707E+01  0.18467984733E+03  0.17269141579E+03 0.  0.
         24    2    3    3    0    0  0.73616426230E+02 -0.74033815725E+02 -0.88983667904E+00  0.13368129321E+03  0.83483604758E+02 0.  0.
         -6    2    1    2    0  502 -0.25898469836E+02  0.59492802511E+02  0.15873993601E+04  0.15981562458E+04  0.17336820135E+03 0.  0.
        -24    2    5    5    0    0 -0.31857148576E+02 -0.33246754268E+02  0.81926645918E+03  0.82440798265E+03  0.79566111733E+02 0.  0.
          5    1    3    3  501    0 -0.47717956394E+02  0.14541013214E+02  0.95035832497E+01  0.50998554119E+02  0.47000000000E+01 0. -1.
        -13    1    4    4    0    0  0.44123876634E+02 -0.48790978724E+02  0.40247523382E+02  0.77118993980E+02  0.00000000000E+00 0.  1.
         14    1    4    4    0    0  0.29492549596E+02 -0.25242837001E+02 -0.41137360061E+02  0.56562299231E+02  0.00000000000E+00 0. -1.
         -5    1    5    5    0  502  0.59586787399E+01  0.92739556779E+02  0.76813290097E+03  0.77374826319E+03  0.47000000000E+01 0.  1.
         11    1    6    6    0    0 -0.48654975109E+02 -0.13084028103E+02  0.27956145421E+03  0.28406531832E+03  0.00000000000E+00 0. -1.
        -12    1    6    6    0    0  0.16797826533E+02 -0.20162726164E+02  0.53970500497E+03  0.54034266433E+03  0.00000000000E+00 0.  1.
</event>
<event>
12    1  0.8416569E-002  0.2763472E+03  0.7818608E-02  0.1097918E+00
         21   -1    0    0  503  502  0.00000000000E+00  0.00000000000E+00  0.14410637942E+04  0.14410637942E+04  0.00000000000E+00 0. -1.
         21   -1    0    0  501  503 -0.00000000000E+00 -0.00000000000E+00 -0.10155443456E+03  0.10155443456E+03  0.00000000000E+00 0.  1.
          6    2    1    2  501    0 -0.20954040059E+03 -0.45243987134E+02  0.13377161506E+03  0.30561730784E+03  0.17190955762E+03 0.  0.
         24    2    3    3    0    0 -0.22952556304E+03 -0.33565145434E+02  0.10103788631E+03  0.26525161622E+03  0.79631415680E+02 0.  0.
         -6    2    1    2    0  502  0.20954040059E+03  0.45243987134E+02  0.12057377446E+04  0.12370009209E+04  0.17439487325E+03 0.  0.
        -24    2    5    5    0    0  0.18601591788E+03 -0.27318970408E+02  0.93294736420E+03  0.95370696455E+03  0.61789497536E+02 0.  0.
          5    1    3    3  501    0  0.19985162445E+02 -0.11678841700E+02  0.32733728754E+02  0.40365691614E+02  0.47000000000E+01 0. -1.
        -13    1    4    4    0    0 -0.11770078768E+03 -0.57101332631E+02  0.58689666982E+02  0.14338240694E+03  0.00000000000E+00 0.  1.
         14    1    4    4    0    0 -0.11182477536E+03  0.23536187197E+02  0.42348219328E+02  0.12186920929E+03  0.00000000000E+00 0. -1.
         -5    1    5    5    0  502  0.23524482713E+02  0.72562957542E+02  0.27279038040E+03  0.28329395640E+03  0.47000000000E+01 0.  1.
         11    1    6    6    0    0  0.20553460177E+02 -0.49438351924E+01  0.23992975290E+03  0.24085923806E+03  0.00000000000E+00 0. -1.
        -12    1    6    6    0    0  0.16546245770E+03 -0.22375135215E+02  0.69301761130E+03  0.71284772648E+03  0.00000000000E+00 0.  1.
</event>
<event>
12    1  0.8416569E-002  0.1820874E+03  0.7818608E-02  0.1165861E+00
         21   -1    0    0  501  502  0.00000000000E+00  0.00000000000E+00  0.28968036505E+02  0.28968036505E+02  0.00000000000E+00 0. -1.
         21   -1    0    0  502  503 -0.00000000000E+00 -0.00000000000E+00 -0.12271201403E+04  0.12271201403E+04  0.00000000000E+00 0. -1.
         -6    2    1    2    0  503 -0.55624505877E+02 -0.18615690033E+02 -0.76320419119E+03  0.78456351468E+03  0.17210067270E+03 0.  0.
        -24    2    3    3    0    0 -0.49415706515E+02 -0.19393770277E+02 -0.76865476786E+03  0.77502656630E+03  0.83773479971E+02 0.  0.
          6    2    1    2  501    0  0.55624505877E+02  0.18615690033E+02 -0.43494791258E+03  0.47152466211E+03  0.17238094658E+03 0.  0.
         24    2    5    5    0    0  0.32979190544E+02 -0.43175017174E+02 -0.14225171628E+03  0.17148457289E+03  0.78865067293E+02 0.  0.
          5    1    5    5  501    0  0.22645315332E+02  0.61790707207E+02 -0.29269619631E+03  0.30004008922E+03  0.47000000000E+01 0. -1.
        -11    1    6    6    0    0  0.54287694528E+02 -0.43031798093E+02 -0.12890744735E+03  0.14634213134E+03  0.00000000000E+00 0.  1.
         12    1    6    6    0    0 -0.21308503984E+02 -0.14321908108E+00 -0.13344268929E+02  0.25142441548E+02  0.00000000000E+00 0. -1.
         -5    1    3    3    0  503 -0.62087993616E+01  0.77808024364E+00  0.54505766651E+01  0.95369483778E+01  0.47000000000E+01 0.  1.
         13    1    4    4    0    0  0.15219540419E+02 -0.29745439445E+02 -0.23179346782E+03  0.23418931936E+03  0.00000000000E+00 0. -1.
        -14    1    4    4    0    0 -0.64635246934E+02  0.10351669168E+02 -0.53686130004E+03  0.54083724694E+03  0.00000000000E+00 0.  1.
</event>
<event>
12    1  0.8416569E-002  0.2046195E+03  0.7818608E-02  0.1146030E+00
         21   -1    0    0  503  502  0.00000000000E+00  0.00000000000E+00  0.17499934667E+04  0.17499934667E+04  0.00000000000E+00 0. -1.
         21   -1    0    0  501  503 -0.00000000000E+00 -0.00000000000E+00 -0.37218239677E+02  0.37218239677E+02  0.00000000000E+00 0. -1.
          6    2    1    2  501    0  0.11083656096E+03 -0.10296041506E+02  0.31999446913E+03  0.37948042479E+03  0.17093326420E+03 0.  0.
         24    2    3    3    0    0  0.33647365515E+02 -0.66665166072E+02  0.13910345908E+03  0.17483610502E+03  0.75109930880E+02 0.  0.
         -6    2    1    2    0  502 -0.11083656096E+03  0.10296041506E+02  0.13927807579E+04  0.14077312816E+04  0.17169266111E+03 0.  0.
        -24    2    5    5    0    0 -0.12468889693E+03  0.51808018615E+02  0.94704945097E+03  0.95983216412E+03  0.78381942340E+02 0.  0.
          5    1    3    3  501    0  0.77189195449E+02  0.56369124567E+02  0.18089101005E+03  0.20464431977E+03  0.47000000000E+01 0. -1.
        -11    1    4    4    0    0  0.22097889595E+02  0.11133689469E+02  0.51307107149E+02  0.56962224410E+02  0.00000000000E+00 0.  1.
         12    1    4    4    0    0  0.11549475920E+02 -0.77798855541E+02  0.87796351934E+02  0.11787388061E+03  0.00000000000E+00 0. -1.
         -5    1    5    5    0  502  0.13852335969E+02 -0.41511977109E+02  0.44573130694E+03  0.44789911749E+03  0.47000000000E+01 0.  1.
         11    1    6    6    0    0 -0.11439496323E+02  0.40440456369E+02  0.28166562220E+03  0.28478380452E+03  0.00000000000E+00 0. -1.
        -12    1    6    6    0    0 -0.11324940061E+03  0.11367562245E+02  0.66538382877E+03  0.67504835960E+03  0.00000000000E+00 0.  1.
</event>
<event>
12    1  0.8416569E-002  0.1889504E+03  0.7818608E-02  0.1159712E+00
         21   -1    0    0  503  502  0.00000000000E+00  0.00000000000E+00  0.15982711878E+03  0.15982711878E+03  0.00000000000E+00 0. -1.
         21   -1    0    0  501  503 -0.00000000000E+00 -0.00000000000E+00 -0.47126344104E+03  0.47126344104E+03  0.00000000000E+00 0. -1.
          6    2    1    2  501    0 -0.34306343869E+02  0.70514250872E+02 -0.38502923267E+03  0.42831441950E+03  0.17045981091E+03 0.  0.
         24    2    3    3    0    0  0.23974062063E+02 -0.13344050826E+01 -0.25632991605E+03  0.26974443755E+03  0.80501549283E+02 0.  0.
         -6    2    1    2    0  502  0.34306343869E+02 -0.70514250872E+02  0.73592910413E+02  0.20277614032E+03  0.17191003988E+03 0.  0.
        -24    2    5    5    0    0  0.62321186778E+02  0.34598127083E+01  0.61710737154E+02  0.12264955580E+03  0.85666783711E+02 0.  0.
          5    1    3    3  501    0 -0.58280405932E+02  0.71848655955E+02 -0.12869931662E+03  0.15856998196E+03  0.47000000000E+01 0. -1.
        -11    1    4    4    0    0 -0.13694785801E+02  0.13587267967E+01 -0.36225442895E+01  0.14230815991E+02  0.00000000000E+00 0.  1.
         12    1    4    4    0    0  0.37668847864E+02 -0.26931318793E+01 -0.25270737176E+03  0.25551362155E+03  0.00000000000E+00 0. -1.
         -5    1    5    5    0  502 -0.28014842909E+02 -0.73974063580E+02  0.11882173260E+02  0.80126584522E+02  0.47000000000E+01 0.  1.
         13    1    6    6    0    0  0.49066951128E+02 -0.25514394319E+02  0.24403614439E+01  0.55357974804E+02  0.00000000000E+00 0. -1.
        -14    1    6    6    0    0  0.13254235650E+02  0.28974207027E+02  0.59270375710E+02  0.67291580991E+02  0.00000000000E+00 0.  1.
</event>
<event>
12    1  0.8416569E-002  0.2106369E+03  0.7818608E-02  0.1142544E+00
         21   -1    0    0  503  502  0.00000000000E+00  0.00000000000E+00  0.83260216387E+02  0.83260216387E+02  0.00000000000E+00 0. -1.
         21   -1    0    0  501  503 -0.00000000000E+00 -0.00000000000E+00 -0.99435021151E+03  0.99435021151E+03  0.00000000000E+00 0. -1.
          6    2    1    2  501    0  0.10348151190E+03  0.35200881569E+02 -0.83404650196E+03  0.86023338305E+03  0.18005660363E+03 0.  0.
         24    2    3    3    0    0 -0.90808981102E+01  0.21897997575E+02 -0.22031583157E+03  0.23610624164E+03  0.81517523830E+02 0.  0.
         -6    2    1    2    0  502 -0.10348151190E+03 -0.35200881569E+02 -0.77043493160E+02  0.21737704484E+03  0.17137547788E+03 0.  0.
        -24    2    5    5    0    0 -0.70803490002E+02  0.43125230746E+02 -0.67766126906E+02  0.13187270279E+03  0.76975593937E+02 0.  0.
          5    1    3    3  501    0  0.11256241001E+03  0.13302883994E+02 -0.61373067039E+03  0.62412714141E+03  0.47000000000E+01 0. -1.
        -13    1    4    4    0    0  0.20073463802E+02  0.42158499954E+02 -0.15348509748E+03  0.16043054016E+03  0.00000000000E+00 0.  1.
         14    1    4    4    0    0 -0.29154361912E+02 -0.20260502379E+02 -0.66830734095E+02  0.75675701482E+02  0.00000000000E+00 0. -1.
         -5    1    5    5    0  502 -0.32678021900E+02 -0.78326112314E+02 -0.92773662536E+01  0.85504342055E+02  0.47000000000E+01 0.  1.
         13    1    6    6    0    0 -0.67434068386E+02 -0.17139864543E+01 -0.33361333108E+02  0.75254700022E+02  0.00000000000E+00 0. -1.
        -14    1    6    6    0    0 -0.33694216158E+01  0.44839217200E+02 -0.34404793798E+02  0.56618002768E+02  0.00000000000E+00 0.  1.
</event>
<event>
12    1  0.8416569E-002  0.1887659E+03  0.7818608E-02  0.1159591E+00
         21   -1    0    0  503  502  0.00000000000E+00  0.00000000000E+00  0.62585399479E+03  0.62585399479E+03  0.00000000000E+00 0. -1.
         21   -1    0    0  501  503 -0.00000000000E+00 -0.00000000000E+00 -0.10251027944E+03  0.10251027944E+03  0.00000000000E+00 0. -1.
          6    2    1    2  501    0 -0.37288147357E+01 -0.80175020043E+02  0.18780158341E+02  0.18964638811E+03  0.17079555110E+03 0.  0.
         24    2    3    3    0    0  0.18697526716E+02  0.94177044065E+00 -0.35218457319E+02  0.89542367295E+02  0.80168643296E+02 0.  0.
         -6    2    1    2    0  502  0.37288147357E+01  0.80175020043E+02  0.50456355700E+03  0.53871788612E+03  0.17085268470E+03 0.  0.
        -24    2    5    5    0    0  0.21415725786E+02 -0.19360924361E+02  0.26992759516E+03  0.28318637018E+03  0.80623414213E+02 0.  0.
          5    1    3    3  501    0 -0.22426341452E+02 -0.81116790483E+02  0.53998615661E+02  0.10010402081E+03  0.47000000000E+01 0. -1.
        -11    1    4    4    0    0 -0.42537306472E+01  0.34997405029E+02  0.28437389179E+00  0.35256112260E+02  0.00000000000E+00 0.  1.
         12    1    4    4    0    0  0.22951257364E+02 -0.34055634588E+02 -0.35502831211E+02  0.54286255035E+02  0.00000000000E+00 0. -1.
         -5    1    5    5    0  502 -0.17686911051E+02  0.99535944404E+02  0.23463596184E+03  0.25553151594E+03  0.47000000000E+01 0.  1.
         13    1    6    6    0    0 -0.77568181767E+01  0.20185586368E+02  0.17463367035E+03  0.17596745422E+03  0.00000000000E+00 0. -1.
        -14    1    6    6    0    0  0.29172543963E+02 -0.39546510729E+02  0.95293924818E+02  0.10721891596E+03  0.00000000000E+00 0.  1.
</event>
<event>
12    1  0.8416569E-002  0.1820849E+03  0.7818608E-02  0.1167136E+00
         21   -1    0    0  501  502  0.00000000000E+00  0.00000000000E+00  0.44998552540E+03  0.44998552540E+03  0.00000000000E+00 0. -1.
         21   -1    0    0  502  503 -0.00000000000E+00 -0.00000000000E+00 -0.10699435095E+03  0.10699435095E+03  0.00000000000E+00 0. -1.
         -6    2    1    2    0  503 -0.58982512508E+02 -0.75599219345E+01  0.92703913910E+01  0.17681614950E+03  0.16625859787E+03 0.  0.
        -24    2    3    3    0    0  0.11934482689E+02 -0.98915687580E+01 -0.39975114871E+02  0.90318365294E+02  0.79492907173E+02 0.  0.
          6    2    1    2  501    0  0.58982512508E+02  0.75599219345E+01  0.33372078306E+03  0.38016372686E+03  0.17210115911E+03 0.  0.
         24    2    5    5    0    0  0.74572442357E+02  0.14781739472E+00  0.10475619683E+03  0.15050124199E+03  0.78202890336E+02 0.  0.
          5    1    5    5  501    0 -0.15589929849E+02  0.74121045397E+01  0.22896458624E+03  0.22966248487E+03  0.47000000000E+01 0. -1.
        -13    1    6    6    0    0  0.50699665316E+02 -0.12212269258E+02  0.11123147598E+03  0.12284965133E+03  0.00000000000E+00 0.  1.
         14    1    6    6    0    0  0.23872777041E+02  0.12360086653E+02 -0.64752791527E+01  0.27651590656E+02  0.00000000000E+00 0. -1.
         -5    1    3    3    0  503 -0.70916995197E+02  0.23316468236E+01  0.49245506262E+02  0.86497784201E+02  0.47000000000E+01 0.  1.
         11    1    4    4    0    0 -0.67243738304E+01 -0.40264206035E+02 -0.63452336692E+01  0.41312050074E+02  0.00000000000E+00 0. -1.
        -12    1    4    4    0    0  0.18658856520E+02  0.30372637277E+02 -0.33629881202E+02  0.49006315220E+02  0.00000000000E+00 0.  1.
</event>
<event>
12    1  0.8416569E-002  0.2028572E+03  0.7818608E-02  0.1147784E+00
         21   -1    0    0  501  502  0.00000000000E+00  0.00000000000E+00  0.79491782165E+03  0.79491782165E+03  0.00000000000E+00 0.  1.
         21   -1    0    0  502  503 -0.00000000000E+00 -0.00000000000E+00 -0.52375475191E+02  0.52375475191E+02  0.00000000000E+00 0.  1.
         -6    2    1    2    0  503  0.10222843236E+02  0.10419863136E+03  0.43557498251E+03  0.48049620148E+03  0.17375031782E+03 0.  0.
        -24    2    3    3    0    0  0.52225209404E+02  0.14611940189E+02  0.15654405616E+03  0.18440445580E+03  0.80981358999E+02 0.  0.
          6    2    1    2  501    0 -0.10222843236E+02 -0.10419863136E+03  0.30696736395E+03  0.36679709537E+03  0.17131633120E+03 0.  0.
         24    2    5    5    0    0 -0.20436005405E+02 -0.85560931706E+02  0.90626896423E+02  0.14936443816E+03  0.79738307482E+02 0.  0.
          5    1    5    5  501    0  0.10213162169E+02 -0.18637699657E+02  0.21634046753E+03  0.21743265721E+03  0.47000000000E+01 0. -1.
        -11    1    6    6    0    0 -0.18187399601E+02 -0.74825291488E+01  0.63820450565E+02  0.66781881203E+02  0.00000000000E+00 0.  1.
         12    1    6    6    0    0 -0.22486058045E+01 -0.78078402557E+02  0.26806445858E+02  0.82582556957E+02  0.00000000000E+00 0. -1.
         -5    1    3    3    0  503 -0.42002366168E+02  0.89586691173E+02  0.27903092635E+03  0.29609174568E+03  0.47000000000E+01 0.  1.
         11    1    4    4    0    0  0.46484717069E+01  0.10787969648E+02 -0.72457489364E+01  0.13801791767E+02  0.00000000000E+00 0. -1.
        -12    1    4    4    0    0  0.47576737697E+02  0.38239705412E+01  0.16378980509E+03  0.17060266403E+03  0.00000000000E+00 0.  1.
</event>
<event>
12    1  0.8416569E-002  0.1768455E+03  0.7818608E-02  0.1171085E+00
         21   -1    0    0  501  502  0.00000000000E+00  0.00000000000E+00  0.23580313024E+03  0.23580313024E+03  0.00000000000E+00 0. -1.
         21   -1    0    0  502  503 -0.00000000000E+00 -0.00000000000E+00 -0.32880972219E+03  0.32880972219E+03  0.00000000000E+00 0. -1.
         -6    2    1    2    0  503  0.33711810286E+02  0.21018050725E+02 -0.26484607367E+03  0.31802989723E+03  0.17152646497E+03 0.  0.
        -24    2    3    3    0    0  0.26697475059E+02  0.79596036960E+02 -0.15903396833E+03  0.19679098843E+03  0.79916242220E+02 0.  0.
          6    2    1    2  501    0 -0.33711810286E+02 -0.21018050725E+02  0.17183948172E+03  0.24658295520E+03  0.17232556892E+03 0.  0.
         24    2    5    5    0    0  0.26649140879E+02 -0.55496827456E+02  0.67923095378E+02  0.12147126181E+03  0.79697214463E+02 0.  0.
          5    1    5    5  501    0 -0.60360951165E+02  0.34478776731E+02  0.10391638635E+03  0.12511169338E+03  0.47000000000E+01 0. -1.
        -13    1    6    6    0    0  0.49716868524E+02 -0.12110390218E+02  0.29251582056E+02  0.58941357465E+02  0.00000000000E+00 0.  1.
         14    1    6    6    0    0 -0.23067727645E+02 -0.43386437239E+02  0.38671513322E+02  0.62529904347E+02  0.00000000000E+00 0. -1.
         -5    1    3    3    0  503  0.70143352266E+01 -0.58577986235E+02 -0.10581210534E+03  0.12123890880E+03  0.47000000000E+01 0.  1.
         13    1    4    4    0    0  0.28104989406E+02 -0.82089596273E+00 -0.76704114023E+02  0.81695075786E+02  0.00000000000E+00 0. -1.
        -14    1    4    4    0    0 -0.14075143468E+01  0.80416932923E+02 -0.82329854308E+02  0.11509591265E+03  0.00000000000E+00 0.  1.
</event>
<event>
12    1  0.8416569E-002  0.1911899E+03  0.7818608E-02  0.1157694E+00
         21   -1    0    0  503  502  0.00000000000E+00  0.00000000000E+00  0.48428082616E+02  0.48428082616E+02  0.00000000000E+00 0. -1.
         21   -1    0    0  501  503 -0.00000000000E+00 -0.00000000000E+00 -0.17188395387E+04  0.17188395387E+04  0.00000000000E+00 0.  1.
          6    2    1    2  501    0  0.69737293415E+02 -0.39616530039E+02 -0.15000661321E+04  0.15122010377E+04  0.17355350219E+03 0.  0.
         24    2    3    3    0    0  0.64002203700E+02  0.35982188509E+02 -0.70721371506E+03  0.71571807947E+03  0.81915386494E+02 0.  0.
         -6    2    1    2    0  502 -0.69737293415E+02  0.39616530039E+02 -0.17034532391E+03  0.25506658357E+03  0.17207170927E+03 0.  0.
        -24    2    5    5    0    0 -0.10167984927E+03  0.64157959810E+02 -0.15643243693E+03  0.21219156667E+03  0.78096850679E+02 0.  0.
          5    1    3    3  501    0  0.57350897147E+01 -0.75598718548E+02 -0.79285241708E+03  0.79648295824E+03  0.47000000000E+01 0. -1.
        -11    1    4    4    0    0  0.43307785837E+01 -0.22250464030E+02 -0.24483808155E+03  0.24588518656E+03  0.00000000000E+00 0.  1.
         12    1    4    4    0    0  0.59671425116E+02  0.58232652540E+02 -0.46237563351E+03  0.46983289291E+03  0.00000000000E+00 0. -1.
         -5    1    5    5    0  502  0.31942555860E+02 -0.24541429771E+02 -0.13912886981E+02  0.42875016901E+02  0.47000000000E+01 0.  1.
         11    1    6    6    0    0 -0.34021291724E+02 -0.16676957154E+02 -0.44211675435E+02  0.58225779817E+02  0.00000000000E+00 0. -1.
        -12    1    6    6    0    0 -0.67658557550E+02  0.80834916964E+02 -0.11222076149E+03  0.15396578685E+03  0.00000000000E+00 0.  1.
</event>
<event>
12    1  0.8416569E-002  0.2978784E+03  0.7818608E-02  0.1086617E+00
         21   -1    0    0  503  502  0.00000000000E+00  0.00000000000E+00  0.32656157772E+03  0.32656157772E+03  0.00000000000E+00 0.  1.
         21   -1    0    0  501  503 -0.00000000000E+00 -0.00000000000E+00 -0.28006765428E+03  0.28006765428E+03  0.00000000000E+00 0.  1.
          6    2    1    2  501    0  0.51013634869E+02 -0.23389080969E+03  0.82124966637E+02  0.30662737500E+03  0.17311422574E+03 0.  0.
         24    2    3    3    0    0 -0.99573258476E+01 -0.73008349680E+02 -0.12234171497E+02  0.11034604390E+03  0.81223192446E+02 0.  0.
         -6    2    1    2    0  502 -0.51013634869E+02  0.23389080969E+03 -0.35631043189E+02  0.30000185700E+03  0.17726883868E+03 0.  0.
        -24    2    5    5    0    0 -0.78489743293E+02  0.72160415048E+02 -0.44009841562E+01  0.13294179693E+03  0.79286741681E+02 0.  0.
          5    1    3    3  501    0  0.60970960717E+02 -0.16088246001E+03  0.94359138134E+02  0.19628133110E+03  0.47000000000E+01 0. -1.
        -11    1    4    4    0    0  0.21954160942E+02 -0.59447564345E+02  0.16307553036E+02  0.65436491160E+02  0.00000000000E+00 0.  1.
         12    1    4    4    0    0 -0.31911486790E+02 -0.13560785334E+02 -0.28541724533E+02  0.44909552740E+02  0.00000000000E+00 0. -1.
         -5    1    5    5    0  502  0.27476108424E+02  0.16173039464E+03 -0.31230059033E+02  0.16706006007E+03  0.47000000000E+01 0.  1.
         13    1    6    6    0    0  0.10924796498E+01 -0.79653796317E+01 -0.17494969541E+02  0.19253953975E+02  0.00000000000E+00 0. -1.
        -14    1    6    6    0    0 -0.79582222943E+02  0.80125794679E+02  0.13093985384E+02  0.11368784295E+03  0.00000000000E+00 0.  1.
</event>
<event>
12    1  0.8416569E-002  0.1886201E+03  0.7818608E-02  0.1161533E+00
         21   -1    0    0  503  502  0.00000000000E+00  0.00000000000E+00  0.44123681446E+02  0.44123681446E+02  0.00000000000E+00 0. -1.
         21   -1    0    0  501  503 -0.00000000000E+00 -0.00000000000E+00 -0.14845258561E+04  0.14845258561E+04  0.00000000000E+00 0. -1.
          6    2    1    2  501    0  0.64022824141E+02  0.36782584136E+02 -0.12571451067E+04  0.12712164892E+04  0.17356745803E+03 0.  0.
         24    2    3    3    0    0  0.83902799585E+02 -0.15045683716E+02 -0.10519397824E+04  0.10585837120E+04  0.82195603743E+02 0.  0.
         -6    2    1    2    0  502 -0.64022824141E+02 -0.36782584136E+02 -0.18325706789E+03  0.25743304833E+03  0.16503557475E+03 0.  0.
        -24    2    5    5    0    0 -0.36301042817E+02 -0.40927314355E+02 -0.29754073688E+02  0.10132111676E+03  0.79924045389E+02 0.  0.
          5    1    3    3  501    0 -0.19879975444E+02  0.51828267852E+02 -0.20520532438E+03  0.21263277717E+03  0.47000000000E+01 0. -1.
        -13    1    4    4    0    0  0.11076394719E+02 -0.17163599063E+01 -0.13670396396E+02  0.17678013150E+02  0.00000000000E+00 0.  1.
         14    1    4    4    0    0  0.72826404866E+02 -0.13329323809E+02 -0.10382693860E+04  0.10409056989E+04  0.00000000000E+00 0. -1.
         -5    1    5    5    0  502 -0.27721781324E+02  0.41447302186E+01 -0.15350299420E+03  0.15611193156E+03  0.47000000000E+01 0.  1.
         11    1    6    6    0    0  0.21931863700E+02 -0.29700764511E+02 -0.17064223323E+02  0.40673452958E+02  0.00000000000E+00 0. -1.
        -12    1    6    6    0    0 -0.58232906517E+02 -0.11226549844E+02 -0.12689850365E+02  0.60647663806E+02  0.00000000000E+00 0.  1.
</event>
<event>
12    1  0.8416569E-002  0.2294274E+03  0.7818608E-02  0.1127251E+00
         21   -1    0    0  501  502  0.00000000000E+00  0.00000000000E+00  0.27742698490E+03  0.27742698490E+03  0.00000000000E+00 0. -1.
         21   -1    0    0  502  503 -0.00000000000E+00 -0.00000000000E+00 -0.20008829258E+03  0.20008829258E+03  0.00000000000E+00 0. -1.
         -6    2    1    2    0  503  0.48288034465E+02  0.14226576696E+03  0.95565486311E+02  0.24853507490E+03  0.17339445943E+03 0.  0.
        -24    2    3    3    0    0  0.40442266352E+02  0.28525230582E+02  0.95067619613E+02  0.13442633920E+03  0.81137677337E+02 0.  0.
          6    2    1    2  501    0 -0.48288034465E+02 -0.14226576696E+03 -0.18226793996E+02  0.22898020258E+03  0.17183839627E+03 0.  0.
         24    2    5    5    0    0 -0.89292148595E+02 -0.76471526578E+02 -0.39865546524E+02  0.14835424489E+03  0.81232616592E+02 0.  0.
          5    1    5    5  501    0  0.41004114129E+02 -0.65794240382E+02  0.21638752529E+02  0.80625957693E+02  0.47000000000E+01 0. -1.
        -13    1    6    6    0    0 -0.69085276142E+00  0.44450498402E+01  0.15548515349E+02  0.16186169256E+02  0.00000000000E+00 0.  1.
         14    1    6    6    0    0 -0.88601295833E+02 -0.80916576419E+02 -0.55414061873E+02  0.13216807563E+03  0.00000000000E+00 0. -1.
         -5    1    3    3    0  503  0.78457681138E+01  0.11374053638E+03  0.49786669805E+00  0.11410873570E+03  0.47000000000E+01 0.  1.
         13    1    4    4    0    0 -0.19995858947E+02 -0.44489397958E+00  0.49479091128E+02  0.53368649641E+02  0.00000000000E+00 0. -1.
        -14    1    4    4    0    0  0.60438125299E+02  0.28970124562E+02  0.45588528486E+02  0.81057689556E+02  0.00000000000E+00 0.  1.
</event>
<event>
12    1  0.8416569E-002  0.2527867E+03  0.7818608E-02  0.1111709E+00
         21   -1    0    0  503  502  0.00000000000E+00  0.00000000000E+00  0.56783404523E+03  0.56783404523E+03  0.00000000000E+00 0.  1.
         21   -1    0    0  501  503 -0.00000000000E+00 -0.00000000000E+00 -0.11210564973E+03  0.11210564973E+03  0.00000000000E+00 0.  1.
          6    2    1    2  501    0  0.16270168296E+03 -0.87282361885E+02  0.23007082165E+03  0.34108506959E+03  0.17122030658E+03 0.  0.
         24    2    3    3    0    0  0.24856279803E+02 -0.40227086783E+02  0.14739061777E+03  0.17353310690E+03  0.78445470404E+02 0.  0.
         -6    2    1    2    0  502 -0.16270168296E+03  0.87282361885E+02  0.22565757385E+03  0.33885462538E+03  0.17265882015E+03 0.  0.
        -24    2    5    5    0    0 -0.66434458644E+02  0.10124910824E+03  0.17320088576E+03  0.22823707431E+03  0.86189883656E+02 0.  0.
          5    1    3    3  501    0  0.13784540316E+03 -0.47055275102E+02  0.82680203884E+02  0.16755196269E+03  0.47000000000E+01 0. -1.
        -11    1    4    4    0    0  0.20677385258E+02 -0.59024494338E+02  0.70386830790E+02  0.94158117768E+02  0.00000000000E+00 0.  1.
         12    1    4    4    0    0  0.41788945447E+01  0.18797407555E+02  0.77003786978E+02  0.79374989130E+02  0.00000000000E+00 0. -1.
         -5    1    5    5    0  502 -0.96267224315E+02 -0.13966746355E+02  0.52456688086E+02  0.11061755108E+03  0.47000000000E+01 0.  1.
         13    1    6    6    0    0 -0.55013253113E+02  0.11418510602E+03  0.12927631858E+03  0.18104436749E+03  0.00000000000E+00 0. -1.
        -14    1    6    6    0    0 -0.11421205530E+02 -0.12935997781E+02  0.43924567179E+02  0.47192706812E+02  0.00000000000E+00 0.  1.
</event>
<event>
12    1  0.8416569E-002  0.5418206E+03  0.7818608E-02  0.1003419E+00
         21   -1    0    0  501  502  0.00000000000E+00  0.00000000000E+00  0.48951957141E+03  0.48951957141E+03  0.00000000000E+00 0.  1.
         21   -1    0    0  502  503 -0.00000000000E+00 -0.00000000000E+00 -0.83989549772E+03  0.83989549772E+03  0.00000000000E+00 0.  1.
         -6    2    1    2    0  503  0.47836528162E+03 -0.18755726386E+03 -0.53086949193E+03  0.75854598012E+03  0.17192590444E+03 0.  0.
        -24    2    3    3    0    0  0.30815005439E+03 -0.15115522749E+03 -0.26716584567E+03  0.44253959588E+03  0.81604816107E+02 0.  0.
          6    2    1    2  501    0 -0.47836528162E+03  0.18755726386E+03  0.18049356562E+03  0.57086908902E+03  0.17117978758E+03 0.  0.
         24    2    5    5    0    0 -0.40269308534E+03  0.20030537747E+03  0.18736848970E+03  0.49368003362E+03  0.79555386025E+02 0.  0.
          5    1    5    5  501    0 -0.75672196285E+02 -0.12748113612E+02 -0.68749240801E+01  0.77189055392E+02  0.47000000000E+01 0. -1.
        -13    1    6    6    0    0 -0.31257845396E+03  0.18073192220E+03  0.12390014889E+03  0.38173363027E+03  0.00000000000E+00 0.  1.
         14    1    6    6    0    0 -0.90114631373E+02  0.19573455268E+02  0.63468340807E+02  0.11194640335E+03  0.00000000000E+00 0. -1.
         -5    1    3    3    0  503  0.17021522723E+03 -0.36402036368E+02 -0.26370364626E+03  0.31600638424E+03  0.47000000000E+01 0.  1.
         11    1    4    4    0    0  0.10719183772E+02 -0.27231904511E+02 -0.12441270531E+02  0.31800357489E+02  0.00000000000E+00 0. -1.
        -12    1    4    4    0    0  0.29743087062E+03 -0.12392332298E+03 -0.25472457514E+03  0.41073923839E+03  0.00000000000E+00 0.  1.
</event>
<event>
12    1  0.8416569E-002  0.1758313E+03  0.7818608E-02  0.1172939E+00
         21   -1    0    0  503  502  0.00000000000E+00  0.00000000000E+00  0.76082633252E+03  0.76082633252E+03  0.00000000000E+00 0.  1.
         21   -1    0    0  501  503 -0.00000000000E+00 -0.00000000000E+00 -0.40242031210E+02  0.40242031210E+02  0.00000000000E+00 0.  1.
          6    2    1    2  501    0  0.27430006079E+01 -0.20972466277E+02  0.40296964985E+03  0.43803156447E+03  0.17041051724E+03 0.  0.
         24    2    3    3    0    0  0.21747335229E+02  0.20205478789E+02  0.37514060016E+03  0.38461495750E+03  0.79479479636E+02 0.  0.
         -6    2    1    2    0  502 -0.27430006079E+01  0.20972466277E+02  0.31761465147E+03  0.36303679926E+03  0.17455452556E+03 0.  0.
        -24    2    5    5    0    0  0.48834816006E+02  0.22491716215E+02  0.98053253852E+02  0.13744451967E+03  0.79911443759E+02 0.  0.
          5    1    3    3  501    0 -0.19004334621E+02 -0.41177945066E+02  0.27829049691E+02  0.53416606977E+02  0.47000000000E+01 0. -1.
        -11    1    4    4    0    0  0.35384481177E+02  0.30636616631E+02  0.11861474333E+03  0.12751517997E+03  0.00000000000E+00 0.  1.
         12    1    4    4    0    0 -0.13637145949E+02 -0.10431137841E+02  0.25652585682E+03  0.25709977753E+03  0.00000000000E+00 0. -1.
         -5    1    5    5    0  502 -0.51577816614E+02 -0.15192499384E+01  0.21956139761E+03  0.22559227959E+03  0.47000000000E+01 0.  1.
         13    1    6    6    0    0 -0.13943334980E+02  0.46217907921E+01 -0.49504535727E+01  0.15501113866E+02  0.00000000000E+00 0. -1.
        -14    1    6    6    0    0  0.62778150986E+02  0.17869925423E+02  0.10300370742E+03  0.12194340580E+03  0.00000000000E+00 0.  1.
</event>
<event>
12    1  0.8416569E-002  0.1785390E+03  0.7818608E-02  0.1173365E+00
         21   -1    0    0  501  502  0.00000000000E+00  0.00000000000E+00  0.79948462267E+02  0.79948462267E+02  0.00000000000E+00 0.  1.
         21   -1    0    0  502  503 -0.00000000000E+00 -0.00000000000E+00 -0.36371271381E+03  0.36371271381E+03  0.00000000000E+00 0.  1.
         -6    2    1    2    0  503 -0.11246179493E+01 -0.52547826571E+02 -0.14412638207E+03  0.22945281878E+03  0.17062720532E+03 0.  0.
        -24    2    3    3    0    0 -0.32099463334E+02  0.25402214966E+02 -0.10365352053E+03  0.13620158531E+03  0.78301797244E+02 0.  0.
          6    2    1    2  501    0  0.11246179493E+01  0.52547826571E+02 -0.13963786947E+03  0.21420835730E+03  0.15370083572E+03 0.  0.
         24    2    5    5    0    0 -0.34439496522E+02  0.55980149906E+02 -0.44345137110E+02  0.11232910562E+03  0.79570601852E+02 0.  0.
          5    1    5    5  501    0  0.35564114471E+02 -0.34323233350E+01 -0.95292732365E+02  0.10187925168E+03  0.47000000000E+01 0. -1.
        -13    1    6    6    0    0  0.15663889699E+02 -0.22846870228E+01  0.95327074343E+01  0.18478358864E+02  0.00000000000E+00 0.  1.
         14    1    6    6    0    0 -0.50103386221E+02  0.58264836929E+02 -0.53877844544E+02  0.93850746752E+02  0.00000000000E+00 0. -1.
         -5    1    3    3    0  503  0.30974845384E+02 -0.77950041537E+02 -0.40472861540E+02  0.93251233469E+02  0.47000000000E+01 0.  1.
         11    1    4    4    0    0  0.11017344222E+02 -0.51130191259E+01  0.66897996148E+01  0.13866443566E+02  0.00000000000E+00 0. -1.
        -12    1    4    4    0    0 -0.43116807555E+02  0.30515234092E+02 -0.11034332014E+03  0.12233514174E+03  0.00000000000E+00 0.  1.
</event>
<event>
12    1  0.8416569E-002  0.1890544E+03  0.7818608E-02  0.1159375E+00
         21   -1    0    0  501  502  0.00000000000E+00  0.00000000000E+00  0.10929468147E+04  0.10929468147E+04  0.00000000000E+00 0.  1.
         21   -1    0    0  502  503 -0.00000000000E+00 -0.00000000000E+00 -0.39031700913E+02  0.39031700913E+02  0.00000000000E+00 0.  1.
         -6    2    1    2    0  503 -0.76792871598E+02 -0.13919959591E+02  0.75537623755E+03  0.77861321220E+03  0.17191382595E+03 0.  0.
        -24    2    3    3    0    0 -0.78705611936E+02 -0.32448841205E+02  0.28425318192E+03  0.30709862963E+03  0.79134039721E+02 0.  0.
          6    2    1    2  501    0  0.76792871598E+02  0.13919959591E+02  0.29853887628E+03  0.35336530346E+03  0.17219368930E+03 0.  0.
         24    2    5    5    0    0  0.70562530400E+02  0.48354535255E+02  0.11016251531E+03  0.16170857770E+03  0.81833077350E+02 0.  0.
          5    1    5    5  501    0  0.62303411984E+01 -0.34434575663E+02  0.18837636098E+03  0.19165672576E+03  0.47000000000E+01 0. -1.
        -13    1    6    6    0    0  0.75091253914E+02  0.19765588766E+02  0.43431058691E+02  0.88969836309E+02  0.00000000000E+00 0.  1.
         14    1    6    6    0    0 -0.45287235147E+01  0.28588946488E+02  0.66731456614E+02  0.72738741396E+02  0.00000000000E+00 0. -1.
         -5    1    3    3    0  503  0.19127403378E+01  0.18528881614E+02  0.47112305563E+03  0.47151458257E+03  0.47000000000E+01 0.  1.
         11    1    4    4    0    0  0.25614865700E+01  0.18176818534E+02  0.27402485680E+02  0.32982634323E+02  0.00000000000E+00 0. -1.
        -12    1    4    4    0    0 -0.81267098506E+02 -0.50625659739E+02  0.25685069624E+03  0.27411599530E+03  0.00000000000E+00 0.  1.
</event>
<event>
12    1  0.8416569E-002  0.2762421E+03  0.7818608E-02  0.1097978E+00
         21   -1    0    0  501  502  0.00000000000E+00  0.00000000000E+00  0.18185533858E+04  0.18185533858E+04  0.00000000000E+00 0. -1.
         21   -1    0    0  502  503 -0.00000000000E+00 -0.00000000000E+00 -0.41900363575E+02  0.41900363575E+02  0.00000000000E+00 0. -1.
         -6    2    1    2    0  503  0.10546076400E+03 -0.18734074291E+03  0.94619555860E+03  0.98525701957E+03  0.17095857041E+03 0.  0.
        -24    2    3    3    0    0  0.76839021605E+02 -0.17553435680E+03  0.55367606402E+03  0.59149028848E+03  0.81160531244E+02 0.  0.
          6    2    1    2  501    0 -0.10546076400E+03  0.18734074291E+03  0.83045746363E+03  0.87519672981E+03  0.17346812466E+03 0.  0.
         24    2    5    5    0    0 -0.14142218894E+02  0.50579528787E+02  0.47127794209E+03  0.48013379170E+03  0.75281260283E+02 0.  0.
          5    1    5    5  501    0 -0.91318545109E+02  0.13676121413E+03  0.35917952154E+03  0.39506293810E+03  0.47000000000E+01 0. -1.
        -13    1    6    6    0    0  0.28484668429E+02  0.11313227574E+02  0.10811195114E+03  0.11237241402E+03  0.00000000000E+00 0.  1.
         14    1    6    6    0    0 -0.42626887323E+02  0.39266301214E+02  0.36316599095E+03  0.36776137768E+03  0.00000000000E+00 0. -1.
         -5    1    3    3    0  503  0.28621742397E+02 -0.11806386109E+02  0.39251949458E+03  0.39376673110E+03  0.47000000000E+01 0.  1.
         11    1    4    4    0    0  0.30587491195E+02 -0.15121737790E+03  0.38003794155E+03  0.41015987982E+03  0.00000000000E+00 0. -1.
        -12    1    4    4    0    0  0.46251530410E+02 -0.24316978907E+02  0.17363812247E+03  0.18133040866E+03  0.00000000000E+00 0.  1.
</event>
<event>
12    1  0.8416569E-002  0.1812384E+03  0.7818608E-02  0.1166960E+00
         21   -1    0    0  503  502  0.00000000000E+00  0.00000000000E+00  0.79927102471E+02  0.79927102471E+02  0.00000000000E+00 0.  1.
         21   -1    0    0  501  503 -0.00000000000E+00 -0.00000000000E+00 -0.60640002765E+03  0.60640002765E+03  0.00000000000E+00 0.  1.
          6    2    1    2  501    0  0.54604529914E+02 -0.48419214012E+01 -0.46039523172E+03  0.49478392306E+03  0.17274913093E+03 0.  0.
         24    2    3    3    0    0 -0.16596785655E+02 -0.45512372614E+02 -0.17980367436E+03  0.20241869770E+03  0.79354511583E+02 0.  0.
         -6    2    1    2    0  502 -0.54604529914E+02  0.48419214012E+01 -0.66077693451E+02  0.19154320705E+03  0.17122336203E+03 0.  0.
        -24    2    5    5    0    0 -0.31352880873E+02  0.20028591664E+02  0.29201915189E+02  0.92187442451E+02  0.79130430758E+02 0.  0.
          5    1    3    3  501    0  0.71201315569E+02  0.40670451213E+02 -0.28059155736E+03  0.29236522537E+03  0.47000000000E+01 0. -1.
        -13    1    4    4    0    0 -0.26447638029E+02 -0.56710717663E+02 -0.17633163413E+03  0.18710539342E+03  0.00000000000E+00 0.  1.
         14    1    4    4    0    0  0.98508523734E+01  0.11198345049E+02 -0.34720402342E+01  0.15313304271E+02  0.00000000000E+00 0. -1.
         -5    1    5    5    0  502 -0.23251649041E+02 -0.15186670263E+02 -0.95279608640E+02  0.99355764601E+02  0.47000000000E+01 0.  1.
         11    1    6    6    0    0 -0.44718325931E+02 -0.17177458387E+02  0.16328014435E+02  0.50610253962E+02  0.00000000000E+00 0. -1.
        -12    1    6    6    0    0  0.13365445059E+02  0.37206050051E+02  0.12873900754E+02  0.41577188489E+02  0.00000000000E+00 0.  1.
</event>
<event>
12    1  0.8416569E-002  0.2247444E+03  0.7818608E-02  0.1130511E+00
         21   -1    0    0  501  502  0.00000000000E+00  0.00000000000E+00  0.18960265232E+03  0.18960265232E+03  0.00000000000E+00 0.  1.
         21   -1    0    0  502  503 -0.00000000000E+00 -0.00000000000E+00 -0.54528346331E+03  0.54528346331E+03  0.00000000000E+00 0. -1.
         -6    2    1    2    0  503  0.29950061442E+02 -0.14036417277E+03 -0.44109980630E+03  0.49505461004E+03  0.17294773960E+03 0.  0.
        -24    2    3    3    0    0  0.54812506822E+02 -0.14574032945E+03 -0.43500642498E+03  0.46847899064E+03  0.77442368028E+02 0.  0.
          6    2    1    2  501    0 -0.29950061442E+02  0.14036417277E+03  0.85418995303E+02  0.23983150559E+03  0.17211519147E+03 0.  0.
         24    2    5    5    0    0 -0.10953223493E+02  0.93532744496E+02 -0.15484942882E+02  0.12688126315E+03  0.83610550075E+02 0.  0.
          5    1    5    5  501    0 -0.18996837949E+02  0.46831428276E+02  0.10090393818E+03  0.11295024244E+03  0.47000000000E+01 0. -1.
        -11    1    6    6    0    0 -0.19301484252E+02  0.74986076581E+01  0.24130692383E+02  0.31797275449E+02  0.00000000000E+00 0.  1.
         12    1    6    6    0    0  0.83482607583E+01  0.86034136838E+02 -0.39615635265E+02  0.95083987698E+02  0.00000000000E+00 0. -1.
         -5    1    3    3    0  503 -0.24862445380E+02  0.53761566799E+01 -0.60933813203E+01  0.26575619406E+02  0.47000000000E+01 0.  1.
         13    1    4    4    0    0 -0.18883873730E+02 -0.35378353120E+02 -0.12460775697E+03  0.13090195436E+03  0.00000000000E+00 0. -1.
        -14    1    4    4    0    0  0.73696380552E+02 -0.11036197633E+03 -0.31039866800E+03  0.33757703628E+03  0.00000000000E+00 0.  1.
</event>
<event>
12    1  0.8416569E-002  0.2274518E+03  0.7818608E-02  0.1129311E+00
         21   -1    0    0  501  502  0.00000000000E+00  0.00000000000E+00  0.73779728428E+02  0.73779728428E+02  0.00000000000E+00 0.  1.
         21   -1    0    0  502  503 -0.00000000000E+00 -0.00000000000E+00 -0.77894314784E+03  0.77894314784E+03  0.00000000000E+00 0.  1.
         -6    2    1    2    0  503  0.37422525066E+02 -0.14367009323E+03 -0.49613712873E+03  0.54381135556E+03  0.16594336041E+03 0.  0.
        -24    2    3    3    0    0  0.45065333587E+02 -0.14839470607E+02 -0.21331890433E+03  0.23290304126E+03  0.80546741129E+02 0.  0.
          6    2    1    2  501    0 -0.37422525066E+02  0.14367009323E+03 -0.20902629069E+03  0.30891152071E+03  0.17231597825E+03 0.  0.
         24    2    5    5    0    0 -0.66318444030E+02  0.10633423695E+03 -0.74544848697E+02  0.16630616129E+03  0.79973113283E+02 0.  0.
          5    1    5    5  501    0  0.28895918963E+02  0.37335856278E+02 -0.13448144199E+03  0.14260535943E+03  0.47000000000E+01 0. -1.
        -13    1    6    6    0    0 -0.87853823583E+01  0.16769737100E+02  0.17348344690E+02  0.25678241549E+02  0.00000000000E+00 0.  1.
         14    1    6    6    0    0 -0.57533061671E+02  0.89564499849E+02 -0.91893193386E+02  0.14062791974E+03  0.00000000000E+00 0. -1.
         -5    1    3    3    0  503 -0.76428085212E+01 -0.12883062262E+03 -0.28281822440E+03  0.31090831430E+03  0.47000000000E+01 0.  1.
         13    1    4    4    0    0  0.28822504847E+02 -0.94132080907E+01 -0.14967577869E+02  0.33813808710E+02  0.00000000000E+00 0. -1.
        -14    1    4    4    0    0  0.16242828740E+02 -0.54262625161E+01 -0.19835132646E+03  0.19908923255E+03  0.00000000000E+00 0.  1.
</event>
<event>
12    1  0.8416569E-002  0.2517746E+03  0.7818608E-02  0.1112327E+00
         21   -1    0    0  501  502  0.00000000000E+00  0.00000000000E+00  0.12748070321E+03  0.12748070321E+03  0.00000000000E+00 0. -1.
         21   -1    0    0  502  503 -0.00000000000E+00 -0.00000000000E+00 -0.50160647117E+03  0.50160647117E+03  0.00000000000E+00 0.  1.
         -6    2    1    2    0  503  0.16447317505E+03 -0.80702087315E+02 -0.22205694635E+03  0.33570784659E+03  0.17270268854E+03 0.  0.
        -24    2    3    3    0    0  0.17531802503E+03 -0.63981663425E+02 -0.23585504228E+03  0.31101653643E+03  0.79206198037E+02 0.  0.
          6    2    1    2  501    0 -0.16447317505E+03  0.80702087315E+02 -0.15206882161E+03  0.29337932780E+03  0.17141251782E+03 0.  0.
         24    2    5    5    0    0 -0.15801675618E+03  0.69228509646E+02 -0.17997619309E+03  0.26216651453E+03  0.81104682235E+02 0.  0.
          5    1    5    5  501    0 -0.64564188685E+01  0.11473577670E+02  0.27907371478E+02  0.31212813266E+02  0.47000000000E+01 0. -1.
        -11    1    6    6    0    0 -0.43649135041E+02  0.35664655164E+01 -0.96812563003E+02  0.10625741866E+03  0.00000000000E+00 0.  1.
         12    1    6    6    0    0 -0.11436762114E+03  0.65662044129E+02 -0.83163630084E+02  0.15590909587E+03  0.00000000000E+00 0. -1.
         -5    1    3    3    0  503 -0.10844849983E+02 -0.16720423891E+02  0.13798095926E+02  0.24691310160E+02  0.47000000000E+01 0.  1.
         11    1    4    4    0    0  0.40562551017E+02 -0.47613332414E+02 -0.46081896144E+02  0.77690997682E+02  0.00000000000E+00 0. -1.
        -12    1    4    4    0    0  0.13475547402E+03 -0.16368331010E+02 -0.18977314613E+03  0.23332553875E+03  0.00000000000E+00 0.  1.
</event>
<event>
12    1  0.8416569E-002  0.1875825E+03  0.7818608E-02  0.1160911E+00
         21   -1    0    0  501  502  0.00000000000E+00  0.00000000000E+00  0.86110131357E+02  0.86110131357E+02  0.00000000000E+00 0.  1.
         21   -1    0    0  502  503 -0.00000000000E+00 -0.00000000000E+00 -0.46569477803E+03  0.46569477803E+03  0.00000000000E+00 0.  1.
         -6    2    1    2    0  503  0.70036397935E+02 -0.56404407368E+01 -0.28884450313E+03  0.34441016139E+03  0.17392613567E+03 0.  0.
        -24    2    3    3    0    0  0.98479474559E+02 -0.48046492459E+02 -0.20228259790E+03  0.24380034443E+03  0.80707410955E+02 0.  0.
          6    2    1    2  501    0 -0.70036397935E+02  0.56404407368E+01 -0.90740143537E+02  0.20739474800E+03  0.17274807160E+03 0.  0.
         24    2    5    5    0    0 -0.16866873349E+02  0.42905594156E+02 -0.10462420704E+03  0.14083239210E+03  0.82232332685E+02 0.  0.
          5    1    5    5  501    0 -0.53169524586E+02 -0.37265153420E+02  0.13884063501E+02  0.66562355903E+02  0.47000000000E+01 0. -1.
        -13    1    6    6    0    0  0.14327979872E+02  0.49177165681E+02 -0.29174694179E+02  0.58947836365E+02  0.00000000000E+00 0.  1.
         14    1    6    6    0    0 -0.31194853221E+02 -0.62715715242E+01 -0.75449512858E+02  0.81884555732E+02  0.00000000000E+00 0. -1.
         -5    1    3    3    0  503 -0.28443076624E+02  0.42406051722E+02 -0.86561905232E+02  0.10060981696E+03  0.47000000000E+01 0.  1.
         11    1    4    4    0    0  0.24945176693E+02  0.10465872539E+02 -0.83700742755E+01  0.28317035008E+02  0.00000000000E+00 0. -1.
        -12    1    4    4    0    0  0.73534297866E+02 -0.58512364998E+02 -0.19391252363E+03  0.21548330942E+03  0.00000000000E+00 0.  1.
</event>
<event>
12    1  0.8416569E-002  0.2698510E+03  0.7818608E-02  0.1101372E+00
         21   -1    0    0  501  502  0.00000000000E+00  0.00000000000E+00  0.28611839674E+03  0.28611839674E+03  0.00000000000E+00 0. -1.
         21   -1    0    0  502  503 -0.00000000000E+00 -0.00000000000E+00 -0.43733566858E+03  0.43733566858E+03  0.00000000000E+00 0.  1.
         -6    2    1    2    0  503  0.20745240530E+03 -0.17165211202E+02 -0.30952213268E+03  0.41063791266E+03  0.17172186744E+03 0.  0.
        -24    2    3    3    0    0  0.10104868698E+03  0.17741649779E+02 -0.78977553562E+02  0.15429218288E+03  0.83922705238E+02 0.  0.
          6    2    1    2  501    0 -0.20745240530E+03  0.17165211202E+02  0.15830486084E+03  0.31281615266E+03  0.17164606449E+03 0.  0.
         24    2    5    5    0    0 -0.15983014456E+03 -0.27426368982E+02  0.52940957304E+02  0.18880030322E+03  0.80900733692E+02 0.  0.
          5    1    5    5  501    0 -0.47622260744E+02  0.44591580185E+02  0.10536390354E+03  0.12401584943E+03  0.47000000000E+01 0. -1.
        -13    1    6    6    0    0 -0.52964737794E+01  0.10955362863E+02 -0.11765323384E+02  0.16926176304E+02  0.00000000000E+00 0.  1.
         14    1    6    6    0    0 -0.15453367078E+03 -0.38381731845E+02  0.64706280687E+02  0.17187412692E+03  0.00000000000E+00 0. -1.
         -5    1    3    3    0  503  0.10640371832E+03 -0.34906860982E+02 -0.23054457912E+03  0.25634572978E+03  0.47000000000E+01 0.  1.
         11    1    4    4    0    0  0.97305130742E+02 -0.15945621820E+02 -0.60591258829E+02  0.11573181054E+03  0.00000000000E+00 0. -1.
        -12    1    4    4    0    0  0.37435562352E+01  0.33687271600E+02 -0.18386294733E+02  0.38560372342E+02  0.00000000000E+00 0.  1.
</event>
<event>
12    1  0.8416569E-002  0.2163703E+03  0.7818608E-02  0.1137159E+00
         21   -1    0    0  501  502  0.00000000000E+00  0.00000000000E+00  0.39830382029E+03  0.39830382029E+03  0.00000000000E+00 0. -1.
         21   -1    0    0  502  503 -0.00000000000E+00 -0.00000000000E+00 -0.11728372218E+03  0.11728372218E+03  0.00000000000E+00 0. -1.
         -6    2    1    2    0  503 -0.10297007164E+03  0.74324429723E+02  0.16642993274E+03  0.27074671249E+03  0.17169130235E+03 0.  0.
        -24    2    3    3    0    0 -0.85824889260E+02  0.11073393205E+03  0.88902209560E+02  0.18326958976E+03  0.77821747252E+02 0.  0.
          6    2    1    2  501    0  0.10297007164E+03 -0.74324429723E+02  0.11459016537E+03  0.24484082999E+03  0.17518324555E+03 0.  0.
         24    2    5    5    0    0  0.12843855005E+03 -0.20086332133E+02  0.10104075236E+03  0.18322840255E+03  0.80395845571E+02 0.  0.
          5    1    5    5  501    0 -0.25468478404E+02 -0.54238097590E+02  0.13549413011E+02  0.61612427442E+02  0.47000000000E+01 0. -1.
        -11    1    6    6    0    0  0.10242140109E+03 -0.18462854931E+01  0.10990402934E+03  0.15024129870E+03  0.00000000000E+00 0.  1.
         12    1    6    6    0    0  0.26017148959E+02 -0.18240046640E+02 -0.88632769743E+01  0.32987103846E+02  0.00000000000E+00 0. -1.
         -5    1    3    3    0  503 -0.17145182381E+02 -0.36409502322E+02  0.77527723178E+02  0.87477122720E+02  0.47000000000E+01 0.  1.
         11    1    4    4    0    0 -0.93426124268E+02  0.65132950121E+02  0.59687350808E+02  0.12858196504E+03  0.00000000000E+00 0. -1.
        -12    1    4    4    0    0  0.76012350086E+01  0.45600981924E+02  0.29214858752E+02  0.54687624724E+02  0.00000000000E+00 0.  1.
</event>
<event>
12    1  0.8416569E-002  0.2197348E+03  0.7818608E-02  0.1134403E+00
         21   -1    0    0  503  502  0.00000000000E+00  0.00000000000E+00  0.12433964476E+04  0.12433964476E+04  0.00000000000E+00 0.  1.
         21   -1    0    0  501  503 -0.00000000000E+00 -0.00000000000E+00 -0.39171930064E+02  0.39171930064E+02  0.00000000000E+00 0. -1.
          6    2    1    2  501    0  0.35647919785E+02 -0.13157426766E+03  0.68196191525E+03  0.71596303465E+03  0.17014244337E+03 0.  0.
         24    2    3    3    0    0  0.55567318909E+02 -0.29883277421E+02  0.45514358026E+03  0.46655075138E+03  0.80828137184E+02 0.  0.
         -6    2    1    2    0  502 -0.35647919785E+02  0.13157426766E+03  0.52226260229E+03  0.56660534302E+03  0.17233927844E+03 0.  0.
        -24    2    5    5    0    0 -0.78291073935E+02  0.13632233683E+03  0.41519362336E+03  0.45116341387E+03  0.80308214775E+02 0.  0.
          5    1    3    3  501    0 -0.19919399124E+02 -0.10169099024E+03  0.22681833499E+03  0.24941228327E+03  0.47000000000E+01 0. -1.
        -13    1    4    4    0    0 -0.12484445956E+02  0.38971667450E+01  0.19766151843E+03  0.19809372824E+03  0.00000000000E+00 0.  1.
         14    1    4    4    0    0  0.68051764866E+02 -0.33780444166E+02  0.25748206183E+03  0.26845702314E+03  0.00000000000E+00 0. -1.
         -5    1    5    5    0  502  0.42643154150E+02 -0.47480691654E+01  0.10706897893E+03  0.11544192915E+03  0.47000000000E+01 0.  1.
         11    1    6    6    0    0 -0.38888019648E+02  0.84068936066E+02  0.13699574453E+03  0.16537139445E+03  0.00000000000E+00 0. -1.
        -12    1    6    6    0    0 -0.39403054287E+02  0.52253400761E+02  0.27819787883E+03  0.28579201942E+03  0.00000000000E+00 0.  1.
</event>
<event>
12    1  0.8416569E-002  0.2366388E+03  0.7818608E-02  0.1122491E+00
         21   -1    0    0  501  502  0.00000000000E+00  0.00000000000E+00  0.12673005558E+03  0.12673005558E+03  0.00000000000E+00 0. -1.
         21   -1    0    0  502  503 -0.00000000000E+00 -0.00000000000E+00 -0.49226582510E+03  0.49226582510E+03  0.00000000000E+00 0. -1.
         -6    2    1    2    0  503 -0.14030378492E+03  0.71291805549E+02 -0.28727562525E+03  0.37218973438E+03  0.17672079649E+03 0.  0.
        -24    2    3    3    0    0 -0.12028936817E+03  0.90094381216E+02 -0.29764500068E+03  0.34246217686E+03  0.78110604423E+02 0.  0.
          6    2    1    2  501    0  0.14030378492E+03 -0.71291805549E+02 -0.78260144265E+02  0.24680614630E+03  0.17326554785E+03 0.  0.
         24    2    5    5    0    0  0.11959291654E+02 -0.30186845554E+02  0.80293625099E+01  0.86712749601E+02  0.80002249841E+02 0.  0.
          5    1    5    5  501    0  0.12834449327E+03 -0.41104959995E+02 -0.86289506775E+02  0.16009339670E+03  0.47000000000E+01 0. -1.
        -13    1    6    6    0    0  0.16373638938E+02  0.11590243283E+02 -0.25866365287E+02  0.32733753903E+02  0.00000000000E+00 0.  1.
         14    1    6    6    0    0 -0.44143472837E+01 -0.41777088837E+02  0.33895727797E+02  0.53978995698E+02  0.00000000000E+00 0. -1.
         -5    1    3    3    0  503 -0.20014416753E+02 -0.18802575666E+02  0.10369375430E+02  0.29727557526E+02  0.47000000000E+01 0.  1.
         11    1    4    4    0    0 -0.92802521587E+02  0.23962799749E+02 -0.14448033920E+03  0.17338134906E+03  0.00000000000E+00 0. -1.
        -12    1    4    4    0    0 -0.27486846582E+02  0.66131581467E+02 -0.15316466148E+03  0.16908082780E+03  0.00000000000E+00 0.  1.
</event>
<event>
12    1  0.8416569E-002  0.2123187E+03  0.7818608E-02  0.1139904E+00
         21   -1    0    0  503  502  0.00000000000E+00  0.00000000000E+00  0.65141254249E+03  0.65141254249E+03  0.00000000000E+00 0.  1.
         21   -1    0    0  501  503 -0.00000000000E+00 -0.00000000000E+00 -0.33898096169E+03  0.33898096169E+03  0.00000000000E+00 0.  1.
          6    2    1    2  501    0  0.11794201400E+03 -0.34717626078E+02 -0.28570927376E+03  0.35596213280E+03  0.17310002498E+03 0.  0.
         24    2    3    3    0    0  0.42938697665E+02 -0.71583576932E+02 -0.10300776268E+03  0.15499813616E+03  0.80286255349E+02 0.  0.
         -6    2    1    2    0  502 -0.11794201400E+03  0.34717626078E+02  0.59814085456E+03  0.63443137138E+03  0.17209024051E+03 0.  0.
        -24    2    5    5    0    0 -0.14979197300E+02 -0.86433932250E+01  0.12036541860E+03  0.14374514086E+03  0.76653420856E+02 0.  0.
          5    1    3    3  501    0  0.75003316339E+02  0.36865950853E+02 -0.18270151108E+03  0.20096399664E+03  0.47000000000E+01 0. -1.
        -13    1    4    4    0    0  0.44997809434E+02 -0.35093797580E+02 -0.10378882628E+03  0.11844196023E+03  0.00000000000E+00 0.  1.
         14    1    4    4    0    0 -0.20591117690E+01 -0.36489779352E+02  0.78106360101E+00  0.36556175932E+02  0.00000000000E+00 0. -1.
         -5    1    5    5    0  502 -0.10296281670E+03  0.43361019303E+02  0.47777543596E+03  0.49068623052E+03  0.47000000000E+01 0.  1.
         11    1    6    6    0    0  0.28533376667E+02  0.39912490765E+01  0.71598746519E+02  0.77178132630E+02  0.00000000000E+00 0. -1.
        -12    1    6    6    0    0 -0.43512573967E+02 -0.12634642301E+02  0.48766672082E+02  0.66567008234E+02  0.00000000000E+00 0.  1.
</event>
<event>
12    1  0.8416569E-002  0.2046938E+03  0.7818608E-02  0.1145933E+00
         21   -1    0    0  501  502  0.00000000000E+00  0.00000000000E+00  0.23110409181E+03  0.23110409181E+03  0.00000000000E+00 0. -1.
         21   -1    0    0  502  503 -0.00000000000E+00 -0.00000000000E+00 -0.31310092961E+03  0.31310092961E+03  0.00000000000E+00 0.  1.
         -6    2    1    2    0  503 -0.42482557138E+02 -0.10192849776E+03 -0.21784227198E+03  0.29892274261E+03  0.17235244203E+03 0.  0.
        -24    2    3    3    0    0  0.19109182853E+02 -0.26833691587E+02 -0.42545294165E+02  0.98463537839E+02  0.82460647309E+02 0.  0.
          6    2    1    2  501    0  0.42482557138E+02  0.10192849776E+03  0.13584543418E+03  0.24528227881E+03  0.17179996507E+03 0.  0.
         24    2    5    5    0    0  0.21637913804E+02  0.12694829301E+03  0.14611771862E+03  0.21081346483E+03  0.80671313656E+02 0.  0.
          5    1    5    5  501    0  0.20844643334E+02 -0.25019795249E+02 -0.10272284440E+02  0.34468813986E+02  0.47000000000E+01 0. -1.
        -11    1    6    6    0    0  0.15617648557E+02  0.81733192814E+02  0.34215874024E+02  0.89971950013E+02  0.00000000000E+00 0.  1.
         12    1    6    6    0    0  0.60202652474E+01  0.45215100197E+02  0.11190184459E+03  0.12084151482E+03  0.00000000000E+00 0. -1.
         -5    1    3    3    0  503 -0.61591739991E+02 -0.75094806174E+02 -0.17529697781E+03  0.20045920478E+03  0.47000000000E+01 0.  1.
         11    1    4    4    0    0 -0.14206996165E+02  0.15828688026E+02  0.95701336489E+01  0.23323240828E+02  0.00000000000E+00 0. -1.
        -12    1    4    4    0    0  0.33316179017E+02 -0.42662379614E+02 -0.52115427814E+02  0.75140297011E+02  0.00000000000E+00 0.  1.
</event>
<event>
12    1  0.8416569E-002  0.2334534E+03  0.7818608E-02  0.1124452E+00
         21   -1    0    0  501  502  0.00000000000E+00  0.00000000000E+00  0.59440695561E+02  0.59440695561E+02  0.00000000000E+00 0. -1.
         21   -1    0    0  502  503 -0.00000000000E+00 -0.00000000000E+00 -0.11498302866E+04  0.11498302866E+04  0.00000000000E+00 0.  1.
         -6    2    1    2    0  503  0.98582417556E+02  0.12345187293E+03 -0.81905005053E+03  0.85132457197E+03  0.17015194265E+03 0.  0.
        -24    2    3    3    0    0  0.11723212149E+02  0.69191979528E+02 -0.21695669741E+03  0.24056508292E+03  0.76657594763E+02 0.  0.
          6    2    1    2  501    0 -0.98582417556E+02 -0.12345187293E+03 -0.27133954053E+03  0.35794641021E+03  0.17187678246E+03 0.  0.
         24    2    5    5    0    0 -0.31259495265E+02 -0.12053456394E+03 -0.24580129923E+03  0.28573021863E+03  0.75615752254E+02 0.  0.
          5    1    5    5  501    0 -0.67322922291E+02 -0.29173089859E+01 -0.25538241306E+02  0.72216191581E+02  0.47000000000E+01 0. -1.
        -11    1    6    6    0    0 -0.22601219692E+02  0.10723720278E+01 -0.52856830991E+02  0.57496171140E+02  0.00000000000E+00 0.  1.
         12    1    6    6    0    0 -0.86582755728E+01 -0.12160693597E+03 -0.19294446824E+03  0.22823404749E+03  0.00000000000E+00 0. -1.
         -5    1    3    3    0  503  0.86859205407E+02  0.54259893398E+02 -0.60209335312E+03  0.61075948905E+03  0.47000000000E+01 0.  1.
         13    1    4    4    0    0  0.34359758916E+02  0.21612371513E+02 -0.44470132263E+02  0.60210300603E+02  0.00000000000E+00 0. -1.
        -14    1    4    4    0    0 -0.22636546766E+02  0.47579608015E+02 -0.17248656514E+03  0.18035478231E+03  0.00000000000E+00 0.  1.
</event>
<event>
12    1  0.8416569E-002  0.2101804E+03  0.7818608E-02  0.1141537E+00
         21   -1    0    0  501  502  0.00000000000E+00  0.00000000000E+00  0.25464979602E+03  0.25464979602E+03  0.00000000000E+00 0.  1.
         21   -1    0    0  502  503 -0.00000000000E+00 -0.00000000000E+00 -0.18995913400E+03  0.18995913400E+03  0.00000000000E+00 0. -1.
         -6    2    1    2    0  503  0.89054579366E+02  0.81459957423E+02 -0.34034561323E+02  0.21291818442E+03  0.17207370259E+03 0.  0.
        -24    2    3    3    0    0  0.10442862160E+03  0.71856665457E+02  0.18331859198E+02  0.15730418987E+03  0.91322690005E+02 0.  0.
          6    2    1    2  501    0 -0.89054579366E+02 -0.81459957423E+02  0.98725223343E+02  0.23169074561E+03  0.17136945208E+03 0.  0.
         24    2    5    5    0    0 -0.97369577410E+02 -0.33739974863E+02  0.12104264212E+02  0.13233473679E+03  0.82138595308E+02 0.  0.
          5    1    5    5  501    0  0.83149980441E+01 -0.47719982559E+02  0.86620959131E+02  0.99356008821E+02  0.47000000000E+01 0. -1.
        -11    1    6    6    0    0 -0.12260997606E+02 -0.24413799238E+02  0.34334907618E+02  0.43877688370E+02  0.00000000000E+00 0.  1.
         12    1    6    6    0    0 -0.85108579805E+02 -0.93261756257E+01 -0.22230643407E+02  0.88457048416E+02  0.00000000000E+00 0. -1.
         -5    1    3    3    0  503 -0.15374042235E+02  0.96032919655E+01 -0.52366420521E+02  0.55613994546E+02  0.47000000000E+01 0.  1.
         11    1    4    4    0    0  0.19699628318E+02 -0.21488311394E+02  0.10541375825E+02  0.30999088482E+02  0.00000000000E+00 0. -1.
        -12    1    4    4    0    0  0.84728993283E+02  0.93344976851E+02  0.77904833729E+01  0.12630510139E+03  0.00000000000E+00 0.  1.
</event>
<event>
12    1  0.8416569E-002  0.2020796E+03  0.7818608E-02  0.1149018E+00
         21   -1    0    0  503  502  0.00000000000E+00  0.00000000000E+00  0.25018038718E+03  0.25018038718E+03  0.00000000000E+00 0. -1.
         21   -1    0    0  501  503 -0.00000000000E+00 -0.00000000000E+00 -0.20054566946E+03  0.20054566946E+03  0.00000000000E+00 0. -1.
          6    2    1    2  501    0  0.10448404583E+03 -0.18045175489E+02 -0.77574308171E+02  0.21194104268E+03  0.16630901386E+03 0.  0.
         24    2    3    3    0    0  0.70809723655E+02 -0.69227050598E+02 -0.80033608305E+02  0.15044565691E+03  0.80138104089E+02 0.  0.
         -6    2    1    2    0  502 -0.10448404583E+03  0.18045175489E+02  0.12720902588E+03  0.23878501396E+03  0.17202791179E+03 0.  0.
        -24    2    5    5    0    0 -0.22352214293E+02  0.12722852289E+02 -0.20055494700E+01  0.85512507101E+02  0.81528364315E+02 0.  0.
          5    1    3    3  501    0  0.33674322171E+02  0.51181875108E+02  0.24593001334E+01  0.61495385765E+02  0.47000000000E+01 0. -1.
        -13    1    4    4    0    0  0.46821971015E+01 -0.47692686805E+02 -0.50683122704E+01  0.48189242925E+02  0.00000000000E+00 0.  1.
         14    1    4    4    0    0  0.66127526554E+02 -0.21534363793E+02 -0.74965296034E+02  0.10225641399E+03  0.00000000000E+00 0. -1.
         -5    1    5    5    0  502 -0.82131831532E+02  0.53223232000E+01  0.12921457535E+03  0.15327250686E+03  0.47000000000E+01 0.  1.
         13    1    6    6    0    0  0.23719209022E+02  0.13682115580E+02  0.20522156108E+02  0.34219293603E+02  0.00000000000E+00 0. -1.
        -14    1    6    6    0    0 -0.46071423316E+02 -0.95926329071E+00 -0.22527705578E+02  0.51293213498E+02  0.00000000000E+00 0.  1.
</event>
<event>
12    1  0.8416569E-002  0.1871321E+03  0.7818608E-02  0.1162607E+00
         21   -1    0    0  501  502  0.00000000000E+00  0.00000000000E+00  0.61418744199E+03  0.61418744199E+03  0.00000000000E+00 0. -1.
         21   -1    0    0  502  503 -0.00000000000E+00 -0.00000000000E+00 -0.70298346633E+02  0.70298346633E+02  0.00000000000E+00 0. -1.
         -6    2    1    2    0  503  0.54632978536E+02 -0.21016833940E+02  0.10872969900E+03  0.21079587927E+03  0.17083994153E+03 0.  0.
        -24    2    3    3    0    0  0.76294521509E+02 -0.14738812816E+02  0.89218976532E+01  0.10836383740E+03  0.75000229216E+02 0.  0.
          6    2    1    2  501    0 -0.54632978536E+02  0.21016833940E+02  0.43515939636E+03  0.47368990935E+03  0.17774127357E+03 0.  0.
         24    2    5    5    0    0 -0.34111864036E+02 -0.38135498976E+02  0.12192538021E+03  0.15422511707E+03  0.79382950611E+02 0.  0.
          5    1    5    5  501    0 -0.20521114501E+02  0.59152332916E+02  0.31323401615E+03  0.31946479228E+03  0.47000000000E+01 0. -1.
        -13    1    6    6    0    0  0.25042267038E+02 -0.54974649398E+01  0.23079266402E+02  0.34496228733E+02  0.00000000000E+00 0.  1.
         14    1    6    6    0    0 -0.59154131074E+02 -0.32638034036E+02  0.98846113804E+02  0.11972888834E+03  0.00000000000E+00 0. -1.
         -5    1    3    3    0  503 -0.21661542973E+02 -0.62780211237E+01  0.99807801342E+02  0.10243204187E+03  0.47000000000E+01 0.  1.
         13    1    4    4    0    0  0.57819210833E+01  0.52642808284E+01 -0.26017461682E+02  0.27167104675E+02  0.00000000000E+00 0. -1.
        -14    1    4    4    0    0  0.70512600426E+02 -0.20003093645E+02  0.34939359335E+02  0.81196732723E+02  0.00000000000E+00 0.  1.
</event>
<event>
12    1  0.8416569E-002  0.2452744E+03  0.7818608E-02  0.1116511E+00
         21   -1    0    0  501  502  0.00000000000E+00  0.00000000000E+00  0.30624389122E+03  0.30624389122E+03  0.00000000000E+00 0. -1.
         21   -1    0    0  502  503 -0.00000000000E+00 -0.00000000000E+00 -0.19854478206E+03  0.19854478206E+03  0.00000000000E+00 0.  1.
         -6    2    1    2    0  503  0.17252444016E+03  0.24051999741E+02  0.22701823734E+02  0.24520427567E+03  0.17107478733E+03 0.  0.
        -24    2    3    3    0    0  0.82856100172E+02 -0.43932386652E+02 -0.17019608439E+02  0.12577994748E+03  0.82071555266E+02 0.  0.
          6    2    1    2  501    0 -0.17252444016E+03 -0.24051999741E+02  0.84997285424E+02  0.25958439762E+03  0.17267408552E+03 0.  0.
         24    2    5    5    0    0 -0.36242372156E+02 -0.97029986388E+01  0.85120068702E+02  0.12246838480E+03  0.79658153750E+02 0.  0.
          5    1    5    5  501    0 -0.13628206801E+03 -0.14349001103E+02 -0.12278327718E+00  0.13711601281E+03  0.47000000000E+01 0. -1.
        -13    1    6    6    0    0 -0.54083872028E+02  0.13132253163E+02  0.38853702725E+02  0.67875853601E+02  0.00000000000E+00 0.  1.
         14    1    6    6    0    0  0.17841499872E+02 -0.22835251801E+02  0.46266365977E+02  0.54592531203E+02  0.00000000000E+00 0. -1.
         -5    1    3    3    0  503  0.89668339991E+02  0.67984386393E+02  0.39721432174E+02  0.11942432819E+03  0.47000000000E+01 0.  1.
         13    1    4    4    0    0  0.44723428006E+01  0.19065239952E+02  0.95209101253E+01  0.21774594237E+02  0.00000000000E+00 0. -1.
        -14    1    4    4    0    0  0.78383757372E+02 -0.62997626604E+02 -0.26540518565E+02  0.10400535324E+03  0.00000000000E+00 0.  1.
</event>
<event>
12    1  0.8416569E-002  0.2294139E+03  0.7818608E-02  0.1127068E+00
         21   -1    0    0  501  502  0.00000000000E+00  0.00000000000E+00  0.19243382181E+03  0.19243382181E+03  0.00000000000E+00 0.  1.
         21   -1    0    0  502  503 -0.00000000000E+00 -0.00000000000E+00 -0.31644484540E+03  0.31644484540E+03  0.00000000000E+00 0.  1.
         -6    2    1    2    0  503 -0.10331251094E+03 -0.11211827294E+03 -0.15585976602E+03  0.27734996652E+03  0.17142565508E+03 0.  0.
        -24    2    3    3    0    0 -0.47945785197E+02 -0.83520781541E+02 -0.18131748889E+02  0.12610715665E+03  0.79370872323E+02 0.  0.
          6    2    1    2  501    0  0.10331251094E+03  0.11211827294E+03  0.31848742435E+02  0.23152870068E+03  0.17131028808E+03 0.  0.
         24    2    5    5    0    0  0.52632393413E+02  0.87642824330E+02  0.85948814115E+02  0.15332109457E+03  0.75290941693E+02 0.  0.
          5    1    5    5  501    0  0.50680117532E+02  0.24475448609E+02 -0.54100071680E+02  0.78207606110E+02  0.47000000000E+01 0. -1.
        -13    1    6    6    0    0  0.86794227583E+01 -0.13767128548E+02  0.13733771125E+02  0.21295132712E+02  0.00000000000E+00 0.  1.
         14    1    6    6    0    0  0.43952970654E+02  0.10140995288E+03  0.72215042989E+02  0.13202596186E+03  0.00000000000E+00 0. -1.
         -5    1    3    3    0  503 -0.55366725748E+02 -0.28597491398E+02 -0.13772801714E+03  0.15124280987E+03  0.47000000000E+01 0.  1.
         11    1    4    4    0    0 -0.54912645541E+02 -0.74881968962E+02 -0.40369309588E+02  0.10125408176E+03  0.00000000000E+00 0. -1.
        -12    1    4    4    0    0  0.69668603435E+01 -0.86388125788E+01  0.22237560699E+02  0.24853074893E+02  0.00000000000E+00 0.  1.
</event>
<event>
12    1  0.8416569E-002  0.1889233E+03  0.7818608E-02  0.1160033E+00
         21   -1    0    0  503  502  0.00000000000E+00  0.00000000000E+00  0.10350276424E+04  0.10350276424E+04  0.00000000000E+00 0.  1.
         21   -1    0    0  501  503 -0.00000000000E+00 -0.00000000000E+00 -0.54579244123E+02  0.54579244123E+02  0.00000000000E+00 0.  1.
          6    2    1    2  501    0 -0.74301194644E+02 -0.18570672718E+01  0.15789584415E+03  0.24621761008E+03  0.17368908339E+03 0.  0.
         24    2    3    3    0    0 -0.10612708518E+03 -0.94535842416E+01  0.65611131166E+02  0.14819132468E+03  0.79394708355E+02 0.  0.
         -6    2    1    2    0  502  0.74301194644E+02  0.18570672718E+01  0.82255255410E+03  0.84338927642E+03  0.17084686446E+03 0.  0.
        -24    2    5    5    0    0  0.11637266767E+02  0.28710763920E+02  0.20360115709E+03  0.22067681408E+03  0.79278566870E+02 0.  0.
          5    1    3    3  501    0  0.31825890532E+02  0.75965169698E+01  0.92284712988E+02  0.98026285401E+02  0.47000000000E+01 0. -1.
        -11    1    4    4    0    0 -0.76464656399E+02 -0.39187868003E+01  0.83358284995E+02  0.11318482339E+03  0.00000000000E+00 0.  1.
         12    1    4    4    0    0 -0.29662428778E+02 -0.55347974413E+01 -0.17747153829E+02  0.35006501292E+02  0.00000000000E+00 0. -1.
         -5    1    5    5    0  502  0.62663927877E+02 -0.26853696648E+02  0.61895139701E+03  0.62271246233E+03  0.47000000000E+01 0.  1.
         11    1    6    6    0    0  0.29735351600E+02 -0.26360732037E+01  0.26508575190E+02  0.39922983046E+02  0.00000000000E+00 0. -1.
        -12    1    6    6    0    0 -0.18098084833E+02  0.31346837124E+02  0.17709258190E+03  0.18075383104E+03  0.00000000000E+00 0.  1.
</event>
<event>
12    1  0.8416569E-002  0.1748835E+03  0.7818608E-02  0.1174334E+00
         21   -1    0    0  501  502  0.00000000000E+00  0.00000000000E+00  0.64105987278E+02  0.64105987278E+02  0.00000000000E+00 0.  1.
         21   -1    0    0  502  503 -0.00000000000E+00 -0.00000000000E+00 -0.51438302173E+03  0.51438302173E+03  0.00000000000E+00 0.  1.
         -6    2    1    2    0  503 -0.61421398743E+01  0.10117907439E+02 -0.31456470749E+03  0.35712490956E+03  0.16866282312E+03 0.  0.
        -24    2    3    3    0    0  0.24194590125E+02 -0.45064126798E+02 -0.14231619873E+03  0.17366643236E+03  0.85381353888E+02 0.  0.
          6    2    1    2  501    0  0.61421398743E+01 -0.10117907439E+02 -0.13571232697E+03  0.22136409945E+03  0.17448246588E+03 0.  0.
         24    2    5    5    0    0  0.57812353895E+02  0.23338812434E+02 -0.52265332296E+02  0.11756306842E+03  0.84867200193E+02 0.  0.
          5    1    5    5  501    0 -0.51670214020E+02 -0.33456719872E+02 -0.83446994673E+02  0.10380103102E+03  0.47000000000E+01 0. -1.
        -13    1    6    6    0    0  0.52389554442E+02  0.37661974178E+02 -0.69279073267E+02  0.94671430254E+02  0.00000000000E+00 0.  1.
         14    1    6    6    0    0  0.54227994526E+01 -0.14323161744E+02  0.17013740971E+02  0.22891638170E+02  0.00000000000E+00 0. -1.
         -5    1    3    3    0  503 -0.30336730000E+02  0.55182034237E+02 -0.17224850876E+03  0.18345847721E+03  0.47000000000E+01 0.  1.
         13    1    4    4    0    0 -0.17610215477E+02  0.49552107400E+01 -0.13343221121E+01  0.18342688411E+02  0.00000000000E+00 0. -1.
        -14    1    4    4    0    0  0.41804805602E+02 -0.50019337538E+02 -0.14098187662E+03  0.15532374395E+03  0.00000000000E+00 0.  1.
</event>
<event>
12    1  0.8416569E-002  0.2008437E+03  0.7818608E-02  0.1149045E+00
         21   -1    0    0  503  502  0.00000000000E+00  0.00000000000E+00  0.14338647825E+03  0.14338647825E+03  0.00000000000E+00 0. -1.
         21   -1    0    0  501  503 -0.00000000000E+00 -0.00000000000E+00 -0.33278124618E+03  0.33278124618E+03  0.00000000000E+00 0.  1.
          6    2    1    2  501    0 -0.40591796001E+02 -0.94813767375E+02 -0.18842765059E+03  0.27539640164E+03  0.17233935749E+03 0.  0.
         24    2    3    3    0    0 -0.84137475993E+02 -0.55367326521E+02 -0.98551455622E+02  0.16791585286E+03  0.91316419800E+02 0.  0.
         -6    2    1    2    0  502  0.40591796001E+02  0.94813767375E+02 -0.96711733162E+00  0.20077132280E+03  0.17225226952E+03 0.  0.
        -24    2    5    5    0    0  0.79460573771E+02  0.86105203088E+02 -0.37155009060E+02  0.14675026686E+03  0.80168930025E+02 0.  0.
          5    1    3    3  501    0  0.43545679992E+02 -0.39446440854E+02 -0.89876194971E+02  0.10748054877E+03  0.47000000000E+01 0. -1.
        -13    1    4    4    0    0 -0.65345523491E+02 -0.81689079551E+01 -0.96808686604E+02  0.11708411634E+03  0.00000000000E+00 0.  1.
         14    1    4    4    0    0 -0.18791952502E+02 -0.47198418566E+02 -0.17427690175E+01  0.50831736521E+02  0.00000000000E+00 0. -1.
         -5    1    5    5    0  502 -0.38868777770E+02  0.87085642868E+01  0.36187891728E+02  0.54021055941E+02  0.47000000000E+01 0.  1.
         13    1    6    6    0    0 -0.13299235009E+02  0.28837976399E+02 -0.57107726969E+00  0.31762000312E+02  0.00000000000E+00 0. -1.
        -14    1    6    6    0    0  0.92759808780E+02  0.57267226689E+02 -0.36583931790E+02  0.11498826654E+03  0.00000000000E+00 0.  1.
</event>
<event>
12    1  0.8416569E-002  0.1821210E+03  0.7818608E-02  0.1165770E+00
         21   -1    0    0  501  502  0.00000000000E+00  0.00000000000E+00  0.30343654502E+03  0.30343654502E+03  0.00000000000E+00 0.  1.
         21   -1    0    0  502  503 -0.00000000000E+00 -0.00000000000E+00 -0.63285984921E+03  0.63285984921E+03  0.00000000000E+00 0.  1.
         -6    2    1    2    0  503  0.50062728964E+02  0.36027175590E+02 -0.59052103298E+03  0.61796696080E+03  0.17135880494E+03 0.  0.
        -24    2    3    3    0    0  0.66688140920E+02  0.64042442638E+02 -0.27527468826E+03  0.30100701479E+03  0.79248510144E+02 0.  0.
          6    2    1    2  501    0 -0.50062728964E+02 -0.36027175590E+02  0.26109772880E+03  0.31832943343E+03  0.17133992527E+03 0.  0.
         24    2    5    5    0    0 -0.88569377156E+02  0.13020267342E+02  0.17023967567E+03  0.20803124926E+03  0.79255230518E+02 0.  0.
          5    1    5    5  501    0  0.38506648192E+02 -0.49047442932E+02  0.90858053125E+02  0.11029818417E+03  0.47000000000E+01 0. -1.
        -13    1    6    6    0    0 -0.87503762688E+02  0.23198459178E+01  0.84654091763E+02  0.12177276141E+03  0.00000000000E+00 0.  1.
         14    1    6    6    0    0 -0.10656144674E+01  0.10700421424E+02  0.85585583909E+02  0.86258487848E+02  0.00000000000E+00 0. -1.
         -5    1    3    3    0  503 -0.16625411956E+02 -0.28015267048E+02 -0.31524634472E+03  0.31695994601E+03  0.47000000000E+01 0.  1.
         13    1    4    4    0    0  0.20904641947E+02  0.39000427627E+02 -0.38826874168E+02  0.58869037428E+02  0.00000000000E+00 0. -1.
        -14    1    4    4    0    0  0.45783498973E+02  0.25042015011E+02 -0.23644781409E+03  0.24213797737E+03  0.00000000000E+00 0.  1.
</event>
<event>
12    1  0.8416569E-002  0.1997463E+03  0.7818608E-02  0.1150340E+00
         21   -1    0    0  503  502  0.00000000000E+00  0.00000000000E+00  0.12775098288E+03  0.12775098288E+03  0.00000000000E+00 0. -1.
         21   -1    0    0  501  503 -0.00000000000E+00 -0.00000000000E+00 -0.37849276735E+03  0.37849276735E+03  0.00000000000E+00 0. -1.
          6    2    1    2  501    0 -0.80281132105E+02  0.64105805159E+02 -0.23298911991E+03  0.30571009354E+03  0.16917481156E+03 0.  0.
         24    2    3    3    0    0 -0.43132036759E+02  0.86313100975E+02 -0.86287018122E+02  0.15268455338E+03  0.80974065900E+02 0.  0.
         -6    2    1    2    0  502  0.80281132105E+02 -0.64105805159E+02 -0.17752664549E+02  0.20053365669E+03  0.17130083462E+03 0.  0.
        -24    2    5    5    0    0  0.59508550040E+02 -0.10452406924E+03 -0.38263637534E+02  0.15045445692E+03  0.81889493034E+02 0.  0.
          5    1    3    3  501    0 -0.37149095347E+02 -0.22207295816E+02 -0.14670210179E+03  0.15302554016E+03  0.47000000000E+01 0. -1.
        -11    1    4    4    0    0 -0.42672042817E+02  0.80721470893E+02 -0.10146720002E+03  0.13650073912E+03  0.00000000000E+00 0.  1.
         12    1    4    4    0    0 -0.45999394190E+00  0.55916300815E+01  0.15180181897E+02  0.16183814254E+02  0.00000000000E+00 0. -1.
         -5    1    5    5    0  502  0.20772582066E+02  0.40418264086E+02  0.20510972984E+02  0.50079199775E+02  0.47000000000E+01 0.  1.
         11    1    6    6    0    0  0.13868882395E+02 -0.71526689985E+01  0.22161237254E+02  0.27104003566E+02  0.00000000000E+00 0. -1.
        -12    1    6    6    0    0  0.45639667644E+02 -0.97371400246E+02 -0.60424874788E+02  0.12335045335E+03  0.00000000000E+00 0.  1.
</event>
<event>
12    1  0.8416569E-002  0.1841340E+03  0.7818608E-02  0.1164206E+00
         21   -1    0    0  503  502  0.00000000000E+00  0.00000000000E+00  0.14029179845E+03  0.14029179845E+03  0.00000000000E+00 0. -1.
         21   -1    0    0  501  503 -0.00000000000E+00 -0.00000000000E+00 -0.65758803388E+03  0.65758803388E+03  0.00000000000E+00 0. -1.
          6    2    1    2  501    0  0.15498152444E+02 -0.64112641234E+02 -0.57702350021E+03  0.60569090050E+03  0.17191487330E+03 0.  0.
         24    2    3    3    0    0  0.34616871770E+02 -0.89605377421E+01 -0.50630646620E+03  0.51387440500E+03  0.80262365678E+02 0.  0.
         -6    2    1    2    0  502 -0.15498152444E+02  0.64112641234E+02  0.59727264775E+02  0.19218893183E+03  0.17034851295E+03 0.  0.
        -24    2    5    5    0    0 -0.13235982829E+02 -0.20434460948E+02  0.42333474483E+01  0.90921983820E+02  0.87499299857E+02 0.  0.
          5    1    3    3  501    0 -0.19118719327E+02 -0.55152103492E+02 -0.70717034003E+02  0.91816495503E+02  0.47000000000E+01 0. -1.
        -11    1    4    4    0    0 -0.12861518087E+02 -0.21880902130E+02 -0.64150310279E+02  0.68988802240E+02  0.00000000000E+00 0.  1.
         12    1    4    4    0    0  0.47478389858E+02  0.12920364388E+02 -0.44215615592E+03  0.44488560276E+03  0.00000000000E+00 0. -1.
         -5    1    5    5    0  502 -0.22621696149E+01  0.84547102182E+02  0.55493917327E+02  0.10126694801E+03  0.47000000000E+01 0.  1.
         11    1    6    6    0    0 -0.19945600329E+02  0.64595269249E+01 -0.36239650592E+02  0.41867227465E+02  0.00000000000E+00 0. -1.
        -12    1    6    6    0    0  0.67096175006E+01 -0.26893987873E+02  0.40472998040E+02  0.49054756355E+02  0.00000000000E+00 0.  1.
</event>
<event>
12    1  0.8416569E-002  0.1791369E+03  0.7818608E-02  0.1168890E+00
         21   -1    0    0  501  502  0.00000000000E+00  0.00000000000E+00  0.25777370372E+04  0.25777370372E+04  0.00000000000E+00 0. -1.
         21   -1    0    0  502  503 -0.00000000000E+00 -0.00000000000E+00 -0.15531187170E+02  0.15531187170E+02  0.00000000000E+00 0. -1.
         -6    2    1    2    0  503  0.41076324580E+02 -0.14015163339E+01  0.69396666382E+03  0.71646037808E+03  0.17331045606E+03 0.  0.
        -24    2    3    3    0    0 -0.14480594316E+02  0.54602250395E+02  0.43312431532E+03  0.44390980682E+03  0.79171653437E+02 0.  0.
          6    2    1    2  501    0 -0.41076324580E+02  0.14015163339E+01  0.18682391862E+04  0.18768078463E+04  0.17435826998E+03 0.  0.
         24    2    5    5    0    0 -0.12073597176E+01  0.63383520280E+02  0.12634885101E+04  0.12675650594E+04  0.79366467647E+02 0.  0.
          5    1    5    5  501    0 -0.39868964863E+02 -0.61982003946E+02  0.60475067608E+03  0.60924278690E+03  0.47000000000E+01 0. -1.
        -13    1    6    6    0    0  0.20685827221E+02  0.60715405359E+02  0.54870183888E+03  0.55243820639E+03  0.00000000000E+00 0.  1.
         14    1    6    6    0    0 -0.21893186939E+02  0.26681149208E+01  0.71478667127E+03  0.71512685301E+03  0.00000000000E+00 0. -1.
         -5    1    3    3    0  503  0.55556918896E+02 -0.56003766729E+02  0.26084234849E+03  0.27255057126E+03  0.47000000000E+01 0.  1.
         13    1    4    4    0    0  0.57133158467E+01  0.39109515231E+02  0.74080458514E+02  0.83964936094E+02  0.00000000000E+00 0. -1.
        -14    1    4    4    0    0 -0.20193910162E+02  0.15492735164E+02  0.35904385681E+03  0.35994487073E+03  0.00000000000E+00 0.  1.
</event>
<event>
12    1  0.8416569E-002  0.1814132E+03  0.7818608E-02  0.1166595E+00
         21   -1    0    0  501  502  0.00000000000E+00  0.00000000000E+00  0.63625234880E+03  0.63625234880E+03  0.00000000000E+00 0.  1.
         21   -1    0    0  502  503 -0.00000000000E+00 -0.00000000000E+00 -0.12566569241E+03  0.12566569241E+03  0.00000000000E+00 0.  1.
         -6    2    1    2    0  503 -0.33713147206E+02  0.45571755573E+02 -0.37099556717E+02  0.18516784824E+03  0.17232931763E+03 0.  0.
        -24    2    3    3    0    0  0.27277116714E+02  0.84196464572E+01 -0.66854291377E+02  0.10765961811E+03  0.79411369163E+02 0.  0.
          6    2    1    2  501    0  0.33713147206E+02 -0.45571755573E+02  0.54768621311E+03  0.57675019297E+03  0.17166023376E+03 0.  0.
         24    2    5    5    0    0  0.54198575225E+02 -0.89322686736E+02  0.42925956869E+03  0.44876286216E+03  0.78792773885E+02 0.  0.
          5    1    5    5  501    0 -0.20485428020E+02  0.43750931163E+02  0.11842664442E+03  0.12798733081E+03  0.47000000000E+01 0. -1.
        -11    1    6    6    0    0  0.20407496852E+02 -0.38327334155E+02  0.32494678137E+03  0.32783511281E+03  0.00000000000E+00 0.  1.
         12    1    6    6    0    0  0.33791078373E+02 -0.50995352581E+02  0.10431278732E+03  0.12092774934E+03  0.00000000000E+00 0. -1.
         -5    1    3    3    0  503 -0.60990263919E+02  0.37152109115E+02  0.29754734660E+02  0.77508230139E+02  0.47000000000E+01 0.  1.
         13    1    4    4    0    0 -0.27744257628E+02  0.85082661793E+00 -0.14421854075E+02  0.31280307100E+02  0.00000000000E+00 0. -1.
        -14    1    4    4    0    0  0.55021374342E+02  0.75688198393E+01 -0.52432437302E+02  0.76379311006E+02  0.00000000000E+00 0.  1.
</event>
<event>
12    1  0.8416569E-002  0.1859169E+03  0.7818608E-02  0.1162561E+00
         21   -1    0    0  503  502  0.00000000000E+00  0.00000000000E+00  0.39006116026E+03  0.39006116026E+03  0.00000000000E+00 0. -1.
         21   -1    0    0  501  503 -0.00000000000E+00 -0.00000000000E+00 -0.96030204551E+02  0.96030204551E+02  0.00000000000E+00 0. -1.
          6    2    1    2  501    0 -0.28883154032E+01 -0.66153568702E+02  0.76735219006E+02  0.20113027575E+03  0.17372523412E+03 0.  0.
         24    2    3    3    0    0  0.51375914118E+02 -0.18523431219E+02  0.82794227624E+02  0.12852147334E+03  0.81732997784E+02 0.  0.
         -6    2    1    2    0  502  0.28883154032E+01  0.66153568702E+02  0.21729573670E+03  0.28496108905E+03  0.17204867936E+03 0.  0.
        -24    2    5    5    0    0 -0.26492878478E+02  0.54110046794E+02  0.22975098628E+03  0.25052964680E+03  0.79685748116E+02 0.  0.
          5    1    3    3  501    0 -0.54264229521E+02 -0.47630137483E+02 -0.60590086183E+01  0.72608802411E+02  0.47000000000E+01 0. -1.
        -11    1    4    4    0    0 -0.23681518421E+01  0.24608346866E+02  0.61949178424E+01  0.25486386282E+02  0.00000000000E+00 0.  1.
         12    1    4    4    0    0  0.53744065960E+02 -0.43131778085E+02  0.76599309782E+02  0.10303508706E+03  0.00000000000E+00 0. -1.
         -5    1    5    5    0  502  0.29381193881E+02  0.12043521907E+02 -0.12455249580E+02  0.34431442257E+02  0.47000000000E+01 0.  1.
         13    1    6    6    0    0 -0.38432128745E+02 -0.52424660642E+00  0.55385576391E+02  0.67415617082E+02  0.00000000000E+00 0. -1.
        -14    1    6    6    0    0  0.11939250267E+02  0.54634293401E+02  0.17436540989E+03  0.18311402972E+03  0.00000000000E+00 0.  1.
</event>
<event>
12    1  0.8416569E-002  0.2019804E+03  0.7818608E-02  0.1148129E+00
         21   -1    0    0  503  502  0.00000000000E+00  0.00000000000E+00  0.15058217966E+03  0.15058217966E+03  0.00000000000E+00 0. -1.
         21   -1    0    0  501  503 -0.00000000000E+00 -0.00000000000E+00 -0.27711221259E+03  0.27711221259E+03  0.00000000000E+00 0.  1.
          6    2    1    2  501    0  0.18481921464E+02 -0.10327516075E+03 -0.96085208977E+02  0.22367041865E+03  0.17259417298E+03 0.  0.
         24    2    3    3    0    0  0.35418219182E+02 -0.11419153199E+03 -0.12275972730E+03  0.18991208236E+03  0.81868749537E+02 0.  0.
         -6    2    1    2    0  502 -0.18481921464E+02  0.10327516075E+03 -0.30444823960E+02  0.20402397360E+03  0.17231237405E+03 0.  0.
        -24    2    5    5    0    0 -0.62758119511E+02  0.52195994626E+02 -0.60046515603E+02  0.13007931136E+03  0.81560037943E+02 0.  0.
          5    1    3    3  501    0 -0.16936297718E+02  0.10916371239E+02  0.26674518322E+02  0.33758336291E+02  0.47000000000E+01 0. -1.
        -13    1    4    4    0    0  0.36788872200E+02 -0.93273075680E+02 -0.13301710710E+03  0.16657382311E+03  0.00000000000E+00 0.  1.
         14    1    4    4    0    0 -0.13706530173E+01 -0.20918456309E+02  0.10257379805E+02  0.23338259243E+02  0.00000000000E+00 0. -1.
         -5    1    5    5    0  502  0.44276198046E+02  0.51079166123E+02  0.29601691643E+02  0.73944662237E+02  0.47000000000E+01 0.  1.
         13    1    6    6    0    0 -0.77007576766E+02  0.44017467909E+02 -0.26253137016E+02  0.92503684054E+02  0.00000000000E+00 0. -1.
        -14    1    6    6    0    0  0.14249457255E+02  0.81785267170E+01 -0.33793378588E+02  0.37575627309E+02  0.00000000000E+00 0.  1.
</event>
<event>
12    1  0.8416569E-002  0.1839654E+03  0.7818608E-02  0.1165218E+00
         21   -1    0    0  503  502  0.00000000000E+00  0.00000000000E+00  0.10426709568E+03  0.10426709568E+03  0.00000000000E+00 0. -1.
         21   -1    0    0  501  503 -0.00000000000E+00 -0.00000000000E+00 -0.76803367452E+03  0.76803367452E+03  0.00000000000E+00 0. -1.
          6    2    1    2  501    0 -0.45237777088E+02  0.26511498227E+02 -0.66844413861E+03  0.69329706795E+03  0.17633474407E+03 0.  0.
         24    2    3    3    0    0 -0.21463902544E+02 -0.25998517103E+02 -0.16497448449E+03  0.18651675909E+03  0.80220314673E+02 0.  0.
         -6    2    1    2    0  502  0.45237777088E+02 -0.26511498227E+02  0.46775597731E+01  0.17900370224E+03  0.17108807626E+03 0.  0.
        -24    2    5    5    0    0  0.86133687564E+02 -0.23809339250E+02 -0.31474934953E+02  0.12415053432E+03  0.80229588505E+02 0.  0.
          5    1    3    3  501    0 -0.23773874544E+02  0.52510015331E+02 -0.50346965413E+03  0.50678030886E+03  0.47000000000E+01 0. -1.
        -13    1    4    4    0    0  0.25904427532E+02 -0.19906701632E+02 -0.34209070779E+02  0.47303030128E+02  0.00000000000E+00 0.  1.
         14    1    4    4    0    0 -0.47368330076E+02 -0.60918154711E+01 -0.13076541371E+03  0.13921372896E+03  0.00000000000E+00 0. -1.
         -5    1    5    5    0  502 -0.40895910475E+02 -0.27021589773E+01  0.36152494726E+02  0.54853167927E+02  0.47000000000E+01 0.  1.
         13    1    6    6    0    0  0.75377129833E+02 -0.19632303663E+02  0.12320712217E+02  0.78860249800E+02  0.00000000000E+00 0. -1.
        -14    1    6    6    0    0  0.10756557730E+02 -0.41770355869E+01 -0.43795647169E+02  0.45290284515E+02  0.00000000000E+00 0.  1.
</event>
<event>
12    1  0.8416569E-002  0.1994596E+03  0.7818608E-02  0.1150376E+00
         21   -1    0    0  501  502  0.00000000000E+00  0.00000000000E+00  0.58926156779E+03  0.58926156779E+03  0.00000000000E+00 0. -1.
         21   -1    0    0  502  503 -0.00000000000E+00 -0.00000000000E+00 -0.69882078872E+02  0.69882078872E+02  0.00000000000E+00 0. -1.
         -6    2    1    2    0  503  0.81273472685E+02  0.57029186930E+02  0.19493131207E+03  0.27828836307E+03  0.17201305495E+03 0.  0.
        -24    2    3    3    0    0  0.73562567102E+02  0.54045624931E+02  0.22015452334E+03  0.25133172949E+03  0.79795007664E+02 0.  0.
          6    2    1    2  501    0 -0.81273472685E+02 -0.57029186930E+02  0.32444817685E+03  0.38085528359E+03  0.17299254913E+03 0.  0.
         24    2    5    5    0    0 -0.74024727031E+02 -0.10090723116E+03  0.28320493105E+03  0.32002007666E+03  0.80906655967E+02 0.  0.
          5    1    5    5  501    0 -0.72487456544E+01  0.43878044226E+02  0.41243245796E+02  0.60835206932E+02  0.47000000000E+01 0. -1.
        -13    1    6    6    0    0  0.13541682599E+02 -0.35100912404E+02  0.52029974791E+02  0.64207238657E+02  0.00000000000E+00 0.  1.
         14    1    6    6    0    0 -0.87566409630E+02 -0.65806318752E+02  0.23117495626E+03  0.25581283800E+03  0.00000000000E+00 0. -1.
         -5    1    3    3    0  503  0.77109055838E+01  0.29835619987E+01 -0.25223211274E+02  0.26956633582E+02  0.47000000000E+01 0.  1.
         13    1    4    4    0    0  0.44336547443E+02  0.95502804160E+01  0.31269872083E+02  0.55088494219E+02  0.00000000000E+00 0. -1.
        -14    1    4    4    0    0  0.29226019658E+02  0.44495344515E+02  0.18888465126E+03  0.19624323527E+03  0.00000000000E+00 0.  1.
</event>
<event>
12    1  0.8416569E-002  0.2583950E+03  0.7818608E-02  0.1108197E+00
         21   -1    0    0  501  502  0.00000000000E+00  0.00000000000E+00  0.91996794138E+02  0.91996794138E+02  0.00000000000E+00 0. -1.
         21   -1    0    0  502  503 -0.00000000000E+00 -0.00000000000E+00 -0.78531837104E+03  0.78531837104E+03  0.00000000000E+00 0. -1.
         -6    2    1    2    0  503  0.94985017966E+02 -0.16789894147E+03 -0.46869908895E+03  0.53493636621E+03  0.17107270887E+03 0.  0.
        -24    2    3    3    0    0  0.94345902486E+02 -0.13718436326E+03 -0.23459678700E+03  0.29878012225E+03  0.80704461698E+02 0.  0.
          6    2    1    2  501    0 -0.94985017966E+02  0.16789894147E+03 -0.22462248795E+03  0.34237879898E+03  0.17191792144E+03 0.  0.
         24    2    5    5    0    0 -0.10384632231E+01  0.22419331475E+02 -0.88076173497E+02  0.12179489643E+03  0.81073297878E+02 0.  0.
          5    1    5    5  501    0 -0.93946554743E+02  0.14547960999E+03 -0.13654631446E+03  0.22058390255E+03  0.47000000000E+01 0. -1.
        -13    1    6    6    0    0 -0.16472936470E+02  0.94789823584E+01  0.10135487666E+02  0.21539193410E+02  0.00000000000E+00 0.  1.
         14    1    6    6    0    0  0.15434473247E+02  0.12940349116E+02 -0.98211661163E+02  0.10025570302E+03  0.00000000000E+00 0. -1.
         -5    1    3    3    0  503  0.63911547971E+00 -0.30714578205E+02 -0.23410230195E+03  0.23615624396E+03  0.47000000000E+01 0.  1.
         11    1    4    4    0    0  0.14018422797E+02 -0.56969844831E+02 -0.13714906389E+03  0.14917085883E+03  0.00000000000E+00 0. -1.
        -12    1    4    4    0    0  0.80327479690E+02 -0.80214518430E+02 -0.97447723110E+02  0.14960926342E+03  0.00000000000E+00 0.  1.
</event>
<event>
12    1  0.8416569E-002  0.1966017E+03  0.7818608E-02  0.1153908E+00
         21   -1    0    0  501  502  0.00000000000E+00  0.00000000000E+00  0.23598640657E+03  0.23598640657E+03  0.00000000000E+00 0.  1.
         21   -1    0    0  502  503 -0.00000000000E+00 -0.00000000000E+00 -0.15998151994E+03  0.15998151994E+03  0.00000000000E+00 0.  1.
         -6    2    1    2    0  503  0.80315158466E+02  0.37448928793E+02  0.54068348700E+02  0.20390103284E+03  0.17549728748E+03 0.  0.
        -24    2    3    3    0    0  0.11420873988E+03  0.20392205534E+02  0.52396721186E+01  0.14188461303E+03  0.81512642824E+02 0.  0.
          6    2    1    2  501    0 -0.80315158466E+02 -0.37448928793E+02  0.21936537925E+02  0.19206689368E+03  0.16898382468E+03 0.  0.
         24    2    5    5    0    0 -0.32661358130E+02 -0.88869908183E+02  0.70413040511E+01  0.12024099445E+03  0.73781379003E+02 0.  0.
          5    1    5    5  501    0 -0.47653800336E+02  0.51420979390E+02  0.14895233874E+02  0.71825899229E+02  0.47000000000E+01 0. -1.
        -13    1    6    6    0    0 -0.14789939369E+02 -0.15675771145E+02  0.33969337626E+02  0.40229193458E+02  0.00000000000E+00 0.  1.
         14    1    6    6    0    0 -0.17871418761E+02 -0.73194137038E+02 -0.26928033575E+02  0.80011800989E+02  0.00000000000E+00 0. -1.
         -5    1    3    3    0  503 -0.33893581409E+02  0.17056723258E+02  0.48828676581E+02  0.62016419808E+02  0.47000000000E+01 0.  1.
         11    1    4    4    0    0  0.61347569625E+01  0.31110184550E+02  0.97870193058E+01  0.33185306577E+02  0.00000000000E+00 0. -1.
        -12    1    4    4    0    0  0.10807398291E+03 -0.10717979016E+02 -0.45473471873E+01  0.10869930645E+03  0.00000000000E+00 0.  1.
</event>
<event>
12    1  0.8416569E-002  0.1822732E+03  0.7818608E-02  0.1165925E+00
         21   -1    0    0  503  502  0.00000000000E+00  0.00000000000E+00  0.76434699083E+02  0.76434699083E+02  0.00000000000E+00 0.  1.
         21   -1    0    0  501  503 -0.00000000000E+00 -0.00000000000E+00 -0.47229393565E+03  0.47229393565E+03  0.00000000000E+00 0.  1.
          6    2    1    2  501    0 -0.22844756966E+02 -0.52439121964E+02 -0.27906155734E+03  0.33331499945E+03  0.17306585925E+03 0.  0.
         24    2    3    3    0    0  0.36522747088E+02 -0.57170294405E+02 -0.24039437432E+03  0.26215232965E+03  0.79574085707E+02 0.  0.
         -6    2    1    2    0  502  0.22844756966E+02  0.52439121964E+02 -0.11679767923E+03  0.21541363529E+03  0.17172533873E+03 0.  0.
        -24    2    5    5    0    0  0.17462279474E+02 -0.33771409373E+02 -0.86928786665E+02  0.12389605490E+03  0.79675461552E+02 0.  0.
          5    1    3    3  501    0 -0.59367504054E+02  0.47311724404E+01 -0.38667183014E+02  0.71162669796E+02  0.47000000000E+01 0. -1.
        -13    1    4    4    0    0  0.26663917057E+02 -0.56753217464E+02 -0.24378367312E+03  0.25171883411E+03  0.00000000000E+00 0.  1.
         14    1    4    4    0    0  0.98588300312E+01 -0.41707694075E+00  0.33892987988E+01  0.10433495536E+02  0.00000000000E+00 0. -1.
         -5    1    5    5    0  502  0.53824774925E+01  0.86210531337E+02 -0.29868892569E+02  0.91517580392E+02  0.47000000000E+01 0.  1.
         11    1    6    6    0    0  0.49327592324E+02 -0.24431594475E+02 -0.55755418747E+02  0.78350372639E+02  0.00000000000E+00 0. -1.
        -12    1    6    6    0    0 -0.31865312850E+02 -0.93398148979E+01 -0.31173367918E+02  0.45545682262E+02  0.00000000000E+00 0.  1.
</event>
<event>
12    1  0.8416569E-002  0.1769570E+03  0.7818608E-02  0.1171020E+00
         21   -1    0    0  503  502  0.00000000000E+00  0.00000000000E+00  0.25342890409E+03  0.25342890409E+03  0.00000000000E+00 0. -1.
         21   -1    0    0  501  503 -0.00000000000E+00 -0.00000000000E+00 -0.12537142902E+03  0.12537142902E+03  0.00000000000E+00 0. -1.
          6    2    1    2  501    0  0.21877571916E+02 -0.28110823536E+02  0.37205938039E+02  0.17988383487E+03  0.17235157577E+03 0.  0.
         24    2    3    3    0    0  0.49090798899E+02  0.39763679330E+02  0.36936678780E+02  0.10660580022E+03  0.77520459688E+02 0.  0.
         -6    2    1    2    0  502 -0.21877571916E+02  0.28110823536E+02  0.90851537026E+02  0.19891649824E+03  0.17333471937E+03 0.  0.
        -24    2    5    5    0    0  0.31938017166E+02  0.79149220686E+02  0.64861095422E+02  0.12018512796E+03  0.54340290823E+02 0.  0.
          5    1    3    3  501    0 -0.27213226983E+02 -0.67874502867E+02  0.26925925927E+00  0.73278034654E+02  0.47000000000E+01 0. -1.
        -13    1    4    4    0    0  0.10137591188E+02  0.50265067857E+02  0.41551165653E+02  0.65998842179E+02  0.00000000000E+00 0.  1.
         14    1    4    4    0    0  0.38953207712E+02 -0.10501388527E+02 -0.46144868730E+01  0.40606958039E+02  0.00000000000E+00 0. -1.
         -5    1    5    5    0  502 -0.53815589082E+02 -0.51038397150E+02  0.25990441604E+02  0.78731370283E+02  0.47000000000E+01 0.  1.
         11    1    6    6    0    0  0.15069599343E+02  0.22982930921E+02  0.53932084610E+02  0.60530799502E+02  0.00000000000E+00 0. -1.
        -12    1    6    6    0    0  0.16868417823E+02  0.56166289766E+02  0.10929010812E+02  0.59654328453E+02  0.00000000000E+00 0.  1.
</event>
<event>
12    1  0.8416569E-002  0.2069091E+03  0.7818608E-02  0.1145689E+00
         21   -1    0    0  503  502  0.00000000000E+00  0.00000000000E+00  0.56636927470E+03  0.56636927470E+03  0.00000000000E+00 0.  1.
         21   -1    0    0  501  503 -0.00000000000E+00 -0.00000000000E+00 -0.37584832819E+03  0.37584832819E+03  0.00000000000E+00 0. -1.
          6    2    1    2  501    0  0.36352760450E+02 -0.10121861995E+03 -0.32746615048E+03  0.38735699674E+03  0.17676150882E+03 0.  0.
         24    2    3    3    0    0  0.50962397565E+02 -0.13886887106E+03 -0.26512166008E+03  0.31292643589E+03  0.75840162980E+02 0.  0.
         -6    2    1    2    0  502 -0.36352760450E+02  0.10121861995E+03  0.51798709700E+03  0.55486060615E+03  0.16731087049E+03 0.  0.
        -24    2    5    5    0    0  0.10638676370E+02  0.45533104922E+02  0.13188677114E+03  0.16191706905E+03  0.81465156785E+02 0.  0.
          5    1    3    3  501    0 -0.14609637116E+02  0.37650251113E+02 -0.62344490396E+02  0.74430560849E+02  0.47000000000E+01 0. -1.
        -11    1    4    4    0    0  0.20354185031E+02 -0.11262095094E+03 -0.13648144455E+03  0.17811500820E+03  0.00000000000E+00 0.  1.
         12    1    4    4    0    0  0.30608212535E+02 -0.26247920121E+02 -0.12864021553E+03  0.13481142769E+03  0.00000000000E+00 0. -1.
         -5    1    5    5    0  502 -0.46991436819E+02  0.55685515025E+02  0.38610032586E+03  0.39294353710E+03  0.47000000000E+01 0.  1.
         11    1    6    6    0    0  0.64627883791E+01  0.27390607787E+01 -0.10806694118E+02  0.12886222307E+02  0.00000000000E+00 0. -1.
        -12    1    6    6    0    0  0.41758879905E+01  0.42794044144E+02  0.14269346526E+03  0.14903084674E+03  0.00000000000E+00 0.  1.
</event>
<event>
12    1  0.8416569E-002  0.2935215E+03  0.7818608E-02  0.1088644E+00
         21   -1    0    0  501  502  0.00000000000E+00  0.00000000000E+00  0.19334395553E+04  0.19334395553E+04  0.00000000000E+00 0.  1.
         21   -1    0    0  502  503 -0.00000000000E+00 -0.00000000000E+00 -0.46025004986E+02  0.46025004986E+02  0.00000000000E+00 0. -1.
         -6    2    1    2    0  503 -0.94452529354E+02  0.21785140094E+03  0.75742495535E+03  0.81197522742E+03  0.17096986214E+03 0.  0.
        -24    2    3    3    0    0 -0.80846017273E+00  0.41779829605E+02  0.18396074205E+03  0.20480663150E+03  0.79737029812E+02 0.  0.
          6    2    1    2  501    0  0.94452529354E+02 -0.21785140094E+03  0.11299895950E+04  0.11674893329E+04  0.17255243971E+03 0.  0.
         24    2    5    5    0    0  0.66774014090E+02 -0.22893270952E+03  0.87583323840E+03  0.91154707535E+03  0.83458101051E+02 0.  0.
          5    1    5    5  501    0  0.27678515263E+02  0.11081308588E+02  0.25415635657E+03  0.25594225754E+03  0.47000000000E+01 0. -1.
        -13    1    6    6    0    0  0.15284521606E+02 -0.18192859328E+03  0.65520945772E+03  0.68016987815E+03  0.00000000000E+00 0.  1.
         14    1    6    6    0    0  0.51489492485E+02 -0.47004116247E+02  0.22062378068E+03  0.23137719720E+03  0.00000000000E+00 0. -1.
         -5    1    3    3    0  503 -0.93644069181E+02  0.17607157133E+03  0.57346421330E+03  0.60716859591E+03  0.47000000000E+01 0.  1.
         11    1    4    4    0    0  0.22978751940E+02  0.57210068825E+02  0.12786797743E+03  0.14195504453E+03  0.00000000000E+00 0. -1.
        -12    1    4    4    0    0 -0.23787212113E+02 -0.15430239220E+02  0.56092764616E+02  0.62851586971E+02  0.00000000000E+00 0.  1.
</event>
<event>
12    1  0.8416569E-002  0.2012224E+03  0.7818608E-02  0.1149413E+00
         21   -1    0    0  501  502  0.00000000000E+00  0.00000000000E+00  0.74497325921E+03  0.74497325921E+03  0.00000000000E+00 0.  1.
         21   -1    0    0  502  503 -0.00000000000E+00 -0.00000000000E+00 -0.99205279114E+02  0.99205279114E+02  0.00000000000E+00 0.  1.
         -6    2    1    2    0  503 -0.82277664296E+02 -0.56930553762E+02  0.37709960661E+02  0.20472540962E+03  0.17458450737E+03 0.  0.
        -24    2    3    3    0    0 -0.85550996253E+02  0.11439973429E+02 -0.15008243969E+02  0.11820059936E+03  0.79349154688E+02 0.  0.
          6    2    1    2  501    0  0.82277664296E+02  0.56930553762E+02  0.60805801943E+03  0.63945312871E+03  0.17074848996E+03 0.  0.
         24    2    5    5    0    0  0.12216273521E+03  0.28568709077E+02  0.44450081835E+03  0.46866594786E+03  0.79541738473E+02 0.  0.
          5    1    5    5  501    0 -0.39885070909E+02  0.28361844685E+02  0.16355720109E+03  0.17078718085E+03  0.47000000000E+01 0. -1.
        -11    1    6    6    0    0  0.52503177356E+02  0.30010812209E+02  0.97446152994E+02  0.11468646483E+03  0.00000000000E+00 0.  1.
         12    1    6    6    0    0  0.69659557849E+02 -0.14421031320E+01  0.34705466536E+03  0.35397948303E+03  0.00000000000E+00 0. -1.
         -5    1    3    3    0  503  0.32733319571E+01 -0.68370527191E+02  0.52718204630E+02  0.86524810257E+02  0.47000000000E+01 0.  1.
         13    1    4    4    0    0 -0.29892832493E+02 -0.27874073128E+02  0.15272972156E+02  0.43632660538E+02  0.00000000000E+00 0. -1.
        -14    1    4    4    0    0 -0.55658163761E+02  0.39314046557E+02 -0.30281216125E+02  0.74567938820E+02  0.00000000000E+00 0.  1.
</event>
<event>
12    1  0.8416569E-002  0.2252666E+03  0.7818608E-02  0.1130160E+00
         21   -1    0    0  503  502  0.00000000000E+00  0.00000000000E+00  0.77229416267E+02  0.77229416267E+02  0.00000000000E+00 0. -1.
         21   -1    0    0  501  503 -0.00000000000E+00 -0.00000000000E+00 -0.75823876848E+03  0.75823876848E+03  0.00000000000E+00 0. -1.
          6    2    1    2  501    0  0.14413240080E+03  0.26904990990E+02 -0.18670167883E+03  0.29257911558E+03  0.17101752687E+03 0.  0.
         24    2    3    3    0    0  0.10697163286E+03  0.67458360713E+02 -0.93125830701E+02  0.18393277269E+03  0.95735489036E+02 0.  0.
         -6    2    1    2    0  502 -0.14413240080E+03 -0.26904990990E+02 -0.49430767338E+03  0.54288906916E+03  0.16997187401E+03 0.  0.
        -24    2    5    5    0    0 -0.11912668329E+03 -0.59279256997E+02 -0.47143556506E+03  0.49578702731E+03  0.76472789055E+02 0.  0.
          5    1    3    3  501    0  0.37160767943E+02 -0.40553369723E+02 -0.93575848129E+02  0.10864634289E+03  0.47000000000E+01 0. -1.
        -13    1    4    4    0    0 -0.16454581260E+02  0.20216962756E+02 -0.20289420236E+02  0.33032399263E+02  0.00000000000E+00 0.  1.
         14    1    4    4    0    0  0.12342621412E+03  0.47241397957E+02 -0.72836410464E+02  0.15090037343E+03  0.00000000000E+00 0. -1.
         -5    1    5    5    0  502 -0.25005717508E+02  0.32374266007E+02 -0.22872108321E+02  0.47102041852E+02  0.47000000000E+01 0.  1.
         13    1    6    6    0    0 -0.44764366556E+02 -0.20141991777E+02 -0.69045456921E+02  0.84716134634E+02  0.00000000000E+00 0. -1.
        -14    1    6    6    0    0 -0.74362316734E+02 -0.39137265219E+02 -0.40239010814E+03  0.41107089268E+03  0.00000000000E+00 0.  1.
</event>
<event>
12    1  0.8416569E-002  0.1858232E+03  0.7818608E-02  0.1167361E+00
         21   -1    0    0  503  502  0.00000000000E+00  0.00000000000E+00  0.62563952466E+02  0.62563952466E+02  0.00000000000E+00 0. -1.
         21   -1    0    0  501  503 -0.00000000000E+00 -0.00000000000E+00 -0.77516990897E+03  0.77516990897E+03  0.00000000000E+00 0.  1.
          6    2    1    2  501    0  0.18932447285E+02 -0.21196272656E+02 -0.62218900293E+03  0.64934537020E+03  0.18363696496E+03 0.  0.
         24    2    3    3    0    0  0.43679109345E+02 -0.18508184087E+02 -0.14739596472E+03  0.17387703031E+03  0.79102678736E+02 0.  0.
         -6    2    1    2    0  502 -0.18932447285E+02  0.21196272656E+02 -0.90416953571E+02  0.18838849123E+03  0.16281056047E+03 0.  0.
        -24    2    5    5    0    0  0.22127131489E+02 -0.40967121789E+02 -0.43694146719E+02  0.10032438221E+03  0.77381446047E+02 0.  0.
          5    1    3    3  501    0 -0.24746662059E+02 -0.26880885691E+01 -0.47479303822E+03  0.47546833989E+03  0.47000000000E+01 0. -1.
        -13    1    4    4    0    0  0.60208390648E+02  0.13458328738E+01 -0.12836469154E+03  0.14178982899E+03  0.00000000000E+00 0.  1.
         14    1    4    4    0    0 -0.16529281304E+02 -0.19854016960E+02 -0.19031273178E+02  0.32087201321E+02  0.00000000000E+00 0. -1.
         -5    1    5    5    0  502 -0.41059578774E+02  0.62163394444E+02 -0.46722806851E+02  0.88064109023E+02  0.47000000000E+01 0.  1.
         13    1    6    6    0    0  0.13702834737E+02  0.21963210586E+02 -0.63136945420E+01  0.26646069839E+02  0.00000000000E+00 0. -1.
        -14    1    6    6    0    0  0.84242967517E+01 -0.62930332375E+02 -0.37380452177E+02  0.73678312369E+02  0.00000000000E+00 0.  1.
</event>
<event>
12    1  0.8416569E-002  0.1913954E+03  0.7818608E-02  0.1158775E+00
         21   -1    0    0  503  502  0.00000000000E+00  0.00000000000E+00  0.26868789348E+03  0.26868789348E+03  0.00000000000E+00 0. -1.
         21   -1    0    0  501  503 -0.00000000000E+00 -0.00000000000E+00 -0.13623999780E+03  0.13623999780E+03  0.00000000000E+00 0. -1.
          6    2    1    2  501    0 -0.65810662512E+02  0.10488186576E+02  0.10521323227E+03  0.21840796760E+03  0.17941898091E+03 0.  0.
         24    2    3    3    0    0 -0.37783732233E+02 -0.69742372777E+01  0.14234623514E+03  0.16849409208E+03  0.81557084314E+02 0.  0.
         -6    2    1    2    0  502  0.65810662512E+02 -0.10488186576E+02  0.27234663407E+02  0.18651992367E+03  0.17206658501E+03 0.  0.
        -24    2    5    5    0    0  0.80955257132E+02 -0.39273975983E+02  0.61353623127E+02  0.13914721180E+03  0.86611088401E+02 0.  0.
          5    1    3    3  501    0 -0.28026930279E+02  0.17462423854E+02 -0.37133002866E+02  0.49913875522E+02  0.47000000000E+01 0. -1.
        -13    1    4    4    0    0  0.12554337411E+02 -0.19606129197E+02  0.82410172268E+01  0.24696681049E+02  0.00000000000E+00 0.  1.
         14    1    4    4    0    0 -0.50338069644E+02  0.12631891919E+02  0.13410521791E+03  0.14379741103E+03  0.00000000000E+00 0. -1.
         -5    1    5    5    0  502 -0.15144594619E+02  0.28785789406E+02 -0.34118959720E+02  0.47372711874E+02  0.47000000000E+01 0.  1.
         11    1    6    6    0    0  0.25952244691E+02  0.22198762693E+02 -0.33432089316E+01  0.34314444707E+02  0.00000000000E+00 0. -1.
        -12    1    6    6    0    0  0.55003012440E+02 -0.61472738675E+02  0.64696832059E+02  0.10483276709E+03  0.00000000000E+00 0.  1.
</event>
<event>
12    1  0.8416569E-002  0.2101813E+03  0.7818608E-02  0.1143769E+00
         21   -1    0    0  501  502  0.00000000000E+00  0.00000000000E+00  0.11476885096E+04  0.11476885096E+04  0.00000000000E+00 0. -1.
         21   -1    0    0  502  503 -0.00000000000E+00 -0.00000000000E+00 -0.86872173968E+02  0.86872173968E+02  0.00000000000E+00 0.  1.
         -6    2    1    2    0  503  0.10067403115E+03 -0.76010156419E+01  0.10070448332E+04  0.10287446089E+04  0.18434516108E+03 0.  0.
        -24    2    3    3    0    0  0.33700812267E+01  0.28036267431E+02  0.70732167328E+03  0.71157882076E+03  0.72409108005E+02 0.  0.
          6    2    1    2  501    0 -0.10067403115E+03  0.76010156419E+01  0.53771502523E+02  0.20581607469E+03  0.17110185894E+03 0.  0.
         24    2    5    5    0    0 -0.90842082003E+02 -0.45057146746E+02 -0.65957162386E-01  0.12972329346E+03  0.80905489188E+02 0.  0.
          5    1    5    5  501    0 -0.98319491454E+01  0.52658162388E+02  0.53837459685E+02  0.76092781231E+02  0.47000000000E+01 0. -1.
        -11    1    6    6    0    0 -0.84738456407E+02 -0.15649560632E+02  0.25943695911E+02  0.89992166880E+02  0.00000000000E+00 0.  1.
         12    1    6    6    0    0 -0.61036255966E+01 -0.29407586114E+02 -0.26009653074E+02  0.39731126582E+02  0.00000000000E+00 0. -1.
         -5    1    3    3    0  503  0.97303949922E+02 -0.35637283073E+02  0.29972315988E+03  0.31716578816E+03  0.47000000000E+01 0.  1.
         11    1    4    4    0    0  0.30182087537E+02  0.34815591096E+02  0.54248000676E+03  0.54443332147E+03  0.00000000000E+00 0. -1.
        -12    1    4    4    0    0 -0.26812006310E+02 -0.67793236650E+01  0.16484166651E+03  0.16714549928E+03  0.00000000000E+00 0.  1.
</event>
<event>
12    1  0.8416569E-002  0.1816393E+03  0.7818608E-02  0.1166933E+00
         21   -1    0    0  503  502  0.00000000000E+00  0.00000000000E+00  0.44914761794E+03  0.44914761794E+03  0.00000000000E+00 0.  1.
         21   -1    0    0  501  503 -0.00000000000E+00 -0.00000000000E+00 -0.10957715424E+03  0.10957715424E+03  0.00000000000E+00 0.  1.
          6    2    1    2  501    0  0.51034165119E+02 -0.45166570715E+01  0.58836597372E+01  0.17880411022E+03  0.17120574225E+03 0.  0.
         24    2    3    3    0    0  0.32838742177E+01  0.57059851772E+02 -0.18204876254E+02  0.97108918875E+02  0.76368279355E+02 0.  0.
         -6    2    1    2    0  502 -0.51034165119E+02  0.45166570715E+01  0.33368680397E+03  0.37992066196E+03  0.17426399525E+03 0.  0.
        -24    2    5    5    0    0 -0.98657209426E+02  0.29225470182E+01  0.19115625568E+03  0.22956261351E+03  0.80103016089E+02 0.  0.
          5    1    3    3  501    0  0.47750290901E+02 -0.61576508843E+02  0.24088535991E+02  0.81695191344E+02  0.47000000000E+01 0. -1.
        -11    1    4    4    0    0  0.18756433674E+02  0.70925942742E+02 -0.75276354306E+01  0.73749294595E+02  0.00000000000E+00 0.  1.
         12    1    4    4    0    0 -0.15472559457E+02 -0.13866090970E+02 -0.10677240823E+02  0.23359624281E+02  0.00000000000E+00 0. -1.
         -5    1    5    5    0  502  0.47623044307E+02  0.15941100533E+01  0.14253054829E+03  0.15035804845E+03  0.47000000000E+01 0.  1.
         11    1    6    6    0    0  0.42730898883E+01  0.10347248619E+02  0.67862928170E+02  0.68780097928E+02  0.00000000000E+00 0. -1.
        -12    1    6    6    0    0 -0.10293029931E+03 -0.74247016009E+01  0.12329332751E+03  0.16078251559E+03  0.00000000000E+00 0.  1.
</event>
<event>
12    1  0.8416569E-002  0.1762543E+03  0.7818608E-02  0.1172131E+00
         21   -1    0    0  501  502  0.00000000000E+00  0.00000000000E+00  0.69106485126E+03  0.69106485126E+03  0.00000000000E+00 0.  1.
         21   -1    0    0  502  503 -0.00000000000E+00 -0.00000000000E+00 -0.72550131469E+02  0.72550131469E+02  0.00000000000E+00 0.  1.
         -6    2    1    2    0  503 -0.20416054575E+02 -0.35739378259E+02  0.69566413668E+02  0.18706506137E+03  0.16870012695E+03 0.  0.
        -24    2    3    3    0    0  0.80087519011E+01 -0.71014807152E+02  0.43427757393E+01  0.10751294983E+03  0.80205559266E+02 0.  0.
          6    2    1    2  501    0  0.20416054575E+02  0.35739378259E+02  0.54894830612E+03  0.57654992135E+03  0.17138100997E+03 0.  0.
         24    2    5    5    0    0  0.30336741137E+02  0.56054721199E+02  0.54341725387E+03  0.55280511730E+03  0.78922343349E+02 0.  0.
          5    1    5    5  501    0 -0.99206865617E+01 -0.20315342940E+02  0.55310522529E+01  0.23744804056E+02  0.47000000000E+01 0. -1.
        -13    1    6    6    0    0  0.40295487011E+02  0.67812061348E+02  0.35017185544E+03  0.35894641701E+03  0.00000000000E+00 0.  1.
         14    1    6    6    0    0 -0.99587458739E+01 -0.11757340149E+02  0.19324539842E+03  0.19385870029E+03  0.00000000000E+00 0. -1.
         -5    1    3    3    0  503 -0.28424806476E+02  0.35275428894E+02  0.65223637929E+02  0.79552111547E+02  0.47000000000E+01 0.  1.
         13    1    4    4    0    0 -0.65335753015E+01  0.16452000561E+02  0.63953937539E+01  0.18821715914E+02  0.00000000000E+00 0. -1.
        -14    1    4    4    0    0  0.14542327203E+02 -0.87466807713E+02 -0.20526180147E+01  0.88691233912E+02  0.00000000000E+00 0.  1.
</event>
<event>
12    1  0.8416569E-002  0.2111555E+03  0.7818608E-02  0.1140769E+00
         21   -1    0    0  503  502  0.00000000000E+00  0.00000000000E+00  0.15971281256E+04  0.15971281256E+04  0.00000000000E+00 0. -1.
         21   -1    0    0  501  503 -0.00000000000E+00 -0.00000000000E+00 -0.55852315016E+02  0.55852315016E+02  0.00000000000E+00 0. -1.
          6    2    1    2  501    0 -0.10889462550E+03 -0.59075756907E+02  0.18478835183E+03  0.28015676250E+03  0.17027358011E+03 0.  0.
         24    2    3    3    0    0 -0.96009714779E+02  0.14297605125E+02  0.15417516312E+03  0.19947883179E+03  0.81237531753E+02 0.  0.
         -6    2    1    2    0  502  0.10889462550E+03  0.59075756907E+02  0.13564874587E+04  0.13728236781E+04  0.17099310199E+03 0.  0.
        -24    2    5    5    0    0  0.56386706027E+02  0.10172587945E+03  0.85966468013E+03  0.87139464234E+03  0.82326455479E+02 0.  0.
          5    1    3    3  501    0 -0.12884910725E+02 -0.73373362031E+02  0.30613188710E+02  0.80677930707E+02  0.47000000000E+01 0. -1.
        -11    1    4    4    0    0 -0.19980974553E+02  0.33749750806E+02  0.19969611442E+02  0.44012162009E+02  0.00000000000E+00 0.  1.
         12    1    4    4    0    0 -0.76028740226E+02 -0.19452145681E+02  0.13420555168E+03  0.15546666978E+03  0.00000000000E+00 0. -1.
         -5    1    5    5    0  502  0.52507919478E+02 -0.42650122542E+02  0.49682277861E+03  0.50142903576E+03  0.47000000000E+01 0.  1.
         13    1    6    6    0    0  0.72895311239E+02  0.95109474952E+02  0.80601017431E+03  0.81486927769E+03  0.00000000000E+00 0. -1.
        -14    1    6    6    0    0 -0.16508605213E+02  0.66164044969E+01  0.53654505817E+02  0.56525364652E+02  0.00000000000E+00 0.  1.
</event>
<event>
12    1  0.8416569E-002  0.2122814E+03  0.7818608E-02  0.1139780E+00
         21   -1    0    0  503  502  0.00000000000E+00  0.00000000000E+00  0.42519978649E+02  0.42519978649E+02  0.00000000000E+00 0.  1.
         21   -1    0    0  501  503 -0.00000000000E+00 -0.00000000000E+00 -0.12268318204E+04  0.12268318204E+04  0.00000000000E+00 0.  1.
          6    2    1    2  501    0 -0.11660729012E+03  0.43724719209E+02 -0.35779993792E+03  0.41601405744E+03  0.17186561388E+03 0.  0.
         24    2    3    3    0    0 -0.27249770407E+01 -0.52539111925E+01 -0.92513946175E+02  0.12315430451E+03  0.81074801268E+02 0.  0.
         -6    2    1    2    0  502  0.11660729012E+03 -0.43724719209E+02 -0.82651190387E+03  0.85333774165E+03  0.17191353321E+03 0.  0.
        -24    2    5    5    0    0 -0.45411609335E+01 -0.34102518067E+02 -0.26195197850E+03  0.27582624109E+03  0.79231763516E+02 0.  0.
          5    1    3    3  501    0 -0.11388231308E+03  0.48978630401E+02 -0.26528599174E+03  0.29285975292E+03  0.47000000000E+01 0. -1.
        -13    1    4    4    0    0  0.16430939279E+00  0.32247600855E+02 -0.12217001348E+02  0.34484632526E+02  0.00000000000E+00 0.  1.
         14    1    4    4    0    0 -0.28892864334E+01 -0.37501512047E+02 -0.80296944827E+02  0.88669671988E+02  0.00000000000E+00 0. -1.
         -5    1    5    5    0  502  0.12114845106E+03 -0.96222011418E+01 -0.56455992537E+03  0.57751150056E+03  0.47000000000E+01 0.  1.
         11    1    6    6    0    0  0.25980004981E+02 -0.45832743975E+02 -0.14060497532E+03  0.15015112442E+03  0.00000000000E+00 0. -1.
        -12    1    6    6    0    0 -0.30521165915E+02  0.11730225908E+02 -0.12134700318E+03  0.12567511667E+03  0.00000000000E+00 0.  1.
</event>
<event>
12    1  0.8416569E-002  0.1821539E+03  0.7818608E-02  0.1165980E+00
         21   -1    0    0  501  502  0.00000000000E+00  0.00000000000E+00  0.80375183040E+03  0.80375183040E+03  0.00000000000E+00 0. -1.
         21   -1    0    0  502  503 -0.00000000000E+00 -0.00000000000E+00 -0.54751365243E+02  0.54751365243E+02  0.00000000000E+00 0. -1.
         -6    2    1    2    0  503 -0.23300760773E+02 -0.56915858097E+02  0.16055633658E+03  0.24281346582E+03  0.17145757963E+03 0.  0.
        -24    2    3    3    0    0 -0.34719525223E+02  0.27951831168E+02  0.11830743611E+03  0.14721026266E+03  0.75415261703E+02 0.  0.
          6    2    1    2  501    0  0.23300760773E+02  0.56915858097E+02  0.58844412858E+03  0.61568972983E+03  0.17036728148E+03 0.  0.
         24    2    5    5    0    0  0.19456276627E+01 -0.32019196549E+02  0.23708782943E+03  0.25259356542E+03  0.81017627789E+02 0.  0.
          5    1    5    5  501    0  0.21355133110E+02  0.88935054646E+02  0.35135629915E+03  0.36309616441E+03  0.47000000000E+01 0. -1.
        -11    1    6    6    0    0 -0.38140165589E+02 -0.97906404865E+01  0.13627009091E+03  0.14184522040E+03  0.00000000000E+00 0.  1.
         12    1    6    6    0    0  0.40085793252E+02 -0.22228556063E+02  0.10081773852E+03  0.11074834502E+03  0.00000000000E+00 0. -1.
         -5    1    3    3    0  503  0.11418764450E+02 -0.84867689264E+02  0.42248900471E+02  0.95603203156E+02  0.47000000000E+01 0.  1.
         13    1    4    4    0    0 -0.29801655779E+02 -0.12471468801E+02  0.94883510364E+02  0.10023251349E+03  0.00000000000E+00 0. -1.
        -14    1    4    4    0    0 -0.49178694437E+01  0.40423299969E+02  0.23423925744E+02  0.46977749175E+02  0.00000000000E+00 0.  1.
</event>
<event>
12    1  0.8416569E-002  0.2437194E+03  0.7818608E-02  0.1117430E+00
         21   -1    0    0  503  502  0.00000000000E+00  0.00000000000E+00  0.22535510547E+03  0.22535510547E+03  0.00000000000E+00 0. -1.
         21   -1    0    0  501  503 -0.00000000000E+00 -0.00000000000E+00 -0.26777656740E+03  0.26777656740E+03  0.00000000000E+00 0. -1.
          6    2    1    2  501    0  0.17151603997E+03 -0.18410434788E+02 -0.54182754711E+02  0.24912868737E+03  0.17138446804E+03 0.  0.
         24    2    3    3    0    0  0.77502474751E+02 -0.56695213180E+01  0.36300373160E+02  0.11794115843E+03  0.80954448270E+02 0.  0.
         -6    2    1    2    0  502 -0.17151603997E+03  0.18410434788E+02  0.11761292779E+02  0.24400298550E+03  0.17216977914E+03 0.  0.
        -24    2    5    5    0    0 -0.89314521440E+01 -0.13277561493E+02  0.36954497227E+02  0.76388353506E+02  0.64911333444E+02 0.  0.
          5    1    3    3  501    0  0.94013565221E+02 -0.12740913470E+02 -0.90483127871E+02  0.13118752895E+03  0.47000000000E+01 0. -1.
        -11    1    4    4    0    0 -0.13469073351E+02  0.62634365964E+01  0.19745207306E+02  0.24708698600E+02  0.00000000000E+00 0.  1.
         12    1    4    4    0    0  0.90971548102E+02 -0.11932957914E+02  0.16555165854E+02  0.93232459826E+02  0.00000000000E+00 0. -1.
         -5    1    5    5    0  502 -0.16258458783E+03  0.31687996280E+02 -0.25193204447E+02  0.16761463199E+03  0.47000000000E+01 0.  1.
         11    1    6    6    0    0 -0.97254943038E+01  0.19632235172E+02 -0.55746159936E+01  0.22607216564E+02  0.00000000000E+00 0. -1.
        -12    1    6    6    0    0  0.79404215975E+00 -0.32909796665E+02  0.42529113220E+02  0.53781136942E+02  0.00000000000E+00 0.  1.
</event>
<event>
12    1  0.8416569E-002  0.1711378E+03  0.7818608E-02  0.1179299E+00
         21   -1    0    0  503  502  0.00000000000E+00  0.00000000000E+00  0.83023573296E+02  0.83023573296E+02  0.00000000000E+00 0. -1.
         21   -1    0    0  501  503 -0.00000000000E+00 -0.00000000000E+00 -0.36557444082E+03  0.36557444082E+03  0.00000000000E+00 0. -1.
          6    2    1    2  501    0 -0.32325118934E+01 -0.37830905698E+01 -0.21230060749E+03  0.27268973088E+03  0.17106542749E+03 0.  0.
         24    2    3    3    0    0 -0.39050927083E+02  0.39215722399E+02 -0.18326947727E+03  0.20946985027E+03  0.85012170197E+02 0.  0.
         -6    2    1    2    0  502  0.32325118934E+01  0.37830905698E+01 -0.70250260039E+02  0.17590828324E+03  0.16119511211E+03 0.  0.
        -24    2    5    5    0    0  0.28437932563E+02  0.15246938848E+02  0.13649458037E+02  0.87432378371E+02  0.80105729696E+02 0.  0.
          5    1    3    3  501    0  0.35818415190E+02 -0.42998812969E+02 -0.29031130214E+02  0.63219880615E+02  0.47000000000E+01 0. -1.
        -13    1    4    4    0    0  0.19316841625E+02  0.33880813307E+02 -0.10254931486E+03  0.10971513960E+03  0.00000000000E+00 0.  1.
         14    1    4    4    0    0 -0.58367768708E+02  0.53349090921E+01 -0.80720162417E+02  0.99754710664E+02  0.00000000000E+00 0. -1.
         -5    1    5    5    0  502 -0.25205420670E+02 -0.11463848279E+02 -0.83899718076E+02  0.88475904865E+02  0.47000000000E+01 0.  1.
         11    1    6    6    0    0  0.34856295100E+02 -0.85130487228E+01 -0.23484340716E+02  0.42882951922E+02  0.00000000000E+00 0. -1.
        -12    1    6    6    0    0 -0.64183625371E+01  0.23759987571E+02  0.37133798753E+02  0.44549426449E+02  0.00000000000E+00 0.  1.
</event>
<event>
12    1  0.8416569E-002  0.1851826E+03  0.7818608E-02  0.1162962E+00
         21   -1    0    0  503  502  0.00000000000E+00  0.00000000000E+00  0.38276386510E+03  0.38276386510E+03  0.00000000000E+00 0.  1.
         21   -1    0    0  501  503 -0.00000000000E+00 -0.00000000000E+00 -0.91442846405E+02  0.91442846405E+02  0.00000000000E+00 0.  1.
          6    2    1    2  501    0 -0.68904153794E+02  0.24658573175E+01  0.18104544603E+03  0.25897887456E+03  0.17186838301E+03 0.  0.
         24    2    3    3    0    0 -0.57607463150E+02  0.53514605534E+02  0.17430547193E+03  0.20605338765E+03  0.76766973374E+02 0.  0.
         -6    2    1    2    0  502  0.68904153794E+02 -0.24658573175E+01  0.11027557266E+03  0.21522783695E+03  0.17148894136E+03 0.  0.
        -24    2    5    5    0    0 -0.87698875922E+01  0.14060937252E+01  0.61842275032E+02  0.12348840688E+03  0.10651775262E+03 0.  0.
          5    1    3    3  501    0 -0.11296690644E+02 -0.51048748217E+02  0.67399741049E+01  0.52925486913E+02  0.47000000000E+01 0. -1.
        -11    1    4    4    0    0 -0.22769001819E+02  0.11937802526E+02  0.13894232675E+03  0.14130077401E+03  0.00000000000E+00 0.  1.
         12    1    4    4    0    0 -0.34838461331E+02  0.41576803009E+02  0.35363145182E+02  0.64752613642E+02  0.00000000000E+00 0. -1.
         -5    1    5    5    0  502  0.77674041386E+02 -0.38719510427E+01  0.48433297631E+02  0.91739430070E+02  0.47000000000E+01 0.  1.
         13    1    6    6    0    0  0.30575219518E+02  0.39911413198E+02  0.19064173633E+02  0.53769951352E+02  0.00000000000E+00 0. -1.
        -14    1    6    6    0    0 -0.39345107111E+02 -0.38505319473E+02  0.42778101399E+02  0.69718455524E+02  0.00000000000E+00 0.  1.
</event>
<event>
12    1  0.8416569E-002  0.1879682E+03  0.7818608E-02  0.1160890E+00
         21   -1    0    0  501  502  0.00000000000E+00  0.00000000000E+00  0.30510285470E+03  0.30510285470E+03  0.00000000000E+00 0.  1.
         21   -1    0    0  502  503 -0.00000000000E+00 -0.00000000000E+00 -0.20308418959E+03  0.20308418959E+03  0.00000000000E+00 0.  1.
         -6    2    1    2    0  503  0.41649752775E+02 -0.56050044013E+02 -0.11684834234E+03  0.22132684643E+03  0.17451569701E+03 0.  0.
        -24    2    3    3    0    0 -0.27999371961E+02 -0.28523972858E+01 -0.10177147941E+02  0.83189871264E+02  0.77620096240E+02 0.  0.
          6    2    1    2  501    0 -0.41649752775E+02  0.56050044013E+02  0.21886700745E+03  0.28686019786E+03  0.17178386660E+03 0.  0.
         24    2    5    5    0    0 -0.80455847050E+02  0.60681659042E+02  0.10414348530E+03  0.16557152838E+03  0.80079075973E+02 0.  0.
          5    1    5    5  501    0  0.38806094274E+02 -0.46316150294E+01  0.11472352215E+03  0.12128866948E+03  0.47000000000E+01 0. -1.
        -11    1    6    6    0    0 -0.49144963454E+02  0.70927379111E+02  0.10044460988E+03  0.13241993881E+03  0.00000000000E+00 0.  1.
         12    1    6    6    0    0 -0.31310883596E+02 -0.10245720070E+02  0.36988754231E+01  0.33151589565E+02  0.00000000000E+00 0. -1.
         -5    1    3    3    0  503  0.69649124737E+02 -0.53197646727E+02 -0.10667119440E+03  0.13813697517E+03  0.47000000000E+01 0.  1.
         11    1    4    4    0    0  0.24118362666E+01  0.23203549058E+02  0.21810331210E+02  0.31936064106E+02  0.00000000000E+00 0. -1.
        -12    1    4    4    0    0 -0.30411208228E+02 -0.26055946344E+02 -0.31987479151E+02  0.51253807158E+02  0.00000000000E+00 0.  1.
</event>
<event>
12    1  0.8416569E-002  0.2059828E+03  0.7818608E-02  0.1145463E+00
         21   -1    0    0  503  502  0.00000000000E+00  0.00000000000E+00  0.94167320861E+03  0.94167320861E+03  0.00000000000E+00 0.  1.
         21   -1    0    0  501  503 -0.00000000000E+00 -0.00000000000E+00 -0.44612648967E+02  0.44612648967E+02  0.00000000000E+00 0.  1.
          6    2    1    2  501    0 -0.39571472663E+02  0.10704928729E+03  0.48364301134E+03  0.52439518059E+03  0.16749415407E+03 0.  0.
         24    2    3    3    0    0 -0.70947117695E+02  0.47926191280E+02  0.18857732906E+03  0.22179673637E+03  0.79384947625E+02 0.  0.
         -6    2    1    2    0  502  0.39571472663E+02 -0.10704928729E+03  0.41341754831E+03  0.46189067700E+03  0.17147442051E+03 0.  0.
        -24    2    5    5    0    0 -0.17742918816E+02 -0.12063996910E+03  0.26870662997E+03  0.30558013356E+03  0.79417578183E+02 0.  0.
          5    1    3    3  501    0  0.31375645031E+02  0.59123096010E+02  0.29506568228E+03  0.30259844421E+03  0.47000000000E+01 0. -1.
        -13    1    4    4    0    0  0.14004950613E+02  0.17000092101E+01  0.62998924778E+01  0.15450479546E+02  0.00000000000E+00 0.  1.
         14    1    4    4    0    0 -0.84952068307E+02  0.46226182070E+02  0.18227743659E+03  0.20634625683E+03  0.00000000000E+00 0. -1.
         -5    1    5    5    0  502  0.57314391479E+02  0.13590681811E+02  0.14471091834E+03  0.15631054344E+03  0.47000000000E+01 0.  1.
         13    1    6    6    0    0  0.23082413783E+02 -0.63579816671E+01  0.50825604453E+02  0.56182415620E+02  0.00000000000E+00 0. -1.
        -14    1    6    6    0    0 -0.40825332599E+02 -0.11428198743E+03  0.21788102551E+03  0.24939771794E+03  0.00000000000E+00 0.  1.
</event>
<event>
12    1  0.8416569E-002  0.2268567E+03  0.7818608E-02  0.1129779E+00
         21   -1    0    0  501  502  0.00000000000E+00  0.00000000000E+00  0.24634867586E+04  0.24634867586E+04  0.00000000000E+00 0.  1.
         21   -1    0    0  502  503 -0.00000000000E+00 -0.00000000000E+00 -0.35757575525E+02  0.35757575525E+02  0.00000000000E+00 0. -1.
         -6    2    1    2    0  503  0.14601357572E+03 -0.25205141613E+02  0.40354587756E+03  0.46293979025E+03  0.17178099615E+03 0.  0.
        -24    2    3    3    0    0  0.17243209305E+02  0.10193580127E+02  0.86783553627E+02  0.11914430361E+03  0.79137491493E+02 0.  0.
          6    2    1    2  501    0 -0.14601357572E+03  0.25205141613E+02  0.20241833055E+04  0.20363045439E+04  0.16511474081E+03 0.  0.
         24    2    5    5    0    0 -0.88534662335E+02  0.73321055080E+02  0.10561165928E+04  0.10653286343E+04  0.79551731775E+02 0.  0.
          5    1    5    5  501    0 -0.57478913387E+02 -0.48115913467E+02  0.96806671275E+03  0.97097590956E+03  0.47000000000E+01 0. -1.
        -11    1    6    6    0    0 -0.34118897873E+02  0.56551712462E+01  0.60152917393E+03  0.60252255331E+03  0.00000000000E+00 0.  1.
         12    1    6    6    0    0 -0.54415764461E+02  0.67665883834E+02  0.45458741884E+03  0.46280608101E+03  0.00000000000E+00 0. -1.
         -5    1    3    3    0  503  0.12877036642E+03 -0.35398721741E+02  0.31676232394E+03  0.34379548664E+03  0.47000000000E+01 0.  1.
         11    1    4    4    0    0  0.71164904549E+01  0.41526127381E+02  0.71160785841E+02  0.82697769820E+02  0.00000000000E+00 0. -1.
        -12    1    4    4    0    0  0.10126718850E+02 -0.31332547254E+02  0.15622767786E+02  0.36446533791E+02  0.00000000000E+00 0.  1.
</event>
<event>
12    1  0.8416569E-002  0.1893467E+03  0.7818608E-02  0.1159062E+00
         21   -1    0    0  503  502  0.00000000000E+00  0.00000000000E+00  0.45277478451E+03  0.45277478451E+03  0.00000000000E+00 0.  1.
         21   -1    0    0  501  503 -0.00000000000E+00 -0.00000000000E+00 -0.13103795522E+03  0.13103795522E+03  0.00000000000E+00 0.  1.
          6    2    1    2  501    0  0.66563478306E+02  0.42411705354E+02 -0.22780760164E+02  0.19071217272E+03  0.17211252248E+03 0.  0.
         24    2    3    3    0    0  0.44575661703E+02 -0.33338014891E+02 -0.46958050114E+02  0.10807976052E+03  0.79860899762E+02 0.  0.
         -6    2    1    2    0  502 -0.66563478306E+02 -0.42411705354E+02  0.34451758945E+03  0.39310056701E+03  0.17206463016E+03 0.  0.
        -24    2    5    5    0    0 -0.74966776569E+02  0.31164952161E+02  0.21059177210E+03  0.23999160417E+03  0.81583109530E+02 0.  0.
          5    1    3    3  501    0  0.21987816603E+02  0.75749720245E+02  0.24177289949E+02  0.82632412197E+02  0.47000000000E+01 0. -1.
        -11    1    4    4    0    0  0.29979800100E+02 -0.10646199682E+02  0.18833581006E+02  0.36970714832E+02  0.00000000000E+00 0.  1.
         12    1    4    4    0    0  0.14595861603E+02 -0.22691815210E+02 -0.65791631120E+02  0.71109045689E+02  0.00000000000E+00 0. -1.
         -5    1    5    5    0  502  0.84032982636E+01 -0.73576657515E+02  0.13392581734E+03  0.15310896285E+03  0.47000000000E+01 0.  1.
         11    1    6    6    0    0 -0.18144262430E+02 -0.87201735504E+01  0.20939714147E+01  0.20239575148E+02  0.00000000000E+00 0. -1.
        -12    1    6    6    0    0 -0.56822514139E+02  0.39885125711E+02  0.20849780069E+03  0.21975202902E+03  0.00000000000E+00 0.  1.
</event>
<event>
12    1  0.8416569E-002  0.2103793E+03  0.7818608E-02  0.1141619E+00
         21   -1    0    0  503  502  0.00000000000E+00  0.00000000000E+00  0.21238701881E+03  0.21238701881E+03  0.00000000000E+00 0.  1.
         21   -1    0    0  501  503 -0.00000000000E+00 -0.00000000000E+00 -0.20800855957E+03  0.20800855957E+03  0.00000000000E+00 0. -1.
          6    2    1    2  501    0 -0.11178151273E+03 -0.45894585668E+02  0.19293676355E+02  0.20948825738E+03  0.17003430375E+03 0.  0.
         24    2    3    3    0    0 -0.18633954491E+02  0.54952685678E+01 -0.34476793197E+02  0.90195599939E+02  0.81050445666E+02 0.  0.
         -6    2    1    2    0  502  0.11178151273E+03  0.45894585668E+02 -0.14915217118E+02  0.21090732100E+03  0.17221502480E+03 0.  0.
        -24    2    5    5    0    0  0.10691710309E+03  0.68808873640E+02 -0.58481144879E+02  0.16122022875E+03  0.80037427653E+02 0.  0.
          5    1    3    3  501    0 -0.93147558240E+02 -0.51389854236E+02  0.53770469551E+02  0.11929265744E+03  0.47000000000E+01 0. -1.
        -13    1    4    4    0    0  0.16820443743E+02  0.23235599491E+02 -0.40978839749E+02  0.50020852837E+02  0.00000000000E+00 0.  1.
         14    1    4    4    0    0 -0.35454398234E+02 -0.17740330923E+02  0.65020465519E+01  0.40174747102E+02  0.00000000000E+00 0. -1.
         -5    1    5    5    0  502  0.48644096368E+01 -0.22914287972E+02  0.43565927761E+02  0.49687092248E+02  0.47000000000E+01 0.  1.
         11    1    6    6    0    0  0.23917101413E+01 -0.12209326333E+02  0.63142046909E+01  0.13951957131E+02  0.00000000000E+00 0. -1.
        -12    1    6    6    0    0  0.10452539295E+03  0.81018199974E+02 -0.64795349570E+02  0.14726827162E+03  0.00000000000E+00 0.  1.
</event>
<event>
12    1  0.8416569E-002  0.2032440E+03  0.7818608E-02  0.1147047E+00
         21   -1    0    0  501  502  0.00000000000E+00  0.00000000000E+00  0.27284711897E+02  0.27284711897E+02  0.00000000000E+00 0. -1.
         21   -1    0    0  502  503 -0.00000000000E+00 -0.00000000000E+00 -0.17934906359E+04  0.17934906359E+04  0.00000000000E+00 0.  1.
         -6    2    1    2    0  503  0.30642221051E+02  0.10391811788E+03 -0.52316896216E+03  0.56123216680E+03  0.17186582309E+03 0.  0.
        -24    2    3    3    0    0 -0.86381862510E+00  0.99091268736E+02 -0.20821084752E+03  0.24463047225E+03  0.81685281469E+02 0.  0.
          6    2    1    2  501    0 -0.30642221051E+02 -0.10391811788E+03 -0.12430369619E+04  0.12595431810E+04  0.17195992371E+03 0.  0.
         24    2    5    5    0    0  0.19405087820E+02 -0.81089565563E+02 -0.11047374596E+04  0.11106314009E+04  0.78135644825E+02 0.  0.
          5    1    5    5  501    0 -0.50047308870E+02 -0.22828552313E+02 -0.13829950226E+03  0.14891178010E+03  0.47000000000E+01 0. -1.
        -13    1    6    6    0    0  0.57336489099E+01 -0.13694427888E+02 -0.69534479138E+03  0.69550326454E+03  0.00000000000E+00 0.  1.
         14    1    6    6    0    0  0.13671438910E+02 -0.67395137675E+02 -0.40939266824E+03  0.41512813640E+03  0.00000000000E+00 0. -1.
         -5    1    3    3    0  503  0.31506039676E+02  0.48268491403E+01 -0.31495811464E+03  0.31660169454E+03  0.47000000000E+01 0.  1.
         11    1    4    4    0    0  0.37111824952E+02  0.48525017348E+02 -0.13305355260E+03  0.14640769351E+03  0.00000000000E+00 0. -1.
        -12    1    4    4    0    0 -0.37975643577E+02  0.50566251388E+02 -0.75157294922E+02  0.98222778746E+02  0.00000000000E+00 0.  1.
</event>
<event>
12    1  0.8416569E-002  0.2362937E+03  0.7818608E-02  0.1122711E+00
         21   -1    0    0  503  502  0.00000000000E+00  0.00000000000E+00  0.84597924639E+03  0.84597924639E+03  0.00000000000E+00 0.  1.
         21   -1    0    0  501  503 -0.00000000000E+00 -0.00000000000E+00 -0.10977661927E+03  0.10977661927E+03  0.00000000000E+00 0.  1.
          6    2    1    2  501    0  0.15400610155E+03 -0.39157378066E+02  0.65111140143E+02  0.24510036242E+03  0.17488152424E+03 0.  0.
         24    2    3    3    0    0  0.95630512207E+02 -0.81715324372E+02  0.82921885869E+02  0.17054701986E+03  0.79922823548E+02 0.  0.
         -6    2    1    2    0  502 -0.15400610155E+03  0.39157378066E+02  0.67109148697E+03  0.71065550324E+03  0.17151175129E+03 0.  0.
        -24    2    5    5    0    0 -0.13863797456E+03  0.83099112365E+02  0.45615778034E+03  0.49068813387E+03  0.81049205380E+02 0.  0.
          5    1    3    3  501    0  0.58375589340E+02  0.42557946306E+02 -0.17810745725E+02  0.74553342566E+02  0.47000000000E+01 0. -1.
        -13    1    4    4    0    0  0.90752024360E+02 -0.66992304177E+02  0.31906501816E+02  0.11722595106E+03  0.00000000000E+00 0.  1.
         14    1    4    4    0    0  0.48784878462E+01 -0.14723020195E+02  0.51015384052E+02  0.53321068794E+02  0.00000000000E+00 0. -1.
         -5    1    5    5    0  502 -0.15368126984E+02 -0.43941734299E+02  0.21493370663E+03  0.21996736937E+03  0.47000000000E+01 0.  1.
         13    1    6    6    0    0 -0.80931605827E+02  0.79091443228E+02  0.36996303175E+03  0.38688244478E+03  0.00000000000E+00 0. -1.
        -14    1    6    6    0    0 -0.57706368735E+02  0.40076691375E+01  0.86194748585E+02  0.10380568909E+03  0.00000000000E+00 0.  1.
</event>
<event>
12    1  0.8416569E-002  0.2061523E+03  0.7818608E-02  0.1146601E+00
         21   -1    0    0  501  502  0.00000000000E+00  0.00000000000E+00  0.17246741671E+03  0.17246741671E+03  0.00000000000E+00 0. -1.
         21   -1    0    0  502  503 -0.00000000000E+00 -0.00000000000E+00 -0.25506145777E+03  0.25506145777E+03  0.00000000000E+00 0. -1.
         -6    2    1    2    0  503  0.13759600369E+02  0.88786995153E+02  0.19037516556E+02  0.19768597891E+03  0.17505673969E+03 0.  0.
        -24    2    3    3    0    0  0.77297131611E+01  0.11250282935E+03  0.59237582816E+02  0.15038972474E+03  0.79945875523E+02 0.  0.
          6    2    1    2  501    0 -0.13759600369E+02 -0.88786995153E+02 -0.10163155761E+03  0.22984289557E+03  0.18554332656E+03 0.  0.
         24    2    5    5    0    0 -0.46307264443E+02 -0.11020330298E+03 -0.11858849549E+03  0.18709203102E+03  0.81554068445E+02 0.  0.
          5    1    5    5  501    0  0.32547664074E+02  0.21416307829E+02  0.16956937880E+02  0.42750864552E+02  0.47000000000E+01 0. -1.
        -11    1    6    6    0    0 -0.60236866964E+02 -0.80483277032E+02 -0.52755537093E+02  0.11353054531E+03  0.00000000000E+00 0.  1.
         12    1    6    6    0    0  0.13929602522E+02 -0.29720025951E+02 -0.65832958401E+02  0.73561485716E+02  0.00000000000E+00 0. -1.
         -5    1    3    3    0  503  0.60298872075E+01 -0.23715834195E+02 -0.40200066260E+02  0.47296254171E+02  0.47000000000E+01 0.  1.
         11    1    4    4    0    0  0.24132295823E+01  0.71481282282E+02 -0.74564344797E+01  0.71909636411E+02  0.00000000000E+00 0. -1.
        -12    1    4    4    0    0  0.53164835788E+01  0.41021547067E+02  0.66694017295E+02  0.78480088331E+02  0.00000000000E+00 0.  1.
</event>
<event>
12    1  0.8416569E-002  0.2330372E+03  0.7818608E-02  0.1124526E+00
         21   -1    0    0  501  502  0.00000000000E+00  0.00000000000E+00  0.12021133788E+03  0.12021133788E+03  0.00000000000E+00 0.  1.
         21   -1    0    0  502  503 -0.00000000000E+00 -0.00000000000E+00 -0.54685073579E+03  0.54685073579E+03  0.00000000000E+00 0.  1.
         -6    2    1    2    0  503  0.14484144274E+03  0.61156990634E+02 -0.74169957680E+02  0.24452087706E+03  0.17195945934E+03 0.  0.
        -24    2    3    3    0    0  0.30741226132E+02 -0.26944862682E+02 -0.39161701264E+02  0.96100986189E+02  0.77657659581E+02 0.  0.
          6    2    1    2  501    0 -0.14484144274E+03 -0.61156990634E+02 -0.35246944024E+03  0.42254119661E+03  0.17200911457E+03 0.  0.
         24    2    5    5    0    0 -0.98404349057E+02 -0.25016151716E+02 -0.33814121220E+03  0.36179622130E+03  0.79043042676E+02 0.  0.
          5    1    5    5  501    0 -0.46437093683E+02 -0.36140838919E+02 -0.14328228035E+02  0.60744975316E+02  0.47000000000E+01 0. -1.
        -13    1    6    6    0    0 -0.96792738544E+02 -0.39481275188E+02 -0.22952153337E+03  0.25220574856E+03  0.00000000000E+00 0.  1.
         14    1    6    6    0    0 -0.16116105129E+01  0.14465123473E+02 -0.10861967883E+03  0.10959047274E+03  0.00000000000E+00 0. -1.
         -5    1    3    3    0  503  0.11410021661E+03  0.88101853316E+02 -0.35008256416E+02  0.14841989087E+03  0.47000000000E+01 0.  1.
         11    1    4    4    0    0  0.19323615682E+02  0.11695983280E+02  0.16079651347E+02  0.27726401413E+02  0.00000000000E+00 0. -1.
        -12    1    4    4    0    0  0.11417610451E+02 -0.38640845961E+02 -0.55241352610E+02  0.68374584776E+02  0.00000000000E+00 0.  1.
</event>
<event>
12    1  0.8416569E-002  0.1947039E+03  0.7818608E-02  0.1154416E+00
         21   -1    0    0  501  502  0.00000000000E+00  0.00000000000E+00  0.33540421511E+03  0.33540421511E+03  0.00000000000E+00 0. -1.
         21   -1    0    0  502  503 -0.00000000000E+00 -0.00000000000E+00 -0.32111921214E+03  0.32111921214E+03  0.00000000000E+00 0. -1.
         -6    2    1    2    0  503  0.87435204198E+02  0.14261029531E+02 -0.25732210934E+03  0.32268290901E+03  0.17338194807E+03 0.  0.
        -24    2    3    3    0    0  0.98692396710E+02  0.61274726350E+02 -0.15978400034E+03  0.21372060003E+03  0.81552356523E+02 0.  0.
          6    2    1    2  501    0 -0.87435204198E+02 -0.14261029531E+02  0.27160711231E+03  0.33384051824E+03  0.17271588307E+03 0.  0.
         24    2    5    5    0    0 -0.57672073022E+02 -0.25659390286E+02  0.28214110895E+03  0.29994624600E+03  0.79872854038E+02 0.  0.
          5    1    5    5  501    0 -0.29763131176E+02  0.11398360755E+02 -0.10533996642E+02  0.33894272239E+02  0.47000000000E+01 0. -1.
        -11    1    6    6    0    0 -0.35658843288E+02  0.21510382244E+02  0.69455976360E+02  0.80983839752E+02  0.00000000000E+00 0.  1.
         12    1    6    6    0    0 -0.22013229734E+02 -0.47169772530E+02  0.21268513259E+03  0.21896240625E+03  0.00000000000E+00 0. -1.
         -5    1    3    3    0  503 -0.11257192512E+02 -0.47013696819E+02 -0.97538109003E+02  0.10896230899E+03  0.47000000000E+01 0.  1.
         11    1    4    4    0    0 -0.99783003321E+01  0.17259169065E+02 -0.46914879701E+02  0.50975006931E+02  0.00000000000E+00 0. -1.
        -12    1    4    4    0    0  0.10867069704E+03  0.44015557285E+02 -0.11286912064E+03  0.16274559310E+03  0.00000000000E+00 0.  1.
</event>
<event>
12    1  0.8416569E-002  0.1730213E+03  0.7818608E-02  0.1174777E+00
         21   -1    0    0  501  502  0.00000000000E+00  0.00000000000E+00  0.96187223663E+02  0.96187223663E+02  0.00000000000E+00 0. -1.
         21   -1    0    0  502  503 -0.00000000000E+00 -0.00000000000E+00 -0.39075062323E+03  0.39075062323E+03  0.00000000000E+00 0. -1.
         -6    2    1    2    0  503  0.76837600731E+01 -0.16866285155E+02 -0.37292282703E+02  0.17699460510E+03  0.17202576593E+03 0.  0.
        -24    2    3    3    0    0  0.55833403108E+02 -0.48086019863E+02 -0.17130284652E+01  0.10931127413E+03  0.80724135029E+02 0.  0.
          6    2    1    2  501    0 -0.76837600731E+01  0.16866285155E+02 -0.25727111687E+03  0.30994324179E+03  0.17185131310E+03 0.  0.
         24    2    5    5    0    0 -0.73704930569E+01  0.67106668164E+02 -0.10045587857E+03  0.14520920407E+03  0.80229049154E+02 0.  0.
          5    1    5    5  501    0 -0.31326701619E+00 -0.50240383009E+02 -0.15681523830E+03  0.16473403772E+03  0.47000000000E+01 0. -1.
        -13    1    6    6    0    0  0.24243619168E+02  0.61453076856E+02 -0.89573691670E+02  0.11129995492E+03  0.00000000000E+00 0.  1.
         14    1    6    6    0    0 -0.31614112225E+02  0.56535913075E+01 -0.10882186898E+02  0.33909249153E+02  0.00000000000E+00 0. -1.
         -5    1    3    3    0  503 -0.48149643035E+02  0.31219734708E+02 -0.35579254238E+02  0.67683330974E+02  0.47000000000E+01 0.  1.
         13    1    4    4    0    0  0.16666052646E+02 -0.45224446072E+02 -0.33575690695E+02  0.58739550892E+02  0.00000000000E+00 0. -1.
        -14    1    4    4    0    0  0.39167350462E+02 -0.28615737914E+01  0.31862662230E+02  0.50571723237E+02  0.00000000000E+00 0.  1.
</event>
<event>
12    1  0.8416569E-002  0.2498465E+03  0.7818608E-02  0.1113550E+00
         21   -1    0    0  503  502  0.00000000000E+00  0.00000000000E+00  0.13105513157E+03  0.13105513157E+03  0.00000000000E+00 0.  1.
         21   -1    0    0  501  503 -0.00000000000E+00 -0.00000000000E+00 -0.59372424944E+03  0.59372424944E+03  0.00000000000E+00 0.  1.
          6    2    1    2  501    0  0.71122642557E+02 -0.16657746881E+03 -0.39405042577E+03  0.46658227103E+03  0.17209530553E+03 0.  0.
         24    2    3    3    0    0  0.97447080779E+02 -0.12753407281E+03 -0.37483355787E+03  0.41550643691E+03  0.79903252297E+02 0.  0.
         -6    2    1    2    0  502 -0.71122642557E+02  0.16657746881E+03 -0.68618692100E+02  0.25819710998E+03  0.17073587584E+03 0.  0.
        -24    2    5    5    0    0 -0.51400417175E+02  0.96358216947E+02  0.27380791697E+02  0.13754181422E+03  0.79000848386E+02 0.  0.
          5    1    3    3  501    0 -0.26324438221E+02 -0.39043396003E+02 -0.19216867906E+02  0.51075834122E+02  0.47000000000E+01 0. -1.
        -13    1    4    4    0    0  0.19395959528E+02 -0.21962227458E+02 -0.15948687764E+02  0.33360205670E+02  0.00000000000E+00 0.  1.
         14    1    4    4    0    0  0.78051121250E+02 -0.10557184535E+03 -0.35888487010E+03  0.38214623124E+03  0.00000000000E+00 0. -1.
         -5    1    5    5    0  502 -0.19722225382E+02  0.70219251867E+02 -0.95999483797E+02  0.12065529576E+03  0.47000000000E+01 0.  1.
         13    1    6    6    0    0 -0.94051566622E+00 -0.11076449345E+02 -0.79890862959E+01  0.13689331600E+02  0.00000000000E+00 0. -1.
        -14    1    6    6    0    0 -0.50459901509E+02  0.10743466629E+03  0.35369877993E+02  0.12385248262E+03  0.00000000000E+00 0.  1.
</event>
<event>
12    1  0.8416569E-002  0.2576464E+03  0.7818608E-02  0.1108978E+00
         21   -1    0    0  503  502  0.00000000000E+00  0.00000000000E+00  0.17197555264E+03  0.17197555264E+03  0.00000000000E+00 0.  1.
         21   -1    0    0  501  503 -0.00000000000E+00 -0.00000000000E+00 -0.10470195017E+04  0.10470195017E+04  0.00000000000E+00 0.  1.
          6    2    1    2  501    0  0.99563570586E+02 -0.16380909526E+03 -0.92244158335E+03  0.95702518981E+03  0.16808454707E+03 0.  0.
         24    2    3    3    0    0  0.68065405753E+02 -0.40580849807E+02 -0.59848689991E+03  0.60896476146E+03  0.79823596118E+02 0.  0.
         -6    2    1    2    0  502 -0.99563570586E+02  0.16380909526E+03  0.47397634321E+02  0.26196986450E+03  0.17214920821E+03 0.  0.
        -24    2    5    5    0    0 -0.70509146462E+02  0.22111597583E+02 -0.24628259387E+01  0.10889963256E+03  0.79953748985E+02 0.  0.
          5    1    3    3  501    0  0.31498164833E+02 -0.12322824546E+03 -0.32395468343E+03  0.34806042835E+03  0.47000000000E+01 0. -1.
        -13    1    4    4    0    0  0.11277687340E+02  0.93078112609E+01 -0.32198459984E+03  0.32231646578E+03  0.00000000000E+00 0.  1.
         14    1    4    4    0    0  0.56787718413E+02 -0.49888661068E+02 -0.27650230008E+03  0.28664829567E+03  0.00000000000E+00 0. -1.
         -5    1    5    5    0  502 -0.29054424124E+02  0.14169749768E+03  0.49860460260E+02  0.15307023194E+03  0.47000000000E+01 0.  1.
         11    1    6    6    0    0  0.14078278406E+02  0.19575045767E+02  0.17014564289E+01  0.24171787142E+02  0.00000000000E+00 0. -1.
        -12    1    6    6    0    0 -0.84587424868E+02  0.25365518160E+01 -0.41642823676E+01  0.84727845414E+02  0.00000000000E+00 0.  1.
</event>
<event>
12    1  0.8416569E-002  0.2114105E+03  0.7818608E-02  0.1140472E+00
         21   -1    0    0  503  502  0.00000000000E+00  0.00000000000E+00  0.10902636267E+04  0.10902636267E+04  0.00000000000E+00 0. -1.
         21   -1    0    0  501  503 -0.00000000000E+00 -0.00000000000E+00 -0.58443172340E+02  0.58443172340E+02  0.00000000000E+00 0. -1.
          6    2    1    2  501    0 -0.80092904986E+02  0.92960255152E+02  0.20184278847E+03  0.29222718995E+03  0.17204574050E+03 0.  0.
         24    2    3    3    0    0 -0.80827842527E+02  0.11841206071E+02  0.17080615041E+03  0.20524326524E+03  0.79225643686E+02 0.  0.
         -6    2    1    2    0  502  0.80092904986E+02 -0.92960255152E+02  0.82997766589E+03  0.85647960909E+03  0.17215665086E+03 0.  0.
        -24    2    5    5    0    0 -0.25465838399E+02 -0.40056090403E+02  0.28846755265E+03  0.30222624491E+03  0.76643165906E+02 0.  0.
          5    1    3    3  501    0  0.73493754116E+00  0.81119049081E+02  0.31036638053E+02  0.86983924714E+02  0.47000000000E+01 0. -1.
        -13    1    4    4    0    0 -0.66998777054E+02  0.43056269303E+02  0.11795971854E+03  0.14232769811E+03  0.00000000000E+00 0.  1.
         14    1    4    4    0    0 -0.13829065474E+02 -0.31215063232E+02  0.52846431874E+02  0.62915567122E+02  0.00000000000E+00 0. -1.
         -5    1    5    5    0  502  0.10555874339E+03 -0.52904164750E+02  0.54151011324E+03  0.55425336417E+03  0.47000000000E+01 0.  1.
         13    1    6    6    0    0 -0.20766444051E+02 -0.50818142406E+02  0.28462404013E+03  0.28986992430E+03  0.00000000000E+00 0. -1.
        -14    1    6    6    0    0 -0.46993943484E+01  0.10762052004E+02  0.38435125208E+01  0.12356320612E+02  0.00000000000E+00 0.  1.
</event>
<event>
12    1  0.8416569E-002  0.1920249E+03  0.7818608E-02  0.1157101E+00
         21   -1    0    0  503  502  0.00000000000E+00  0.00000000000E+00  0.16702432732E+03  0.16702432732E+03  0.00000000000E+00 0. -1.
         21   -1    0    0  501  503 -0.00000000000E+00 -0.00000000000E+00 -0.24164657807E+03  0.24164657807E+03  0.00000000000E+00 0. -1.
          6    2    1    2  501    0  0.22212093094E+02  0.87028174277E+02  0.26186614217E+02  0.19179310020E+03  0.16742632506E+03 0.  0.
         24    2    3    3    0    0  0.10872907917E+02  0.96015813245E+02 -0.33632326452E+02  0.13006992435E+03  0.80310617715E+02 0.  0.
         -6    2    1    2    0  502 -0.22212093094E+02 -0.87028174277E+02 -0.10080886497E+03  0.21687780519E+03  0.16972411417E+03 0.  0.
        -24    2    5    5    0    0 -0.33848451554E+02 -0.80552333428E+01  0.17572407655E+00  0.88067450552E+02  0.80902660717E+02 0.  0.
          5    1    3    3  501    0  0.11339185177E+02 -0.89876389676E+01  0.59818940669E+02  0.61723175854E+02  0.47000000000E+01 0. -1.
        -13    1    4    4    0    0 -0.25057269329E+02  0.21471938340E+02 -0.33913159181E+02  0.47318212645E+02  0.00000000000E+00 0.  1.
         14    1    4    4    0    0  0.35930177246E+02  0.74543874904E+02  0.28083272848E+00  0.82751711703E+02  0.00000000000E+00 0. -1.
         -5    1    5    5    0  502  0.11636358459E+02 -0.78972940934E+02 -0.10098458905E+03  0.12881035464E+03  0.47000000000E+01 0.  1.
         11    1    6    6    0    0  0.15740136327E+01 -0.34887680889E+02  0.19057248202E+02  0.39784500824E+02  0.00000000000E+00 0. -1.
        -12    1    6    6    0    0 -0.35422465186E+02  0.26832447547E+02 -0.18881524125E+02  0.48282949729E+02  0.00000000000E+00 0.  1.
</event>
<event>
12    1  0.8416569E-002  0.2017940E+03  0.7818608E-02  0.1152256E+00
         21   -1    0    0  501  502  0.00000000000E+00  0.00000000000E+00  0.31382453185E+03  0.31382453185E+03  0.00000000000E+00 0. -1.
         21   -1    0    0  502  503 -0.00000000000E+00 -0.00000000000E+00 -0.12691056881E+03  0.12691056881E+03  0.00000000000E+00 0. -1.
         -6    2    1    2    0  503 -0.12628976461E+01  0.56242841658E+02  0.40044070553E+02  0.20572882404E+03  0.19379362555E+03 0.  0.
        -24    2    3    3    0    0 -0.33150958901E+02  0.77493471290E+02 -0.35803479254E+02  0.12062078375E+03  0.78506433981E+02 0.  0.
          6    2    1    2  501    0  0.12628976461E+01 -0.56242841658E+02  0.14686989249E+03  0.23500627662E+03  0.17462053884E+03 0.  0.
         24    2    5    5    0    0 -0.60999056721E+02 -0.18078330820E+02  0.52858494790E+02  0.11587058194E+03  0.81143455205E+02 0.  0.
          5    1    5    5  501    0  0.62261954367E+02 -0.38164510838E+02  0.94011397696E+02  0.11913569468E+03  0.47000000000E+01 0. -1.
        -11    1    6    6    0    0 -0.56501614983E+02 -0.45180292406E+02  0.24482823659E+02  0.76374733858E+02  0.00000000000E+00 0.  1.
         12    1    6    6    0    0 -0.44974417380E+01  0.27101961585E+02  0.28375671131E+02  0.39495848087E+02  0.00000000000E+00 0. -1.
         -5    1    3    3    0  503  0.31888061255E+02 -0.21250629632E+02  0.75847549807E+02  0.85108040290E+02  0.47000000000E+01 0.  1.
         11    1    4    4    0    0 -0.44841744963E+01  0.82786394096E+02 -0.13688470296E+02  0.84030167722E+02  0.00000000000E+00 0. -1.
        -12    1    4    4    0    0 -0.28666784404E+02 -0.52929228055E+01 -0.22115008958E+02  0.36590616025E+02  0.00000000000E+00 0.  1.
</event>
<event>
12    1  0.8416569E-002  0.2666053E+03  0.7818608E-02  0.1103506E+00
         21   -1    0    0  503  502  0.00000000000E+00  0.00000000000E+00  0.88555154721E+02  0.88555154721E+02  0.00000000000E+00 0.  1.
         21   -1    0    0  501  503 -0.00000000000E+00 -0.00000000000E+00 -0.12229227039E+04  0.12229227039E+04  0.00000000000E+00 0.  1.
          6    2    1    2  501    0  0.19150262569E+03  0.62163400705E+02 -0.95283464867E+03  0.98893701777E+03  0.17194479751E+03 0.  0.
         24    2    3    3    0    0  0.18921768995E+02  0.35714114181E+02 -0.34841525521E+03  0.35978790187E+03  0.80128727537E+02 0.  0.
         -6    2    1    2    0  502 -0.19150262569E+03 -0.62163400705E+02 -0.18153290049E+03  0.32254084082E+03  0.17475942323E+03 0.  0.
        -24    2    5    5    0    0 -0.58904479551E+02  0.11212935336E+02 -0.12505104722E+03  0.16074268015E+03  0.81271010704E+02 0.  0.
          5    1    3    3  501    0  0.17258085669E+03  0.26449286524E+02 -0.60441939346E+03  0.62914911590E+03  0.47000000000E+01 0. -1.
        -13    1    4    4    0    0  0.24601343567E+01  0.14085381364E+02 -0.32052461140E+03  0.32084338351E+03  0.00000000000E+00 0.  1.
         14    1    4    4    0    0  0.16461634638E+02  0.21628732817E+02 -0.27890643808E+02  0.38944518359E+02  0.00000000000E+00 0. -1.
         -5    1    5    5    0  502 -0.13259814613E+03 -0.73376336041E+02 -0.56481853272E+02  0.16179816068E+03  0.47000000000E+01 0.  1.
         13    1    6    6    0    0  0.16328420757E+02 -0.60895400377E+01 -0.50507899187E+02  0.53429839065E+02  0.00000000000E+00 0. -1.
        -14    1    6    6    0    0 -0.75232900308E+02  0.17302475373E+02 -0.74543148028E+02  0.10731284108E+03  0.00000000000E+00 0.  1.
</event>
<event>
12    1  0.8416569E-002  0.2041074E+03  0.7818608E-02  0.1146641E+00
         21   -1    0    0  501  502  0.00000000000E+00  0.00000000000E+00  0.18461603731E+03  0.18461603731E+03  0.00000000000E+00 0. -1.
         21   -1    0    0  502  503 -0.00000000000E+00 -0.00000000000E+00 -0.25647261424E+03  0.25647261424E+03  0.00000000000E+00 0. -1.
         -6    2    1    2    0  503 -0.72441409609E+02 -0.79880018473E+02  0.42744849617E+02  0.20700893963E+03  0.17145554450E+03 0.  0.
        -24    2    3    3    0    0 -0.93463674058E+02 -0.31961243223E+02 -0.16257531377E+02  0.12800567649E+03  0.79775725942E+02 0.  0.
          6    2    1    2  501    0  0.72441409609E+02  0.79880018473E+02 -0.11460142655E+03  0.23407971193E+03  0.17329526651E+03 0.  0.
         24    2    5    5    0    0  0.40776026995E+02  0.11754162043E+03 -0.11748828029E+03  0.18456691922E+03  0.69157318882E+02 0.  0.
          5    1    5    5  501    0  0.31665382614E+02 -0.37661601953E+02  0.28868537376E+01  0.49512792713E+02  0.47000000000E+01 0. -1.
        -11    1    6    6    0    0  0.41511484289E+02  0.11408489543E+03 -0.76647889403E+02  0.14357390307E+03  0.00000000000E+00 0.  1.
         12    1    6    6    0    0 -0.73545729376E+00  0.34567249927E+01 -0.40840390883E+02  0.40993016144E+02  0.00000000000E+00 0. -1.
         -5    1    3    3    0  503  0.21022264449E+02 -0.47918775250E+02  0.59002380994E+02  0.79003263141E+02  0.47000000000E+01 0.  1.
         13    1    4    4    0    0 -0.77682985854E+02  0.92888979267E+01  0.61560246738E+01  0.78478191593E+02  0.00000000000E+00 0. -1.
        -14    1    4    4    0    0 -0.15780688204E+02 -0.41250141149E+02 -0.22413556051E+02  0.49527484893E+02  0.00000000000E+00 0.  1.
</event>
<event>
12    1  0.8416569E-002  0.1765311E+03  0.7818608E-02  0.1171404E+00
         21   -1    0    0  501  502  0.00000000000E+00  0.00000000000E+00  0.52245133870E+02  0.52245133870E+02  0.00000000000E+00 0.  1.
         21   -1    0    0  502  503 -0.00000000000E+00 -0.00000000000E+00 -0.62302777388E+03  0.62302777388E+03  0.00000000000E+00 0. -1.
         -6    2    1    2    0  503 -0.15804466774E+02  0.41932056614E+02 -0.21157900450E+03  0.27503488039E+03  0.16991301228E+03 0.  0.
        -24    2    3    3    0    0 -0.14884459678E+02  0.13038653782E+01 -0.21868796805E+03  0.23351231184E+03  0.80500467116E+02 0.  0.
          6    2    1    2  501    0  0.15804466774E+02 -0.41932056614E+02 -0.35920363552E+03  0.40023802737E+03  0.17074878694E+03 0.  0.
         24    2    5    5    0    0 -0.34145729631E+02 -0.68963193441E+02 -0.29099807441E+03  0.31135724741E+03  0.79634184282E+02 0.  0.
          5    1    5    5  501    0  0.49950196405E+02  0.27031136827E+02 -0.68205561108E+02  0.88880779953E+02  0.47000000000E+01 0. -1.
        -11    1    6    6    0    0  0.22816973842E+02 -0.10859624020E+02 -0.38325600734E+02  0.45906398255E+02  0.00000000000E+00 0.  1.
         12    1    6    6    0    0 -0.56962703473E+02 -0.58103569422E+02 -0.25267247367E+03  0.26545084916E+03  0.00000000000E+00 0. -1.
         -5    1    3    3    0  503 -0.92000709578E+00  0.40628191236E+02  0.71089635505E+01  0.41522568549E+02  0.47000000000E+01 0.  1.
         13    1    4    4    0    0  0.19791026925E+02  0.94621813100E+01 -0.14628334478E+02  0.26366755422E+02  0.00000000000E+00 0. -1.
        -14    1    4    4    0    0 -0.34675486603E+02 -0.81583159317E+01 -0.20405963357E+03  0.20714555642E+03  0.00000000000E+00 0.  1.
</event>
<event>
12    1  0.8416569E-002  0.2185447E+03  0.7818608E-02  0.1135186E+00
         21   -1    0    0  501  502  0.00000000000E+00  0.00000000000E+00  0.17641081190E+03  0.17641081190E+03  0.00000000000E+00 0.  1.
         21   -1    0    0  502  503 -0.00000000000E+00 -0.00000000000E+00 -0.29642521024E+03  0.29642521024E+03  0.00000000000E+00 0.  1.
         -6    2    1    2    0  503 -0.30406799637E+02  0.12980735334E+03 -0.13132747405E+03  0.25399870486E+03  0.17173792297E+03 0.  0.
        -24    2    3    3    0    0  0.21882191483E+01  0.80282431170E+02 -0.37660388205E+01  0.11325367680E+03  0.79763119318E+02 0.  0.
          6    2    1    2  501    0  0.30406799637E+02 -0.12980735334E+03  0.11313075718E+02  0.21883731727E+03  0.17316830918E+03 0.  0.
         24    2    5    5    0    0  0.56397604474E+02 -0.61400311818E+02  0.60948016888E+02  0.13028923626E+03  0.79435107113E+02 0.  0.
          5    1    5    5  501    0 -0.25990804836E+02 -0.68407041518E+02 -0.49634941170E+02  0.88548081008E+02  0.47000000000E+01 0. -1.
        -11    1    6    6    0    0  0.45716400303E+02 -0.52731963654E+02  0.20648225755E+01  0.69820575332E+02  0.00000000000E+00 0.  1.
         12    1    6    6    0    0  0.10681204171E+02 -0.86683481637E+01  0.58883194312E+02  0.60468660932E+02  0.00000000000E+00 0. -1.
         -5    1    3    3    0  503 -0.32595018786E+02  0.49524922166E+02 -0.12756143523E+03  0.14074502806E+03  0.47000000000E+01 0.  1.
         11    1    4    4    0    0  0.19183377991E+02  0.33869104089E+01  0.22942081831E+02  0.30096715303E+02  0.00000000000E+00 0. -1.
        -12    1    4    4    0    0 -0.16995158843E+02  0.76895520761E+02 -0.26708120652E+02  0.83156961500E+02  0.00000000000E+00 0.  1.
</event>
<event>
12    1  0.8416569E-002  0.2020079E+03  0.7818608E-02  0.1148070E+00
         21   -1    0    0  503  502  0.00000000000E+00  0.00000000000E+00  0.35890417408E+03  0.35890417408E+03  0.00000000000E+00 0.  1.
         21   -1    0    0  501  503 -0.00000000000E+00 -0.00000000000E+00 -0.12180500505E+03  0.12180500505E+03  0.00000000000E+00 0.  1.
          6    2    1    2  501    0 -0.28855758424E+02  0.10026718367E+03  0.56381517503E+02  0.20966292946E+03  0.17289738447E+03 0.  0.
         24    2    3    3    0    0 -0.15193576374E+02  0.51420367152E+02 -0.36276683421E+02  0.10392599693E+03  0.81300160861E+02 0.  0.
         -6    2    1    2    0  502  0.28855758424E+02 -0.10026718367E+03  0.18071765153E+03  0.27104624967E+03  0.17297698394E+03 0.  0.
        -24    2    5    5    0    0 -0.32692778034E+02 -0.20384066164E+02  0.11133980436E+03  0.14855171722E+03  0.90480565677E+02 0.  0.
          5    1    3    3  501    0 -0.13662182049E+02  0.48846816521E+02  0.92658200924E+02  0.10573693253E+03  0.47000000000E+01 0. -1.
        -11    1    4    4    0    0  0.19875873918E+02  0.69718259800E+01 -0.42034443648E+02  0.47016498958E+02  0.00000000000E+00 0.  1.
         12    1    4    4    0    0 -0.35069450293E+02  0.44448541172E+02  0.57577602270E+01  0.56909497968E+02  0.00000000000E+00 0. -1.
         -5    1    5    5    0  502  0.61548536458E+02 -0.79883117509E+02  0.69377847170E+02  0.12249453245E+03  0.47000000000E+01 0.  1.
         13    1    6    6    0    0 -0.31875839786E+02  0.30113334473E+02  0.31169679578E+02  0.53799916358E+02  0.00000000000E+00 0. -1.
        -14    1    6    6    0    0 -0.81693824772E+00 -0.50497400637E+02  0.80170124777E+02  0.94751800858E+02  0.00000000000E+00 0.  1.
</event>
<event>
12    1  0.8416569E-002  0.1893574E+03  0.7818608E-02  0.1159641E+00
         21   -1    0    0  501  502  0.00000000000E+00  0.00000000000E+00  0.26770028540E+03  0.26770028540E+03  0.00000000000E+00 0.  1.
         21   -1    0    0  502  503 -0.00000000000E+00 -0.00000000000E+00 -0.13238024125E+03  0.13238024125E+03  0.00000000000E+00 0.  1.
         -6    2    1    2    0  503  0.73403795516E+02  0.27257907705E+02  0.76544914743E+02  0.20181116400E+03  0.16952141816E+03 0.  0.
        -24    2    3    3    0    0  0.83642732354E+02  0.45643713368E+02  0.51077653636E+00  0.12277855143E+03  0.77426458998E+02 0.  0.
          6    2    1    2  501    0 -0.73403795516E+02 -0.27257907705E+02  0.58775129401E+02  0.19826936265E+03  0.17240972594E+03 0.  0.
         24    2    5    5    0    0 -0.72507610200E+01  0.13054511687E+02 -0.24491605824E+02  0.84441622946E+02  0.79420117849E+02 0.  0.
          5    1    5    5  501    0 -0.66153034496E+02 -0.40312419392E+02  0.83266735226E+02  0.11382773970E+03  0.47000000000E+01 0. -1.
        -13    1    6    6    0    0 -0.24207134020E+02  0.29165011020E+02  0.13155453582E+02  0.40120433251E+02  0.00000000000E+00 0.  1.
         14    1    6    6    0    0  0.16956373000E+02 -0.16110499333E+02 -0.37647059406E+02  0.44321189695E+02  0.00000000000E+00 0. -1.
         -5    1    3    3    0  503 -0.10238936838E+02 -0.18385805663E+02  0.76034138206E+02  0.79032612574E+02  0.47000000000E+01 0.  1.
         11    1    4    4    0    0 -0.10104029809E+02 -0.47568953238E+01  0.11188190204E+02  0.15808069823E+02  0.00000000000E+00 0. -1.
        -12    1    4    4    0    0  0.93746762163E+02  0.50400608692E+02 -0.10677413667E+02  0.10697048161E+03  0.00000000000E+00 0.  1.
</event>
<event>
12    1  0.8416569E-002  0.1840107E+03  0.7818608E-02  0.1164223E+00
         21   -1    0    0  501  502  0.00000000000E+00  0.00000000000E+00  0.53882700423E+03  0.53882700423E+03  0.00000000000E+00 0.  1.
         21   -1    0    0  502  503 -0.00000000000E+00 -0.00000000000E+00 -0.64196837403E+02  0.64196837403E+02  0.00000000000E+00 0.  1.
         -6    2    1    2    0  503 -0.44228805542E+02  0.48364447454E+02  0.18740446263E+03  0.26191018230E+03  0.17082506831E+03 0.  0.
        -24    2    3    3    0    0 -0.12636978125E+02  0.92858013974E+02  0.15512203059E+03  0.19833372094E+03  0.80567465583E+02 0.  0.
          6    2    1    2  501    0  0.44228805542E+02 -0.48364447454E+02  0.28722570420E+03  0.34111365933E+03  0.17194364313E+03 0.  0.
         24    2    5    5    0    0  0.72149122217E+02 -0.82162416583E+02  0.18267744918E+03  0.22764879945E+03  0.80602524260E+02 0.  0.
          5    1    5    5  501    0 -0.27920316675E+02  0.33797969129E+02  0.10454825502E+03  0.11346485988E+03  0.47000000000E+01 0. -1.
        -11    1    6    6    0    0  0.14710522132E+02 -0.10586402008E+02  0.10749425791E+03  0.10901140698E+03  0.00000000000E+00 0.  1.
         12    1    6    6    0    0  0.57438600085E+02 -0.71576014576E+02  0.75183191275E+02  0.11863739247E+03  0.00000000000E+00 0. -1.
         -5    1    3    3    0  503 -0.31591827417E+02 -0.44493566520E+02  0.32282432031E+02  0.63576461360E+02  0.47000000000E+01 0.  1.
         11    1    4    4    0    0  0.55441991181E+01  0.14414805349E+02  0.98965197819E+02  0.10016304277E+03  0.00000000000E+00 0. -1.
        -12    1    4    4    0    0 -0.18181177243E+02  0.78443208625E+02  0.56156832776E+02  0.98170678172E+02  0.00000000000E+00 0.  1.
</event>
<event>
12    1  0.8416569E-002  0.5765109E+03  0.7818608E-02  0.9955380E-01
         21   -1    0    0  503  502  0.00000000000E+00  0.00000000000E+00  0.67636133258E+03  0.67636133258E+03  0.00000000000E+00 0. -1.
         21   -1    0    0  501  503 -0.00000000000E+00 -0.00000000000E+00 -0.49699058345E+03  0.49699058345E+03  0.00000000000E+00 0.  1.
          6    2    1    2  501    0 -0.52652877340E+03  0.15984829268E+03  0.15195651831E+03  0.59620096705E+03  0.17199065021E+03 0.  0.
         24    2    3    3    0    0 -0.38735673327E+03  0.78778592547E+02  0.53132720411E+02  0.40717878299E+03  0.81976642343E+02 0.  0.
         -6    2    1    2    0  502  0.52652877340E+03 -0.15984829268E+03  0.27414230828E+02  0.57715094898E+03  0.17195247006E+03 0.  0.
        -24    2    5    5    0    0  0.23180610625E+03 -0.38900654975E+02 -0.30537929548E+02  0.25331406953E+03  0.89376287833E+02 0.  0.
          5    1    3    3  501    0 -0.13917204014E+03  0.81069700131E+02  0.98823797895E+02  0.18902218406E+03  0.47000000000E+01 0. -1.
        -11    1    4    4    0    0 -0.84311400038E+02  0.48067757086E+02 -0.45923946486E+01  0.97159721779E+02  0.00000000000E+00 0.  1.
         12    1    4    4    0    0 -0.30304533323E+03  0.30710835461E+02  0.57725115060E+02  0.31001906121E+03  0.00000000000E+00 0. -1.
         -5    1    5    5    0  502  0.29472266715E+03 -0.12094763770E+03  0.57952160376E+02  0.32383687945E+03  0.47000000000E+01 0.  1.
         11    1    6    6    0    0  0.11746209558E+03  0.17880152040E+02  0.10337508531E+02  0.11926402567E+03  0.00000000000E+00 0. -1.
        -12    1    6    6    0    0  0.11434401067E+03 -0.56780807015E+02 -0.40875438079E+02  0.13405004386E+03  0.00000000000E+00 0.  1.
</event>
<event>
12    1  0.8416569E-002  0.1860656E+03  0.7818608E-02  0.1162066E+00
         21   -1    0    0  503  502  0.00000000000E+00  0.00000000000E+00  0.89595461561E+01  0.89595461561E+01  0.00000000000E+00 0. -1.
         21   -1    0    0  501  503 -0.00000000000E+00 -0.00000000000E+00 -0.40106234313E+04  0.40106234313E+04  0.00000000000E+00 0. -1.
          6    2    1    2  501    0  0.18409543669E+02 -0.68101938948E+02 -0.23861150598E+04  0.23933586173E+04  0.17217318864E+03 0.  0.
         24    2    3    3    0    0  0.10823208897E+02  0.23320682667E+02 -0.75622212799E+03  0.76087930427E+03  0.80027574716E+02 0.  0.
         -6    2    1    2    0  502 -0.18409543669E+02  0.68101938948E+02 -0.16155488253E+04  0.16262243601E+04  0.17213621697E+03 0.  0.
        -24    2    5    5    0    0 -0.12015609708E+02 -0.30042421937E+02 -0.70867101085E+03  0.71401678600E+03  0.80984239733E+02 0.  0.
          5    1    3    3  501    0  0.75863347718E+01 -0.91422621616E+02 -0.16298929318E+04  0.16324793130E+04  0.47000000000E+01 0. -1.
        -11    1    4    4    0    0 -0.28846165644E+02 -0.76431320317E+01 -0.40120880851E+03  0.40231707242E+03  0.00000000000E+00 0.  1.
         12    1    4    4    0    0  0.39669374541E+02  0.30963814699E+02 -0.35501331948E+03  0.35856223185E+03  0.00000000000E+00 0. -1.
         -5    1    5    5    0  502 -0.63939339602E+01  0.98144360886E+02 -0.90687781445E+03  0.91220757413E+03  0.47000000000E+01 0.  1.
         13    1    6    6    0    0 -0.16931798524E+02  0.25579315285E+02 -0.29596945296E+03  0.29755487604E+03  0.00000000000E+00 0. -1.
        -14    1    6    6    0    0  0.49161888153E+01 -0.55621737222E+02 -0.41270155789E+03  0.41646190996E+03  0.00000000000E+00 0.  1.
</event>
<event>
12    1  0.8416569E-002  0.2256786E+03  0.7818608E-02  0.1129814E+00
         21   -1    0    0  501  502  0.00000000000E+00  0.00000000000E+00  0.54510562496E+02  0.54510562496E+02  0.00000000000E+00 0. -1.
         21   -1    0    0  502  503 -0.00000000000E+00 -0.00000000000E+00 -0.18993093647E+04  0.18993093647E+04  0.00000000000E+00 0.  1.
         -6    2    1    2    0  503 -0.75706444515E+02 -0.12473056410E+03 -0.16200453559E+04  0.16356887753E+04  0.17216746300E+03 0.  0.
        -24    2    3    3    0    0 -0.52185397819E+02 -0.16464614885E+02 -0.10856944302E+04  0.10899527978E+04  0.79185266313E+02 0.  0.
          6    2    1    2  501    0  0.75706444515E+02  0.12473056410E+03 -0.22475344636E+03  0.31813115189E+03  0.17147635052E+03 0.  0.
         24    2    5    5    0    0 -0.20306496672E+02  0.77502118111E+02 -0.14308618932E+03  0.18344395184E+03  0.82213707928E+02 0.  0.
          5    1    5    5  501    0  0.96012941187E+02  0.47228445990E+02 -0.81667257039E+02  0.13468720005E+03  0.47000000000E+01 0. -1.
        -11    1    6    6    0    0  0.31917630389E+02  0.24270007717E+02 -0.54184970897E+02  0.67407562449E+02  0.00000000000E+00 0.  1.
         12    1    6    6    0    0 -0.52224127061E+02  0.53232110394E+02 -0.88901218426E+02  0.11603638939E+03  0.00000000000E+00 0. -1.
         -5    1    3    3    0  503 -0.23521046696E+02 -0.10826594922E+03 -0.53435092564E+03  0.54573597750E+03  0.47000000000E+01 0.  1.
         13    1    4    4    0    0  0.20124548277E+02  0.51467303801E+01 -0.22770655461E+03  0.22865205288E+03  0.00000000000E+00 0. -1.
        -14    1    4    4    0    0 -0.72309946096E+02 -0.21611345265E+02 -0.85798787561E+03  0.86130074494E+03  0.00000000000E+00 0.  1.
</event>
<event>
12    1  0.8416569E-002  0.2535711E+03  0.7818608E-02  0.1111471E+00
         21   -1    0    0  503  502  0.00000000000E+00  0.00000000000E+00  0.11829744451E+04  0.11829744451E+04  0.00000000000E+00 0. -1.
         21   -1    0    0  501  503 -0.00000000000E+00 -0.00000000000E+00 -0.10119781942E+03  0.10119781942E+03  0.00000000000E+00 0.  1.
          6    2    1    2  501    0  0.16623212133E+03  0.84149863827E+02  0.99998433591E+02  0.27017683457E+03  0.16817109584E+03 0.  0.
         24    2    3    3    0    0  0.15955160031E+03  0.96886682835E+02  0.39762988679E+02  0.20807003347E+03  0.82875213939E+02 0.  0.
         -6    2    1    2    0  502 -0.16623212133E+03 -0.84149863827E+02  0.98177819205E+03  0.10139954299E+04  0.17199998764E+03 0.  0.
        -24    2    5    5    0    0 -0.35567384673E+02  0.50145266165E+01  0.27791532558E+03  0.29256034155E+03  0.84050228572E+02 0.  0.
          5    1    3    3  501    0  0.66805210150E+01 -0.12736819008E+02  0.60235444912E+02  0.62106801103E+02  0.47000000000E+01 0. -1.
        -11    1    4    4    0    0  0.12149314529E+03  0.75565257013E+02 -0.81058607928E+01  0.14330525950E+03  0.00000000000E+00 0.  1.
         12    1    4    4    0    0  0.38058455019E+02  0.21321425823E+02  0.47868849472E+02  0.64764773969E+02  0.00000000000E+00 0. -1.
         -5    1    5    5    0  502 -0.13066473666E+03 -0.89164390444E+02  0.70386286647E+03  0.72143508837E+03  0.47000000000E+01 0.  1.
         11    1    6    6    0    0 -0.34874735626E+02 -0.27876232857E+02  0.23090775854E+03  0.23518444783E+03  0.00000000000E+00 0. -1.
        -12    1    6    6    0    0 -0.69264904693E+00  0.32890759473E+02  0.47007567036E+02  0.57375893720E+02  0.00000000000E+00 0.  1.
</event>
<event>
12    1  0.8416569E-002  0.1814209E+03  0.7818608E-02  0.1166444E+00
         21   -1    0    0  503  502  0.00000000000E+00  0.00000000000E+00  0.99470861301E+03  0.99470861301E+03  0.00000000000E+00 0. -1.
         21   -1    0    0  501  503 -0.00000000000E+00 -0.00000000000E+00 -0.62705616266E+02  0.62705616266E+02  0.00000000000E+00 0. -1.
          6    2    1    2  501    0  0.10360561441E+02  0.55729520332E+02  0.10262871054E+03  0.20843751562E+03  0.17233811250E+03 0.  0.
         24    2    3    3    0    0  0.53521701769E+01  0.12732260887E+02  0.11833217236E+03  0.16214996853E+03  0.10999705944E+03 0.  0.
         -6    2    1    2    0  502 -0.10360561441E+02 -0.55729520332E+02  0.82937428620E+03  0.84897671365E+03  0.17229809356E+03 0.  0.
        -24    2    5    5    0    0 -0.47886027046E+02 -0.71802313672E+02  0.38638167513E+03  0.40408230065E+03  0.80889201945E+02 0.  0.
          5    1    3    3  501    0  0.50083912642E+01  0.42997259446E+02 -0.15703461819E+02  0.46287547094E+02  0.47000000000E+01 0. -1.
        -13    1    4    4    0    0 -0.12335972715E+02  0.39683361075E+02  0.12276653684E+03  0.12960928955E+03  0.00000000000E+00 0.  1.
         14    1    4    4    0    0  0.17688142892E+02 -0.26951100189E+02 -0.44343644769E+01  0.32540678983E+02  0.00000000000E+00 0. -1.
         -5    1    5    5    0  502  0.37525465605E+02  0.16072793339E+02  0.44299261107E+03  0.44489441300E+03  0.47000000000E+01 0.  1.
         11    1    6    6    0    0  0.15434648495E+02 -0.35228180190E+02  0.20387929174E+03  0.20747534469E+03  0.00000000000E+00 0. -1.
        -12    1    6    6    0    0 -0.63320675541E+02 -0.36574133482E+02  0.18250238339E+03  0.19660695597E+03  0.00000000000E+00 0.  1.
</event>
<event>
12    1  0.8416569E-002  0.2230914E+03  0.7818608E-02  0.1131737E+00
         21   -1    0    0  501  502  0.00000000000E+00  0.00000000000E+00  0.14026452711E+03  0.14026452711E+03  0.00000000000E+00 0. -1.
         21   -1    0    0  502  503 -0.00000000000E+00 -0.00000000000E+00 -0.39060786380E+03  0.39060786380E+03  0.00000000000E+00 0. -1.
         -6    2    1    2    0  503 -0.80006795000E+02 -0.11722139399E+03 -0.20703270076E+03  0.30435555826E+03  0.17212734881E+03 0.  0.
        -24    2    3    3    0    0 -0.11951950602E+03 -0.82612237958E+02 -0.15244178127E+03  0.22845228755E+03  0.88556517732E+02 0.  0.
          6    2    1    2  501    0  0.80006795000E+02  0.11722139399E+03 -0.43310635936E+02  0.22651683264E+03  0.17114941376E+03 0.  0.
         24    2    5    5    0    0  0.56519541264E+01  0.36176439500E+02 -0.69421196038E+02  0.11337630782E+03  0.81818123630E+02 0.  0.
          5    1    5    5  501    0  0.74354840873E+02  0.81044954490E+02  0.26110560102E+02  0.11314052483E+03  0.47000000000E+01 0. -1.
        -11    1    6    6    0    0  0.11634140874E+02 -0.22934347495E+02 -0.38768199018E+02  0.46522153691E+02  0.00000000000E+00 0.  1.
         12    1    6    6    0    0 -0.59821867478E+01  0.59110786995E+02 -0.30652997020E+02  0.66854154125E+02  0.00000000000E+00 0. -1.
         -5    1    3    3    0  503  0.39512711022E+02 -0.34609156031E+02 -0.54590919490E+02  0.75903270709E+02  0.47000000000E+01 0.  1.
         11    1    4    4    0    0 -0.54112365582E+02 -0.57908096402E+02 -0.13475271529E+03  0.15633230637E+03  0.00000000000E+00 0. -1.
        -12    1    4    4    0    0 -0.65407140440E+02 -0.24704141556E+02 -0.17689065978E+02  0.72119981182E+02  0.00000000000E+00 0.  1.
</event>
<event>
12    1  0.8416569E-002  0.4493725E+03  0.7818608E-02  0.1028032E+00
         21   -1    0    0  503  502  0.00000000000E+00  0.00000000000E+00  0.29226178928E+03  0.29226178928E+03  0.00000000000E+00 0.  1.
         21   -1    0    0  501  503 -0.00000000000E+00 -0.00000000000E+00 -0.69512272141E+03  0.69512272141E+03  0.00000000000E+00 0.  1.
          6    2    1    2  501    0 -0.10531148101E+03  0.39972169346E+03 -0.15262482257E+03  0.47303657494E+03  0.17205035459E+03 0.  0.
         24    2    3    3    0    0 -0.13199085278E+03  0.36656219451E+03 -0.16440470013E+03  0.42862715292E+03  0.70020733608E+02 0.  0.
         -6    2    1    2    0  502  0.10531148101E+03 -0.39972169346E+03 -0.25023610957E+03  0.51434793575E+03  0.17626045565E+03 0.  0.
        -24    2    5    5    0    0 -0.99329239857E+01 -0.13949933164E+03 -0.12723134899E+03  0.20426857236E+03  0.77324685474E+02 0.  0.
          5    1    3    3  501    0  0.26679371773E+02  0.33159498949E+02  0.11779877564E+02  0.44409422020E+02  0.47000000000E+01 0. -1.
        -11    1    4    4    0    0 -0.11872686032E+03  0.23248764035E+03 -0.10472739291E+03  0.28127281615E+03  0.00000000000E+00 0.  1.
         12    1    4    4    0    0 -0.13263992456E+02  0.13407455416E+03 -0.59677307221E+02  0.14735433677E+03  0.00000000000E+00 0. -1.
         -5    1    5    5    0  502  0.11524440499E+03 -0.26022236182E+03 -0.12300476058E+03  0.31007936339E+03  0.47000000000E+01 0.  1.
         13    1    6    6    0    0 -0.91823044427E+01 -0.49152621006E+02 -0.22548902449E+01  0.50053765060E+02  0.00000000000E+00 0. -1.
        -14    1    6    6    0    0 -0.75061954293E+00 -0.90346710630E+02 -0.12497645874E+03  0.15421480730E+03  0.00000000000E+00 0.  1.
</event>
<event>
12    1  0.8416569E-002  0.1766626E+03  0.7818608E-02  0.1171567E+00
         21   -1    0    0  503  502  0.00000000000E+00  0.00000000000E+00  0.69700656565E+03  0.69700656565E+03  0.00000000000E+00 0. -1.
         21   -1    0    0  501  503 -0.00000000000E+00 -0.00000000000E+00 -0.61600288401E+02  0.61600288401E+02  0.00000000000E+00 0. -1.
          6    2    1    2  501    0  0.19898896995E+02 -0.25564266402E+02  0.11783993821E+03  0.21235797701E+03  0.17366681187E+03 0.  0.
         24    2    3    3    0    0  0.20504500847E+00 -0.79210930891E+02  0.47865628963E+02  0.12189082070E+03  0.79321120253E+02 0.  0.
         -6    2    1    2    0  502 -0.19898896995E+02  0.25564266402E+02  0.51756633904E+03  0.54624887704E+03  0.17164912625E+03 0.  0.
        -24    2    5    5    0    0  0.47090290114E+02  0.36755479462E+02  0.33915749515E+03  0.35529181376E+03  0.87384241789E+02 0.  0.
          5    1    3    3  501    0  0.19693851987E+02  0.53646664490E+02  0.69974309247E+02  0.90467156314E+02  0.47000000000E+01 0. -1.
        -13    1    4    4    0    0  0.37464564596E+02 -0.41447215663E+02  0.38923370448E+02  0.68091806068E+02  0.00000000000E+00 0.  1.
         14    1    4    4    0    0 -0.37259519588E+02 -0.37763715228E+02  0.89422585156E+01  0.53799014630E+02  0.00000000000E+00 0. -1.
         -5    1    5    5    0  502 -0.66989187109E+02 -0.11191213061E+02  0.17840884389E+03  0.19095706328E+03  0.47000000000E+01 0.  1.
         11    1    6    6    0    0  0.30361033139E+02  0.65091047982E+02  0.20727686255E+03  0.21936803461E+03  0.00000000000E+00 0. -1.
        -12    1    6    6    0    0  0.16729256974E+02 -0.28335568520E+02  0.13188063260E+03  0.13592377915E+03  0.00000000000E+00 0.  1.
</event>
<event>
12    1  0.8416569E-002  0.1783404E+03  0.7818608E-02  0.1169449E+00
         21   -1    0    0  503  502  0.00000000000E+00  0.00000000000E+00  0.65839955903E+02  0.65839955903E+02  0.00000000000E+00 0. -1.
         21   -1    0    0  501  503 -0.00000000000E+00 -0.00000000000E+00 -0.76112025044E+03  0.76112025044E+03  0.00000000000E+00 0.  1.
          6    2    1    2  501    0 -0.33692698692E+01  0.46319060672E+02 -0.59762822511E+03  0.62363475198E+03  0.17205813281E+03 0.  0.
         24    2    3    3    0    0 -0.18251656743E+02 -0.80072275141E+01 -0.52578839377E+03  0.53222423621E+03  0.80074739551E+02 0.  0.
         -6    2    1    2    0  502  0.33692698692E+01 -0.46319060672E+02 -0.97652069429E+02  0.20332545437E+03  0.17218741641E+03 0.  0.
        -24    2    5    5    0    0 -0.45966340975E+02  0.17712293976E+02 -0.70371988176E+02  0.11788360450E+03  0.80732258915E+02 0.  0.
          5    1    3    3  501    0  0.14882386874E+02  0.54326288186E+02 -0.71839831340E+02  0.91410515774E+02  0.47000000000E+01 0. -1.
        -13    1    4    4    0    0 -0.23746794060E+02 -0.32734352817E+02 -0.14327362228E+03  0.14887168610E+03  0.00000000000E+00 0.  1.
         14    1    4    4    0    0  0.54951373172E+01  0.24727125303E+02 -0.38251477149E+03  0.38335255010E+03  0.00000000000E+00 0. -1.
         -5    1    5    5    0  502  0.49335610844E+02 -0.64031354648E+02 -0.27280081253E+02  0.85441849866E+02  0.47000000000E+01 0.  1.
         13    1    6    6    0    0  0.10806503862E+02  0.27734357432E+02 -0.41018102857E+01  0.30046629686E+02  0.00000000000E+00 0. -1.
        -14    1    6    6    0    0 -0.56772844837E+02 -0.10022063456E+02 -0.66270177890E+02  0.87836974814E+02  0.00000000000E+00 0.  1.
</event>
<event>
12    1  0.8416569E-002  0.2134714E+03  0.7818608E-02  0.1138873E+00
         21   -1    0    0  503  502  0.00000000000E+00  0.00000000000E+00  0.10748363291E+03  0.10748363291E+03  0.00000000000E+00 0. -1.
         21   -1    0    0  501  503 -0.00000000000E+00 -0.00000000000E+00 -0.42473452884E+03  0.42473452884E+03  0.00000000000E+00 0. -1.
          6    2    1    2  501    0  0.15123364174E+02  0.12565154542E+03 -0.14552346906E+03  0.25835466788E+03  0.17190993967E+03 0.  0.
         24    2    3    3    0    0  0.78718802536E+02  0.69876662158E+02 -0.98179207634E+02  0.16130423525E+03  0.72804544576E+02 0.  0.
         -6    2    1    2    0  502 -0.15123364174E+02 -0.12565154542E+03 -0.17172742687E+03  0.27386349387E+03  0.17173781507E+03 0.  0.
        -24    2    5    5    0    0  0.81662317117E+01 -0.14327869544E+03 -0.17929506321E+03  0.24332694505E+03  0.80410264197E+02 0.  0.
          5    1    3    3  501    0 -0.63595438362E+02  0.55774883261E+02 -0.47344261429E+02  0.97050432629E+02  0.47000000000E+01 0. -1.
        -11    1    4    4    0    0  0.17288749350E+02 -0.99398020666E+01 -0.40736702117E+02  0.45356139812E+02  0.00000000000E+00 0.  1.
         12    1    4    4    0    0  0.61430053186E+02  0.79816464225E+02 -0.57442505516E+02  0.11594809544E+03  0.00000000000E+00 0. -1.
         -5    1    5    5    0  502 -0.23289595886E+02  0.17627150021E+02  0.75676363344E+01  0.30536548824E+02  0.47000000000E+01 0.  1.
         13    1    6    6    0    0  0.16904608347E+02 -0.12534903749E+03 -0.99083282777E+02  0.16067247402E+03  0.00000000000E+00 0. -1.
        -14    1    6    6    0    0 -0.87383766350E+01 -0.17929657951E+02 -0.80211780432E+02  0.82654471025E+02  0.00000000000E+00 0.  1.
</event>
<event>
12    1  0.8416569E-002  0.1794526E+03  0.7818608E-02  0.1169087E+00
         21   -1    0    0  501  502  0.00000000000E+00  0.00000000000E+00  0.44434814916E+02  0.44434814916E+02  0.00000000000E+00 0.  1.
         21   -1    0    0  502  503 -0.00000000000E+00 -0.00000000000E+00 -0.86335035460E+03  0.86335035460E+03  0.00000000000E+00 0.  1.
         -6    2    1    2    0  503  0.37165914967E+02  0.22088010058E+02 -0.59634382694E+03  0.62188066461E+03  0.17099829140E+03 0.  0.
        -24    2    3    3    0    0  0.88022923253E+02  0.11406377877E+02 -0.44746587319E+03  0.46412367532E+03  0.85480628476E+02 0.  0.
          6    2    1    2  501    0 -0.37165914967E+02 -0.22088010058E+02 -0.22257171274E+03  0.28590450491E+03  0.17416668220E+03 0.  0.
         24    2    5    5    0    0  0.19342728022E+02  0.25268414609E+02 -0.55869733149E+02  0.10356554119E+03  0.81189656578E+02 0.  0.
          5    1    5    5  501    0 -0.56508642989E+02 -0.47356424666E+02 -0.16670197960E+03  0.18233896372E+03  0.47000000000E+01 0. -1.
        -13    1    6    6    0    0 -0.31265718812E+02  0.37219741748E+01 -0.26823832520E+02  0.41363223468E+02  0.00000000000E+00 0.  1.
         14    1    6    6    0    0  0.50608446834E+02  0.21546440434E+02 -0.29045900629E+02  0.62202317720E+02  0.00000000000E+00 0. -1.
         -5    1    3    3    0  503 -0.50857008287E+02  0.10681632181E+02 -0.14887795374E+03  0.15775698929E+03  0.47000000000E+01 0.  1.
         11    1    4    4    0    0  0.51643053679E+02 -0.35291312795E+02 -0.26561649723E+03  0.27288203560E+03  0.00000000000E+00 0. -1.
        -12    1    4    4    0    0  0.36379869575E+02  0.46697690672E+02 -0.18184937596E+03  0.19124163972E+03  0.00000000000E+00 0.  1.
</event>
<event>
12    1  0.8416569E-002  0.1786329E+03  0.7818608E-02  0.1169195E+00
         21   -1    0    0  501  502  0.00000000000E+00  0.00000000000E+00  0.39188337073E+02  0.39188337073E+02  0.00000000000E+00 0. -1.
         21   -1    0    0  502  503 -0.00000000000E+00 -0.00000000000E+00 -0.11738738208E+04  0.11738738208E+04  0.00000000000E+00 0.  1.
         -6    2    1    2    0  503  0.15674330148E+02 -0.43375434196E+02 -0.90330993461E+03  0.92075347625E+03  0.17231080388E+03 0.  0.
        -24    2    3    3    0    0  0.15024298888E+02  0.30788786965E+02 -0.66992709575E+03  0.67582411150E+03  0.82232822532E+02 0.  0.
          6    2    1    2  501    0 -0.15674330148E+02  0.43375434196E+02 -0.23137554909E+03  0.29230868160E+03  0.17257638223E+03 0.  0.
         24    2    5    5    0    0 -0.44519487350E+02  0.15202903961E+02 -0.23338219607E+03  0.25166570944E+03  0.81579818710E+02 0.  0.
          5    1    5    5  501    0  0.28845157203E+02  0.28172530235E+02  0.20066469842E+01  0.40642972160E+02  0.47000000000E+01 0. -1.
        -11    1    6    6    0    0 -0.49813803240E+02 -0.22485098235E+02 -0.15866668494E+03  0.16781570709E+03  0.00000000000E+00 0.  1.
         12    1    6    6    0    0  0.52943158893E+01  0.37688002196E+02 -0.74715511133E+02  0.83850002350E+02  0.00000000000E+00 0. -1.
         -5    1    3    3    0  503  0.65003125997E+00 -0.74164221161E+02 -0.23338283886E+03  0.24492936475E+03  0.47000000000E+01 0.  1.
         11    1    4    4    0    0 -0.51287153631E+01  0.42193135263E+02 -0.16566326809E+03  0.17102889457E+03  0.00000000000E+00 0. -1.
        -12    1    4    4    0    0  0.20153014251E+02 -0.11404348298E+02 -0.50426382766E+03  0.50479521693E+03  0.00000000000E+00 0.  1.
</event>
<event>
12    1  0.8416569E-002  0.2078553E+03  0.7818608E-02  0.1143311E+00
         21   -1    0    0  501  502  0.00000000000E+00  0.00000000000E+00  0.65979892757E+03  0.65979892757E+03  0.00000000000E+00 0.  1.
         21   -1    0    0  502  503 -0.00000000000E+00 -0.00000000000E+00 -0.72135289437E+02  0.72135289437E+02  0.00000000000E+00 0.  1.
         -6    2    1    2    0  503  0.65554621580E+02  0.92325253515E+02  0.18232233646E+03  0.27648732573E+03  0.17430561112E+03 0.  0.
        -24    2    3    3    0    0  0.26043419378E+02  0.10122326893E+03  0.54809699441E+02  0.14261472817E+03  0.80065271323E+02 0.  0.
          6    2    1    2  501    0 -0.65554621580E+02 -0.92325253515E+02  0.40534130168E+03  0.45544689128E+03  0.17409462681E+03 0.  0.
         24    2    5    5    0    0  0.28101581234E+01  0.51414283545E+01  0.10156086704E+03  0.12913700843E+03  0.79545119009E+02 0.  0.
          5    1    5    5  501    0 -0.68364779703E+02 -0.97466681869E+02  0.30378043463E+03  0.32630988285E+03  0.47000000000E+01 0. -1.
        -11    1    6    6    0    0  0.28294817305E+02 -0.16709669618E+02  0.86139318889E+02  0.92194316548E+02  0.00000000000E+00 0.  1.
         12    1    6    6    0    0 -0.25484659182E+02  0.21851097973E+02  0.15421548155E+02  0.36942691885E+02  0.00000000000E+00 0. -1.
         -5    1    3    3    0  503  0.39511202201E+02 -0.88980154162E+01  0.12751263702E+03  0.13387259756E+03  0.47000000000E+01 0.  1.
         13    1    4    4    0    0  0.32906477814E+02  0.43309861669E+01  0.53709106912E+01  0.33622022618E+02  0.00000000000E+00 0. -1.
        -14    1    4    4    0    0 -0.68630584355E+01  0.96892282764E+02  0.49438788750E+02  0.10899270555E+03  0.00000000000E+00 0.  1.
</event>
<event>
12    1  0.8416569E-002  0.2526982E+03  0.7818608E-02  0.1111701E+00
         21   -1    0    0  501  502  0.00000000000E+00  0.00000000000E+00  0.71368797072E+03  0.71368797072E+03  0.00000000000E+00 0. -1.
         21   -1    0    0  502  503 -0.00000000000E+00 -0.00000000000E+00 -0.10816404134E+03  0.10816404134E+03  0.00000000000E+00 0.  1.
         -6    2    1    2    0  503  0.17165493237E+03  0.68322230042E+02  0.13130209307E+03  0.28477470580E+03  0.17240374269E+03 0.  0.
        -24    2    3    3    0    0  0.70094652196E+02  0.33470480283E+01 -0.99000907699E+00  0.10572288348E+03  0.79068862238E+02 0.  0.
          6    2    1    2  501    0 -0.17165493237E+03 -0.68322230042E+02  0.47422183631E+03  0.53707730626E+03  0.17155856126E+03 0.  0.
         24    2    5    5    0    0 -0.30226575655E+02 -0.65887284287E+02  0.23461030959E+03  0.25879025521E+03  0.81704459610E+02 0.  0.
          5    1    5    5  501    0 -0.14142835671E+03 -0.24349457557E+01  0.23961152672E+03  0.27828705105E+03  0.47000000000E+01 0. -1.
        -11    1    6    6    0    0 -0.47428639137E+02 -0.35707435671E+02  0.76098988706E+02  0.96517111719E+02  0.00000000000E+00 0.  1.
         12    1    6    6    0    0  0.17202063482E+02 -0.30179848616E+02  0.15851132088E+03  0.16227314349E+03  0.00000000000E+00 0. -1.
         -5    1    3    3    0  503  0.10156028017E+03  0.64975182014E+02  0.13229210215E+03  0.17905182232E+03  0.47000000000E+01 0.  1.
         13    1    4    4    0    0 -0.11570877438E+02  0.17794059076E+02 -0.75552265737E+01  0.22529873317E+02  0.00000000000E+00 0. -1.
        -14    1    4    4    0    0  0.81665529635E+02 -0.14447011047E+02  0.65652174968E+01  0.83193010160E+02  0.00000000000E+00 0.  1.
</event>
<event>
12    1  0.8416569E-002  0.1909007E+03  0.7818608E-02  0.1157810E+00
         21   -1    0    0  503  502  0.00000000000E+00  0.00000000000E+00  0.87795923889E+02  0.87795923889E+02  0.00000000000E+00 0.  1.
         21   -1    0    0  501  503 -0.00000000000E+00 -0.00000000000E+00 -0.44775541636E+03  0.44775541636E+03  0.00000000000E+00 0. -1.
          6    2    1    2  501    0 -0.83826091430E+02 -0.14451541219E+02 -0.25368094956E+03  0.31706055788E+03  0.17011088308E+03 0.  0.
         24    2    3    3    0    0 -0.12180965958E+03 -0.15944252602E+02 -0.17804637295E+03  0.23228049645E+03  0.84628043534E+02 0.  0.
         -6    2    1    2    0  502  0.83826091430E+02  0.14451541219E+02 -0.10627854291E+03  0.21849078238E+03  0.17090182168E+03 0.  0.
        -24    2    5    5    0    0 -0.49103769091E+01  0.14998293337E+02 -0.10055477428E+03  0.12944410204E+03  0.79971571945E+02 0.  0.
          5    1    3    3  501    0  0.37983568147E+02  0.14927113831E+01 -0.75634576611E+02  0.84780061427E+02  0.47000000000E+01 0. -1.
        -13    1    4    4    0    0 -0.36745699946E+01  0.12320161877E+02  0.39692991046E+01  0.13455266207E+02  0.00000000000E+00 0.  1.
         14    1    4    4    0    0 -0.11813508958E+03 -0.28264414479E+02 -0.18201567206E+03  0.21882523024E+03  0.00000000000E+00 0. -1.
         -5    1    5    5    0  502  0.88736468339E+02 -0.54675211817E+00 -0.57237686351E+01  0.89046680334E+02  0.47000000000E+01 0.  1.
         13    1    6    6    0    0  0.72943854854E+01 -0.29379655060E+02 -0.18830195654E+02  0.35650364085E+02  0.00000000000E+00 0. -1.
        -14    1    6    6    0    0 -0.12204762394E+02  0.44377948397E+02 -0.81724578622E+02  0.93793737957E+02  0.00000000000E+00 0.  1.
</event>
<event>
12    1  0.8416569E-002  0.2152751E+03  0.7818608E-02  0.1137612E+00
         21   -1    0    0  503  502  0.00000000000E+00  0.00000000000E+00  0.22166032345E+02  0.22166032345E+02  0.00000000000E+00 0.  1.
         21   -1    0    0  501  503 -0.00000000000E+00 -0.00000000000E+00 -0.21604139022E+04  0.21604139022E+04  0.00000000000E+00 0.  1.
          6    2    1    2  501    0  0.53711474633E+02 -0.11675290382E+03 -0.12778649382E+04  0.12958712052E+04  0.17270557944E+03 0.  0.
         24    2    3    3    0    0  0.26105071898E+02 -0.14727146954E+03 -0.88586599893E+03  0.90169008604E+03  0.76916075606E+02 0.  0.
         -6    2    1    2    0  502 -0.53711474633E+02  0.11675290382E+03 -0.86038293171E+03  0.88670872938E+03  0.17168989059E+03 0.  0.
        -24    2    5    5    0    0  0.42292458079E+02  0.55346953114E+02 -0.38180087688E+03  0.39472263296E+03  0.71986874831E+02 0.  0.
          5    1    3    3  501    0  0.27606402734E+02  0.30518565717E+02 -0.39199893927E+03  0.39418111917E+03  0.47000000000E+01 0. -1.
        -13    1    4    4    0    0  0.30784385291E+01 -0.11519498125E+03 -0.78426665170E+03  0.79268754340E+03  0.00000000000E+00 0.  1.
         14    1    4    4    0    0  0.23026633369E+02 -0.32076488287E+02 -0.10159934722E+03  0.10900254264E+03  0.00000000000E+00 0. -1.
         -5    1    5    5    0  502 -0.96003932711E+02  0.61405950706E+02 -0.47858205482E+03  0.49198609642E+03  0.47000000000E+01 0.  1.
         11    1    6    6    0    0  0.22642158738E+02 -0.14044405332E+02 -0.13480949300E+03  0.13741729176E+03  0.00000000000E+00 0. -1.
        -12    1    6    6    0    0  0.19650299341E+02  0.69391358446E+02 -0.24699138389E+03  0.25730534119E+03  0.00000000000E+00 0.  1.
</event>
<event>
12    1  0.8416569E-002  0.1917133E+03  0.7818608E-02  0.1157072E+00
         21   -1    0    0  503  502  0.00000000000E+00  0.00000000000E+00  0.57393798008E+03  0.57393798008E+03  0.00000000000E+00 0.  1.
         21   -1    0    0  501  503 -0.00000000000E+00 -0.00000000000E+00 -0.70851924848E+02  0.70851924848E+02  0.00000000000E+00 0.  1.
          6    2    1    2  501    0  0.80758141344E+02  0.29086962086E+02  0.35273220958E+03  0.40115030663E+03  0.17068575826E+03 0.  0.
         24    2    3    3    0    0  0.10580694602E+02  0.20303869339E+02  0.71869768791E+02  0.11148184546E+03  0.82089828799E+02 0.  0.
         -6    2    1    2    0  502 -0.80758141344E+02 -0.29086962086E+02  0.15035384565E+03  0.24363959830E+03  0.17142358707E+03 0.  0.
        -24    2    5    5    0    0 -0.73804259336E+02 -0.58364804426E+02  0.16781949761E+03  0.20852994827E+03  0.80422860280E+02 0.  0.
          5    1    3    3  501    0  0.70177446742E+02  0.87830927474E+01  0.28086244079E+03  0.28966846117E+03  0.47000000000E+01 0. -1.
        -13    1    4    4    0    0  0.25250199561E+02  0.59719995927E+01  0.83821082186E+02  0.87745149016E+02  0.00000000000E+00 0.  1.
         14    1    4    4    0    0 -0.14669504958E+02  0.14331869746E+02 -0.11951313395E+02  0.23736696442E+02  0.00000000000E+00 0. -1.
         -5    1    5    5    0  502 -0.69538820079E+01  0.29277842339E+02 -0.17465651959E+02  0.35109650032E+02  0.47000000000E+01 0.  1.
         11    1    6    6    0    0 -0.70543298350E+02 -0.66690949616E+01  0.11055971989E+03  0.13131749857E+03  0.00000000000E+00 0. -1.
        -12    1    6    6    0    0 -0.32609609865E+01 -0.51695709464E+02  0.57259777725E+02  0.77212449700E+02  0.00000000000E+00 0.  1.
</event>
<event>
12    1  0.8416569E-002  0.2361311E+03  0.7818608E-02  0.1122948E+00
         21   -1    0    0  503  502  0.00000000000E+00  0.00000000000E+00  0.96909855117E+03  0.96909855117E+03  0.00000000000E+00 0. -1.
         21   -1    0    0  501  503 -0.00000000000E+00 -0.00000000000E+00 -0.12090392662E+03  0.12090392662E+03  0.00000000000E+00 0.  1.
          6    2    1    2  501    0  0.41740039837E+02 -0.14941945080E+03  0.28483502436E+02  0.23784280344E+03  0.17801540953E+03 0.  0.
         24    2    3    3    0    0 -0.19560802156E+02 -0.10770797345E+03  0.69408611559E+02  0.15302184418E+03  0.81329557437E+02 0.  0.
         -6    2    1    2    0  502 -0.41740039837E+02  0.14941945080E+03  0.81971112212E+03  0.85215967435E+03  0.17372790125E+03 0.  0.
        -24    2    5    5    0    0 -0.73550152056E+02  0.16612006137E+03  0.71059795810E+03  0.73718765082E+03  0.74099087836E+02 0.  0.
          5    1    3    3  501    0  0.61300841993E+02 -0.41711477354E+02 -0.40925109123E+02  0.84820959255E+02  0.47000000000E+01 0. -1.
        -11    1    4    4    0    0  0.15961952890E+02 -0.63538360192E+02  0.28169655492E+01  0.65573183931E+02  0.00000000000E+00 0.  1.
         12    1    4    4    0    0 -0.35522755046E+02 -0.44169613255E+02  0.66591646010E+02  0.87448660250E+02  0.00000000000E+00 0. -1.
         -5    1    5    5    0  502  0.31810112219E+02 -0.16700610569E+02  0.10911316402E+03  0.11497202353E+03  0.47000000000E+01 0.  1.
         11    1    6    6    0    0 -0.46260177568E+02  0.74286657951E+02  0.20999996127E+03  0.22750493470E+03  0.00000000000E+00 0. -1.
        -12    1    6    6    0    0 -0.27289974488E+02  0.91833403419E+02  0.50059799682E+03  0.50968271612E+03  0.00000000000E+00 0.  1.
</event>
<event>
12    1  0.8416569E-002  0.1868275E+03  0.7818608E-02  0.1161381E+00
         21   -1    0    0  501  502  0.00000000000E+00  0.00000000000E+00  0.13631370078E+03  0.13631370078E+03  0.00000000000E+00 0.  1.
         21   -1    0    0  502  503 -0.00000000000E+00 -0.00000000000E+00 -0.32054971483E+03  0.32054971483E+03  0.00000000000E+00 0.  1.
         -6    2    1    2    0  503 -0.29289987102E+02 -0.67336651770E+02 -0.19467939107E+03  0.26974428336E+03  0.17166765881E+03 0.  0.
        -24    2    3    3    0    0  0.14469800377E+02 -0.24936808842E+02 -0.19121831023E+03  0.20853370616E+03  0.78042583749E+02 0.  0.
          6    2    1    2  501    0  0.29289987102E+02  0.67336651770E+02  0.10443377019E+02  0.18711913225E+03  0.17179166893E+03 0.  0.
         24    2    5    5    0    0  0.47183516610E+02  0.10751278032E+03  0.36136094609E+02  0.13596734401E+03  0.58275373292E+02 0.  0.
          5    1    5    5  501    0 -0.17893529508E+02 -0.40176128546E+02 -0.25692717591E+02  0.51151788242E+02  0.47000000000E+01 0. -1.
        -13    1    6    6    0    0  0.16803984751E+02  0.62650756817E+02 -0.89521206975E+01  0.65480009913E+02  0.00000000000E+00 0.  1.
         14    1    6    6    0    0  0.30379531859E+02  0.44862023499E+02  0.45088215307E+02  0.70487334096E+02  0.00000000000E+00 0. -1.
         -5    1    3    3    0  503 -0.43759787479E+02 -0.42399842928E+02 -0.34610808334E+01  0.61210577199E+02  0.47000000000E+01 0.  1.
         13    1    4    4    0    0 -0.81765488333E+01  0.18986926795E+01 -0.16371654165E+03  0.16393159243E+03  0.00000000000E+00 0. -1.
        -14    1    4    4    0    0  0.22646349210E+02 -0.26835501522E+02 -0.27501768581E+02  0.44602113734E+02  0.00000000000E+00 0.  1.
</event>
<event>
12    1  0.8416569E-002  0.2950357E+03  0.7818608E-02  0.1087840E+00
         21   -1    0    0  501  502  0.00000000000E+00  0.00000000000E+00  0.21973147152E+03  0.21973147152E+03  0.00000000000E+00 0. -1.
         21   -1    0    0  502  503 -0.00000000000E+00 -0.00000000000E+00 -0.42692561062E+03  0.42692561062E+03  0.00000000000E+00 0.  1.
         -6    2    1    2    0  503 -0.11894613406E+03 -0.20781805585E+03 -0.19163408201E+03  0.35121138398E+03  0.17114113386E+03 0.  0.
        -24    2    3    3    0    0 -0.41219524141E+02 -0.68675099300E+02 -0.14706826325E+03  0.18565054788E+03  0.80135718863E+02 0.  0.
          6    2    1    2  501    0  0.11894613406E+03  0.20781805585E+03 -0.15560057091E+02  0.29544569817E+03  0.17236449183E+03 0.  0.
         24    2    5    5    0    0  0.10999025182E+03  0.61483518133E+02 -0.25565026748E+01  0.14818678610E+03  0.77940421937E+02 0.  0.
          5    1    5    5  501    0  0.89558822444E+01  0.14633453772E+03 -0.13003554416E+02  0.14725891207E+03  0.47000000000E+01 0. -1.
        -11    1    6    6    0    0  0.75714160401E+02  0.31151857156E+02 -0.38035749949E+02  0.90276190458E+02  0.00000000000E+00 0.  1.
         12    1    6    6    0    0  0.34276091419E+02  0.30331660977E+02  0.35479247274E+02  0.57910595643E+02  0.00000000000E+00 0. -1.
         -5    1    3    3    0  503 -0.77726609924E+02 -0.13914295655E+03 -0.44565818760E+02  0.16556083610E+03  0.47000000000E+01 0.  1.
         11    1    4    4    0    0 -0.12377398063E+02  0.13976363501E+02 -0.59657709136E+01  0.19599212793E+02  0.00000000000E+00 0. -1.
        -12    1    4    4    0    0 -0.28842126077E+02 -0.82651462801E+02 -0.14110249234E+03  0.16605133508E+03  0.00000000000E+00 0.  1.
</event>
<event>
12    1  0.8416569E-002  0.1771163E+03  0.7818608E-02  0.1171097E+00
         21   -1    0    0  501  502  0.00000000000E+00  0.00000000000E+00  0.80290355426E+02  0.80290355426E+02  0.00000000000E+00 0. -1.
         21   -1    0    0  502  503 -0.00000000000E+00 -0.00000000000E+00 -0.39960551916E+03  0.39960551916E+03  0.00000000000E+00 0. -1.
         -6    2    1    2    0  503 -0.26693764170E+01  0.35699689222E+02 -0.20224726279E+03  0.26758695564E+03  0.17151451875E+03 0.  0.
        -24    2    3    3    0    0  0.53294365129E+02 -0.29073561457E+01 -0.16190731812E+03  0.18839197186E+03  0.80179881064E+02 0.  0.
          6    2    1    2  501    0  0.26693764170E+01 -0.35699689222E+02 -0.11706790094E+03  0.21230891894E+03  0.17346063026E+03 0.  0.
         24    2    5    5    0    0  0.41557216542E+02 -0.74363921650E+02 -0.92222575919E+02  0.15192210619E+03  0.85547225260E+02 0.  0.
          5    1    5    5  501    0 -0.38887840125E+02  0.38664232429E+02 -0.24845325020E+02  0.60386812751E+02  0.47000000000E+01 0. -1.
        -11    1    6    6    0    0  0.40301403007E+01 -0.66972715045E+02 -0.19691002253E+02  0.69923688126E+02  0.00000000000E+00 0.  1.
         12    1    6    6    0    0  0.37527076241E+02 -0.73912066050E+01 -0.72531573666E+02  0.81998418063E+02  0.00000000000E+00 0. -1.
         -5    1    3    3    0  503 -0.55963741546E+02  0.38607045367E+02 -0.40339944675E+02  0.79194983782E+02  0.47000000000E+01 0.  1.
         13    1    4    4    0    0  0.38009241633E+01  0.16422283118E+02  0.11502429347E+01  0.16895604935E+02  0.00000000000E+00 0. -1.
        -14    1    4    4    0    0  0.49493440966E+02 -0.19329639264E+02 -0.16305756105E+03  0.17149636693E+03  0.00000000000E+00 0.  1.
</event>
<event>
12    1  0.8416569E-002  0.1822545E+03  0.7818608E-02  0.1165847E+00
         21   -1    0    0  501  502  0.00000000000E+00  0.00000000000E+00  0.14186754526E+03  0.14186754526E+03  0.00000000000E+00 0.  1.
         21   -1    0    0  502  503 -0.00000000000E+00 -0.00000000000E+00 -0.23486337705E+03  0.23486337705E+03  0.00000000000E+00 0.  1.
         -6    2    1    2    0  503  0.44262807379E+02 -0.39451841300E+02 -0.63083867254E+02  0.19203812673E+03  0.17141593832E+03 0.  0.
        -24    2    3    3    0    0  0.54174113069E+02  0.36597826895E+02 -0.19330446506E+02  0.10361732691E+03  0.78029794395E+02 0.  0.
          6    2    1    2  501    0 -0.44262807379E+02  0.39451841300E+02 -0.29911964529E+02  0.18469279559E+03  0.17233995248E+03 0.  0.
         24    2    5    5    0    0 -0.68218641726E+02  0.52850797844E+02  0.26642958713E+02  0.12165341600E+03  0.81502861692E+02 0.  0.
          5    1    5    5  501    0  0.23955834347E+02 -0.13398956544E+02 -0.56554923242E+02  0.63039379586E+02  0.47000000000E+01 0. -1.
        -11    1    6    6    0    0 -0.24804685735E+02 -0.14740691482E+02  0.29506082179E+02  0.41269471832E+02  0.00000000000E+00 0.  1.
         12    1    6    6    0    0 -0.43413955992E+02  0.67591489325E+02 -0.28631234666E+01  0.80383944168E+02  0.00000000000E+00 0. -1.
         -5    1    3    3    0  503 -0.99113056901E+01 -0.76049668195E+02 -0.43753420748E+02  0.88420799817E+02  0.47000000000E+01 0.  1.
         13    1    4    4    0    0 -0.47576963847E+01 -0.19671765305E+02 -0.54735919622E+01  0.20966025710E+02  0.00000000000E+00 0. -1.
        -14    1    4    4    0    0  0.58931809454E+02  0.56269592201E+02 -0.13856854544E+02  0.82651301198E+02  0.00000000000E+00 0.  1.
</event>
<event>
12    1  0.8416569E-002  0.2340318E+03  0.7818608E-02  0.1124356E+00
         21   -1    0    0  503  502  0.00000000000E+00  0.00000000000E+00  0.28699215796E+03  0.28699215796E+03  0.00000000000E+00 0. -1.
         21   -1    0    0  501  503 -0.00000000000E+00 -0.00000000000E+00 -0.18886506898E+03  0.18886506898E+03  0.00000000000E+00 0.  1.
          6    2    1    2  501    0  0.65053202044E+02  0.14161327430E+03  0.36851889653E+02  0.23393676015E+03  0.17053476896E+03 0.  0.
         24    2    3    3    0    0  0.92784920265E+02  0.64417116199E+02 -0.11193920159E+02  0.13875911119E+03  0.79813412421E+02 0.  0.
         -6    2    1    2    0  502 -0.65053202044E+02 -0.14161327430E+03  0.61275199335E+02  0.24192046679E+03  0.17459846404E+03 0.  0.
        -24    2    5    5    0    0 -0.20371158257E+02  0.23355703455E+01  0.16915587382E+02  0.84733889493E+02  0.80456546996E+02 0.  0.
          5    1    3    3  501    0 -0.27731718221E+02  0.77196158097E+02  0.48045809812E+02  0.95177648956E+02  0.47000000000E+01 0. -1.
        -11    1    4    4    0    0  0.10233925213E+02  0.37203446632E+02 -0.31134618015E+02  0.49580178555E+02  0.00000000000E+00 0.  1.
         12    1    4    4    0    0  0.82550995052E+02  0.27213669567E+02  0.19940697856E+02  0.89178932637E+02  0.00000000000E+00 0. -1.
         -5    1    5    5    0  502 -0.44682043787E+02 -0.14394884464E+03  0.44359611953E+02  0.15718657730E+03  0.47000000000E+01 0.  1.
         13    1    6    6    0    0 -0.16469177262E+02  0.23196621457E+02  0.42718492268E+02  0.51324327841E+02  0.00000000000E+00 0. -1.
        -14    1    6    6    0    0 -0.39019809953E+01 -0.20861051112E+02 -0.25802904886E+02  0.33409561651E+02  0.00000000000E+00 0.  1.
</event>
<event>
12    1  0.8416569E-002  0.2090893E+03  0.7818608E-02  0.1142413E+00
         21   -1    0    0  503  502  0.00000000000E+00  0.00000000000E+00  0.17054483996E+04  0.17054483996E+04  0.00000000000E+00 0. -1.
         21   -1    0    0  501  503 -0.00000000000E+00 -0.00000000000E+00 -0.83043932384E+02  0.83043932384E+02  0.00000000000E+00 0. -1.
          6    2    1    2  501    0  0.96025120782E+02  0.67845337124E+02  0.67557747004E+02  0.21973248960E+03  0.17290027245E+03 0.  0.
         24    2    3    3    0    0  0.44698977615E+01  0.59800655828E+02  0.76481233913E+02  0.12727279904E+03  0.82175956403E+02 0.  0.
         -6    2    1    2    0  502 -0.96025120782E+02 -0.67845337124E+02  0.15548467202E+04  0.15687598423E+04  0.17214908117E+03 0.  0.
        -24    2    5    5    0    0 -0.94606488740E+02 -0.74058255704E+02  0.15542315917E+04  0.15608174713E+04  0.77976439824E+02 0.  0.
          5    1    3    3  501    0  0.91555223020E+02  0.80446812960E+01 -0.89234869092E+01  0.92459690558E+02  0.47000000000E+01 0. -1.
        -13    1    4    4    0    0 -0.23906504292E+02  0.90519006928E+01  0.62422480031E+02  0.67453864728E+02  0.00000000000E+00 0.  1.
         14    1    4    4    0    0  0.28376402053E+02  0.50748755135E+02  0.14058753882E+02  0.59818934310E+02  0.00000000000E+00 0. -1.
         -5    1    5    5    0  502 -0.14186320411E+01  0.62129185800E+01  0.61512843850E+00  0.79423710027E+01  0.47000000000E+01 0.  1.
         13    1    6    6    0    0 -0.18382382659E+02  0.15707894405E+02  0.19484681569E+03  0.19634136478E+03  0.00000000000E+00 0. -1.
        -14    1    6    6    0    0 -0.76224106081E+02 -0.89766150109E+02  0.13593847760E+04  0.13644761066E+04  0.00000000000E+00 0.  1.
</event>
<event>
12    1  0.8416569E-002  0.2148482E+03  0.7818608E-02  0.1138074E+00
         21   -1    0    0  501  502  0.00000000000E+00  0.00000000000E+00  0.42739953736E+03  0.42739953736E+03  0.00000000000E+00 0.  1.
         21   -1    0    0  502  503 -0.00000000000E+00 -0.00000000000E+00 -0.17302948585E+03  0.17302948585E+03  0.00000000000E+00 0.  1.
         -6    2    1    2    0  503  0.31209960511E+02  0.12582203390E+03 -0.57648636858E+02  0.22244796365E+03  0.17133150717E+03 0.  0.
        -24    2    3    3    0    0  0.83141540468E+02  0.67694777740E+02 -0.54097004463E+02  0.14427910158E+03  0.79967959677E+02 0.  0.
          6    2    1    2  501    0 -0.31209960511E+02 -0.12582203390E+03  0.31201868837E+03  0.37798105956E+03  0.16943663607E+03 0.  0.
         24    2    5    5    0    0 -0.15672804779E+02 -0.14877603920E+03  0.30557088113E+03  0.34913745045E+03  0.78380158601E+02 0.  0.
          5    1    5    5  501    0 -0.15537155732E+02  0.22954005308E+02  0.64478072358E+01  0.28843609103E+02  0.47000000000E+01 0. -1.
        -13    1    6    6    0    0 -0.24708333005E+02 -0.13380190551E+03  0.19855660750E+03  0.24070350645E+03  0.00000000000E+00 0.  1.
         14    1    6    6    0    0  0.90355282258E+01 -0.14974133698E+02  0.10701427364E+03  0.10843394400E+03  0.00000000000E+00 0. -1.
         -5    1    3    3    0  503 -0.51931579956E+02  0.58127256156E+02 -0.35516323948E+01  0.78168862072E+02  0.47000000000E+01 0.  1.
         13    1    4    4    0    0 -0.93847789846E+01 -0.73630095137E+01 -0.14397803196E+02  0.18697184884E+02  0.00000000000E+00 0. -1.
        -14    1    4    4    0    0  0.92526319453E+02  0.75057787254E+02 -0.39699201267E+02  0.12558191669E+03  0.00000000000E+00 0.  1.
</event>
<event>
12    1  0.8416569E-002  0.2059443E+03  0.7818608E-02  0.1147033E+00
         21   -1    0    0  501  502  0.00000000000E+00  0.00000000000E+00  0.23304072137E+02  0.23304072137E+02  0.00000000000E+00 0. -1.
         21   -1    0    0  502  503 -0.00000000000E+00 -0.00000000000E+00 -0.19912404407E+04  0.19912404407E+04  0.00000000000E+00 0. -1.
         -6    2    1    2    0  503 -0.48497018315E+02  0.76700629757E+02 -0.13730043330E+04  0.13883637647E+04  0.18487319264E+03 0.  0.
        -24    2    3    3    0    0  0.42884763400E+02  0.68601205572E+01 -0.58718441560E+03  0.59415764580E+03  0.79696963217E+02 0.  0.
          6    2    1    2  501    0  0.48497018315E+02 -0.76700629757E+02 -0.59493203557E+03  0.62618074813E+03  0.17298339511E+03 0.  0.
         24    2    5    5    0    0 -0.23494782821E+02 -0.19662617657E+02 -0.42086654553E+03  0.42931267281E+03  0.79006952454E+02 0.  0.
          5    1    5    5  501    0  0.71991801136E+02 -0.57038012100E+02 -0.17406549004E+03  0.19686807531E+03  0.47000000000E+01 0. -1.
        -11    1    6    6    0    0  0.14524924021E+01  0.60474439426E+01 -0.34858543181E+03  0.34864091066E+03  0.00000000000E+00 0.  1.
         12    1    6    6    0    0 -0.24947275223E+02 -0.25710061600E+02 -0.72281113720E+02  0.80671762154E+02  0.00000000000E+00 0. -1.
         -5    1    3    3    0  503 -0.91381781715E+02  0.69840509200E+02 -0.78581991736E+03  0.79420611888E+03  0.47000000000E+01 0.  1.
         11    1    4    4    0    0 -0.16544513147E+02 -0.18713761101E+02 -0.12545806797E+03  0.12792049323E+03  0.00000000000E+00 0. -1.
        -12    1    4    4    0    0  0.59429276547E+02  0.25573881658E+02 -0.46172634764E+03  0.46623715257E+03  0.00000000000E+00 0.  1.
</event>
<event>
12    1  0.8416569E-002  0.2770123E+03  0.7818608E-02  0.1097515E+00
         21   -1    0    0  501  502  0.00000000000E+00  0.00000000000E+00  0.91194804025E+03  0.91194804025E+03  0.00000000000E+00 0. -1.
         21   -1    0    0  502  503 -0.00000000000E+00 -0.00000000000E+00 -0.15997335204E+03  0.15997335204E+03  0.00000000000E+00 0. -1.
         -6    2    1    2    0  503 -0.21505252213E+03 -0.14194432347E+02  0.55511930038E+01  0.27575317676E+03  0.17193001357E+03 0.  0.
        -24    2    3    3    0    0 -0.32245669996E+02 -0.34173489968E+02 -0.17987133729E+02  0.90297924057E+02  0.74983781307E+02 0.  0.
          6    2    1    2  501    0  0.21505252213E+03  0.14194432347E+02  0.74642349521E+03  0.79616821552E+03  0.17403081342E+03 0.  0.
         24    2    5    5    0    0  0.16050571454E+03 -0.74577186571E+01  0.69528589833E+03  0.71818543745E+03  0.80932936284E+02 0.  0.
          5    1    5    5  501    0  0.54546807592E+02  0.21652151004E+02  0.51137596880E+02  0.77982778075E+02  0.47000000000E+01 0. -1.
        -13    1    6    6    0    0 -0.58146299317E+01  0.11109559772E+02  0.45943056896E+02  0.47623489126E+02  0.00000000000E+00 0.  1.
         14    1    6    6    0    0  0.16632034447E+03 -0.18567278429E+02  0.64934284143E+03  0.67056194832E+03  0.00000000000E+00 0. -1.
         -5    1    3    3    0  503 -0.18280685214E+03  0.19979057621E+02  0.23538326732E+02  0.18545525271E+03  0.47000000000E+01 0.  1.
         13    1    4    4    0    0 -0.56442770878E+02 -0.24775042478E+02 -0.67412217395E+01  0.62008331575E+02  0.00000000000E+00 0. -1.
        -14    1    4    4    0    0  0.24197100882E+02 -0.93984474902E+01 -0.11245911989E+02  0.28289592482E+02  0.00000000000E+00 0.  1.
</event>
<event>
12    1  0.8416569E-002  0.1806980E+03  0.7818608E-02  0.1167593E+00
         21   -1    0    0  503  502  0.00000000000E+00  0.00000000000E+00  0.85047323143E+03  0.85047323143E+03  0.00000000000E+00 0.  1.
         21   -1    0    0  501  503 -0.00000000000E+00 -0.00000000000E+00 -0.13929285789E+03  0.13929285789E+03  0.00000000000E+00 0.  1.
          6    2    1    2  501    0 -0.50864340840E+02 -0.10853067338E+02 -0.66967319290E+02  0.19091342026E+03  0.17105069992E+03 0.  0.
         24    2    3    3    0    0  0.27905336048E+02 -0.16571666160E+02 -0.72473873913E+02  0.11160530899E+03  0.78421646857E+02 0.  0.
         -6    2    1    2    0  502  0.50864340840E+02  0.10853067338E+02  0.77814769283E+03  0.79885266906E+03  0.17305139344E+03 0.  0.
        -24    2    5    5    0    0 -0.22533103779E+02 -0.32564289320E+02  0.27044707421E+03  0.28401846285E+03  0.77179618994E+02 0.  0.
          5    1    3    3  501    0 -0.78769676888E+02  0.57185988217E+01  0.55065546233E+01  0.79308111271E+02  0.47000000000E+01 0. -1.
        -13    1    4    4    0    0  0.32230411923E+02  0.89626066854E+01 -0.78223564452E+02  0.85076752446E+02  0.00000000000E+00 0.  1.
         14    1    4    4    0    0 -0.43250758753E+01 -0.25534272845E+02  0.57496905387E+01  0.26528556545E+02  0.00000000000E+00 0. -1.
         -5    1    5    5    0  502  0.73397444619E+02  0.43417356658E+02  0.50770061862E+03  0.51483420621E+03  0.47000000000E+01 0.  1.
         13    1    6    6    0    0 -0.94442109944E+01 -0.17575618312E+01 -0.17556595099E+01  0.97654741417E+01  0.00000000000E+00 0. -1.
        -14    1    6    6    0    0 -0.13088892784E+02 -0.30806727489E+02  0.27220273372E+03  0.27425298871E+03  0.00000000000E+00 0.  1.
</event>
<event>
12    1  0.8416569E-002  0.3735715E+03  0.7818608E-02  0.1053416E+00
         21   -1    0    0  503  502  0.00000000000E+00  0.00000000000E+00  0.12728352777E+03  0.12728352777E+03  0.00000000000E+00 0. -1.
         21   -1    0    0  501  503 -0.00000000000E+00 -0.00000000000E+00 -0.11486624891E+04  0.11486624891E+04  0.00000000000E+00 0.  1.
          6    2    1    2  501    0  0.29856072687E+02  0.32956323879E+03 -0.37087743395E+03  0.52580745025E+03  0.17152285645E+03 0.  0.
         24    2    3    3    0    0 -0.35700020997E+02  0.26568070972E+03 -0.28749961368E+03  0.40190212408E+03  0.83717133602E+02 0.  0.
         -6    2    1    2    0  502 -0.29856072687E+02 -0.32956323879E+03 -0.65050152741E+03  0.75013856665E+03  0.17335604565E+03 0.  0.
        -24    2    5    5    0    0  0.48157017854E+01 -0.80105512385E+02 -0.28073488418E+03  0.30272293252E+03  0.79931311652E+02 0.  0.
          5    1    3    3  501    0  0.65556093684E+02  0.63882529077E+02 -0.83377820265E+02  0.12390532617E+03  0.47000000000E+01 0. -1.
        -13    1    4    4    0    0  0.30969740173E+01  0.18752055512E+03 -0.23267157153E+03  0.29884713490E+03  0.00000000000E+00 0.  1.
         14    1    4    4    0    0 -0.38796995014E+02  0.78160154596E+02 -0.54828042156E+02  0.10305498918E+03  0.00000000000E+00 0. -1.
         -5    1    5    5    0  502 -0.34671774473E+02 -0.24945772641E+03 -0.36976664324E+03  0.44741563412E+03  0.47000000000E+01 0.  1.
         13    1    6    6    0    0  0.40079505981E+02 -0.59749461308E+02 -0.16389235394E+03  0.17898901811E+03  0.00000000000E+00 0. -1.
        -14    1    6    6    0    0 -0.35263804196E+02 -0.20356051077E+02 -0.11684253024E+03  0.12373391441E+03  0.00000000000E+00 0.  1.
</event>
<event>
12    1  0.8416569E-002  0.2076691E+03  0.7818608E-02  0.1143674E+00
         21   -1    0    0  501  502  0.00000000000E+00  0.00000000000E+00  0.27074665025E+03  0.27074665025E+03  0.00000000000E+00 0. -1.
         21   -1    0    0  502  503 -0.00000000000E+00 -0.00000000000E+00 -0.18738324191E+03  0.18738324191E+03  0.00000000000E+00 0. -1.
         -6    2    1    2    0  503 -0.53085433287E+02 -0.10216921173E+03 -0.48391557321E+02  0.21323273239E+03  0.17282894518E+03 0.  0.
        -24    2    3    3    0    0 -0.44057171103E+02 -0.13992061671E+03 -0.47417863247E+02  0.17412114618E+03  0.80937670381E+02 0.  0.
          6    2    1    2  501    0  0.53085433287E+02  0.10216921173E+03  0.13175496566E+03  0.24489715977E+03  0.17134362211E+03 0.  0.
         24    2    5    5    0    0 -0.36149594188E+02  0.21984128413E+02  0.46684842019E+02  0.97752490654E+02  0.74739413248E+02 0.  0.
          5    1    5    5  501    0  0.89235027475E+02  0.80185083312E+02  0.85070123642E+02  0.14714466912E+03  0.47000000000E+01 0. -1.
        -11    1    6    6    0    0 -0.28976338067E+02 -0.21311914883E+02  0.34302371823E+01  0.36132982314E+02  0.00000000000E+00 0.  1.
         12    1    6    6    0    0 -0.71732561203E+01  0.43296043296E+02  0.43254604837E+02  0.61619508340E+02  0.00000000000E+00 0. -1.
         -5    1    3    3    0  503 -0.90282621842E+01  0.37751404980E+02 -0.97369407432E+00  0.39111586214E+02  0.47000000000E+01 0.  1.
         13    1    4    4    0    0 -0.60812489965E+02 -0.68409409628E+02 -0.41303918662E+02  0.10041922106E+03  0.00000000000E+00 0. -1.
        -14    1    4    4    0    0  0.16755318862E+02 -0.71511207077E+02 -0.61139445850E+01  0.73701925118E+02  0.00000000000E+00 0.  1.
</event>
<event>
12    1  0.8416569E-002  0.1967499E+03  0.7818608E-02  0.1154285E+00
         21   -1    0    0  501  502  0.00000000000E+00  0.00000000000E+00  0.23956146057E+03  0.23956146057E+03  0.00000000000E+00 0.  1.
         21   -1    0    0  502  503 -0.00000000000E+00 -0.00000000000E+00 -0.20479248813E+03  0.20479248813E+03  0.00000000000E+00 0.  1.
         -6    2    1    2    0  503  0.55555486286E+02 -0.47307564692E+02 -0.91830216480E+02  0.21712514838E+03  0.18271870093E+03 0.  0.
        -24    2    3    3    0    0 -0.52222976469E+00  0.21824198493E+00 -0.11466961393E+03  0.14000744216E+03  0.80328345848E+02 0.  0.
          6    2    1    2  501    0 -0.55555486286E+02  0.47307564692E+02  0.12659918892E+03  0.22722880032E+03  0.17401481352E+03 0.  0.
         24    2    5    5    0    0 -0.46122842804E+02  0.79113750043E+02  0.30838163614E+02  0.12577500711E+03  0.80511229052E+02 0.  0.
          5    1    5    5  501    0 -0.94326434815E+01 -0.31806185351E+02  0.95761025304E+02  0.10145379321E+03  0.47000000000E+01 0. -1.
        -13    1    6    6    0    0 -0.67456669409E+02  0.55330667687E+02  0.34070200250E+02  0.93662498255E+02  0.00000000000E+00 0.  1.
         14    1    6    6    0    0  0.21333826604E+02  0.23783082356E+02 -0.32320366357E+01  0.32112508852E+02  0.00000000000E+00 0. -1.
         -5    1    3    3    0  503  0.56077716051E+02 -0.47525806677E+02  0.22839397452E+02  0.77117706227E+02  0.47000000000E+01 0.  1.
         13    1    4    4    0    0  0.85860194696E+01  0.26304543134E+02 -0.65797767680E+01  0.28441908905E+02  0.00000000000E+00 0. -1.
        -14    1    4    4    0    0 -0.91082492343E+01 -0.26086301149E+02 -0.10808983716E+03  0.11156553325E+03  0.00000000000E+00 0.  1.
</event>
<event>
12    1  0.8416569E-002  0.2358963E+03  0.7818608E-02  0.1124399E+00
         21   -1    0    0  501  502  0.00000000000E+00  0.00000000000E+00  0.51812852875E+03  0.51812852875E+03  0.00000000000E+00 0.  1.
         21   -1    0    0  502  503 -0.00000000000E+00 -0.00000000000E+00 -0.10591663023E+03  0.10591663023E+03  0.00000000000E+00 0.  1.
         -6    2    1    2    0  503  0.14620442719E+03  0.81418815355E+01  0.26548050242E+03  0.35514357936E+03  0.18494604627E+03 0.  0.
        -24    2    3    3    0    0  0.10517136066E+03  0.79068366798E+02  0.17723523381E+03  0.23462969513E+03  0.79535803268E+02 0.  0.
          6    2    1    2  501    0 -0.14620442719E+03 -0.81418815355E+01  0.14673139610E+03  0.26890157962E+03  0.17127735448E+03 0.  0.
         24    2    5    5    0    0 -0.22574573710E+02  0.22554558342E+02  0.16099117332E+02  0.86381733171E+02  0.78640338037E+02 0.  0.
          5    1    5    5  501    0 -0.12362985348E+03 -0.30696439877E+02  0.13063227877E+03  0.18251984645E+03  0.47000000000E+01 0. -1.
        -13    1    6    6    0    0 -0.21557895997E+02 -0.19963139553E+02  0.29653242178E+02  0.41744276162E+02  0.00000000000E+00 0.  1.
         14    1    6    6    0    0 -0.10166777124E+01  0.42517697895E+02 -0.13554124846E+02  0.44637457009E+02  0.00000000000E+00 0. -1.
         -5    1    3    3    0  503  0.41033066527E+02 -0.70926485263E+02  0.88245268608E+02  0.12051388423E+03  0.47000000000E+01 0.  1.
         11    1    4    4    0    0 -0.85406323367E+01  0.26515998755E+02  0.24536096807E+02  0.37122239119E+02  0.00000000000E+00 0. -1.
        -12    1    4    4    0    0  0.11371199300E+03  0.52552368043E+02  0.15269913700E+03  0.19750745601E+03  0.00000000000E+00 0.  1.
</event>
<event>
12    1  0.8416569E-002  0.2411306E+03  0.7818608E-02  0.1119114E+00
         21   -1    0    0  501  502  0.00000000000E+00  0.00000000000E+00  0.49593970304E+03  0.49593970304E+03  0.00000000000E+00 0.  1.
         21   -1    0    0  502  503 -0.00000000000E+00 -0.00000000000E+00 -0.15922958773E+03  0.15922958773E+03  0.00000000000E+00 0.  1.
         -6    2    1    2    0  503 -0.58094382664E+02  0.15855248412E+03  0.33688662657E+03  0.41403866500E+03  0.17152716823E+03 0.  0.
        -24    2    3    3    0    0  0.18010296728E+02  0.46876155830E+02  0.20606515710E+03  0.22589012954E+03  0.77728739074E+02 0.  0.
          6    2    1    2  501    0  0.58094382664E+02 -0.15855248412E+03 -0.17651126086E+00  0.24113062577E+03  0.17213395950E+03 0.  0.
         24    2    5    5    0    0  0.29499549760E+02 -0.49476920169E+01  0.63381321570E+01  0.84680546820E+02  0.78967841544E+02 0.  0.
          5    1    5    5  501    0  0.28594832903E+02 -0.15360479210E+03 -0.65146434178E+01  0.15645007895E+03  0.47000000000E+01 0. -1.
        -13    1    6    6    0    0  0.44125376713E+01 -0.30256501559E+02 -0.23210204138E+02  0.38388018332E+02  0.00000000000E+00 0.  1.
         14    1    6    6    0    0  0.25087012089E+02  0.25308809542E+02  0.29548336295E+02  0.46292528488E+02  0.00000000000E+00 0. -1.
         -5    1    3    3    0  503 -0.76104679391E+02  0.11167632829E+03  0.13082146947E+03  0.18814853547E+03  0.47000000000E+01 0.  1.
         11    1    4    4    0    0  0.34013618015E+02 -0.62073786567E+01  0.54924923218E+02  0.64901501915E+02  0.00000000000E+00 0. -1.
        -12    1    4    4    0    0 -0.16003321288E+02  0.53083534486E+02  0.15114023388E+03  0.16098862762E+03  0.00000000000E+00 0.  1.
</event>
<event>
12    1  0.8416569E-002  0.2520729E+03  0.7818608E-02  0.1112217E+00
         21   -1    0    0  503  502  0.00000000000E+00  0.00000000000E+00  0.19849282786E+03  0.19849282786E+03  0.00000000000E+00 0.  1.
         21   -1    0    0  501  503 -0.00000000000E+00 -0.00000000000E+00 -0.44220984685E+03  0.44220984685E+03  0.00000000000E+00 0.  1.
          6    2    1    2  501    0  0.17506692190E+03  0.51961531572E+02 -0.29162117343E+03  0.38546549413E+03  0.17375934641E+03 0.  0.
         24    2    3    3    0    0  0.79426676461E+02  0.94734780027E+02 -0.17787207498E+03  0.23074783279E+03  0.79516110322E+02 0.  0.
         -6    2    1    2    0  502 -0.17506692190E+03 -0.51961531572E+02  0.47904154444E+02  0.25523718059E+03  0.17176374016E+03 0.  0.
        -24    2    5    5    0    0 -0.16488528976E+03 -0.89351669222E+02  0.16370929790E+02  0.20505628498E+03  0.81296943966E+02 0.  0.
          5    1    3    3  501    0  0.95640245435E+02 -0.42773248455E+02 -0.11374909845E+03  0.15471766134E+03  0.47000000000E+01 0. -1.
        -11    1    4    4    0    0  0.30408515212E+02  0.41313954346E+02 -0.13967905605E+03  0.14880107298E+03  0.00000000000E+00 0.  1.
         12    1    4    4    0    0  0.49018161249E+02  0.53420825681E+02 -0.38193018928E+02  0.81946759811E+02  0.00000000000E+00 0. -1.
         -5    1    5    5    0  502 -0.10181632139E+02  0.37390137650E+02  0.31533224653E+02  0.50180895603E+02  0.47000000000E+01 0.  1.
         11    1    6    6    0    0 -0.25558460171E+02  0.12407981506E+02  0.15831543021E+02  0.32524308537E+02  0.00000000000E+00 0. -1.
        -12    1    6    6    0    0 -0.13932682959E+03 -0.10175965073E+03  0.53938676932E+00  0.17253197645E+03  0.00000000000E+00 0.  1.
</event>
<event>
12    1  0.8416569E-002  0.3726047E+03  0.7818608E-02  0.1053760E+00
         21   -1    0    0  501  502  0.00000000000E+00  0.00000000000E+00  0.41565115460E+03  0.41565115460E+03  0.00000000000E+00 0.  1.
         21   -1    0    0  502  503 -0.00000000000E+00 -0.00000000000E+00 -0.39402303338E+03  0.39402303338E+03  0.00000000000E+00 0.  1.
         -6    2    1    2    0  503  0.12013463037E+03  0.30749497059E+03  0.16953961588E+03  0.40936281110E+03  0.17276788882E+03 0.  0.
        -24    2    3    3    0    0  0.34355032620E+02  0.14471703300E+03  0.14746291174E+03  0.22398679533E+03  0.79381901205E+02 0.  0.
          6    2    1    2  501    0 -0.12013463037E+03 -0.30749497059E+03 -0.14791149466E+03  0.40031137688E+03  0.17142316603E+03 0.  0.
         24    2    5    5    0    0 -0.73051718048E+02 -0.26222099670E+03 -0.58893532333E+02  0.28979974418E+03  0.80118905108E+02 0.  0.
          5    1    5    5  501    0 -0.47082912327E+02 -0.45273973894E+02 -0.89017962330E+02  0.11051163270E+03  0.47000000000E+01 0. -1.
        -13    1    6    6    0    0 -0.81624549745E+02 -0.17021814827E+03 -0.21042402528E+02  0.18994622351E+03  0.00000000000E+00 0.  1.
         14    1    6    6    0    0  0.85728316971E+01 -0.92002848429E+02 -0.37851129805E+02  0.99853520668E+02  0.00000000000E+00 0. -1.
         -5    1    3    3    0  503  0.85779597755E+02  0.16277793759E+03  0.22076704145E+02  0.18537601577E+03  0.47000000000E+01 0.  1.
         11    1    4    4    0    0 -0.17890936052E+02  0.94330458104E+02  0.83761256030E+02  0.12741377057E+03  0.00000000000E+00 0. -1.
        -12    1    4    4    0    0  0.52245968671E+02  0.50386574894E+02  0.63701655707E+02  0.96573024762E+02  0.00000000000E+00 0.  1.
</event>
<event>
12    1  0.8416569E-002  0.2053869E+03  0.7818608E-02  0.1146102E+00
         21   -1    0    0  503  502  0.00000000000E+00  0.00000000000E+00  0.17087609255E+04  0.17087609255E+04  0.00000000000E+00 0. -1.
         21   -1    0    0  501  503 -0.00000000000E+00 -0.00000000000E+00 -0.11430382160E+03  0.11430382160E+03  0.00000000000E+00 0.  1.
          6    2    1    2  501    0  0.41230543314E+02 -0.99227701501E+02 -0.13720516070E+02  0.20182478276E+03  0.17029062196E+03 0.  0.
         24    2    3    3    0    0  0.85584476826E+02 -0.67911432014E+02 -0.40351596244E+02  0.14116767613E+03  0.79770898163E+02 0.  0.
         -6    2    1    2    0  502 -0.41230543314E+02  0.99227701501E+02  0.16081776200E+04  0.16212399644E+04  0.17503619682E+03 0.  0.
        -24    2    5    5    0    0 -0.40425721667E+02 -0.84281079826E+01  0.77076671522E+03  0.77692394861E+03  0.88454624813E+02 0.  0.
          5    1    3    3  501    0 -0.44353933512E+02 -0.31316269487E+02  0.26631080174E+02  0.60657106623E+02  0.47000000000E+01 0. -1.
        -13    1    4    4    0    0  0.88656940183E+01 -0.80428364134E+01 -0.42170651234E+02  0.43836646468E+02  0.00000000000E+00 0.  1.
         14    1    4    4    0    0  0.76718782808E+02 -0.59868595601E+02  0.18190549906E+01  0.97331029666E+02  0.00000000000E+00 0. -1.
         -5    1    5    5    0  502 -0.80482164760E+00  0.10765580948E+03  0.83741090477E+03  0.84431601577E+03  0.47000000000E+01 0.  1.
         13    1    6    6    0    0 -0.13040812858E+02  0.39609820410E+02  0.37542976023E+03  0.37773867361E+03  0.00000000000E+00 0. -1.
        -14    1    6    6    0    0 -0.27384908808E+02 -0.48037928392E+02  0.39533695499E+03  0.39918527500E+03  0.00000000000E+00 0.  1.
</event>
<event>
12    1  0.8416569E-002  0.2517488E+03  0.7818608E-02  0.1112227E+00
         21   -1    0    0  503  502  0.00000000000E+00  0.00000000000E+00  0.11212260231E+04  0.11212260231E+04  0.00000000000E+00 0. -1.
         21   -1    0    0  501  503 -0.00000000000E+00 -0.00000000000E+00 -0.58384251227E+02  0.58384251227E+02  0.00000000000E+00 0.  1.
          6    2    1    2  501    0 -0.16725065532E+03  0.75619122528E+02  0.63771239166E+03  0.68560524028E+03  0.17229746844E+03 0.  0.
         24    2    3    3    0    0 -0.61562728703E+02 -0.67784748516E+00  0.15351534498E+03  0.18414733031E+03  0.80949669997E+02 0.  0.
         -6    2    1    2    0  502  0.16725065532E+03 -0.75619122528E+02  0.42512938025E+03  0.49400503408E+03  0.17208994841E+03 0.  0.
        -24    2    5    5    0    0  0.73732789247E+01 -0.33387607673E+02  0.15189179161E+03  0.17459128019E+03  0.79005703398E+02 0.  0.
          5    1    3    3  501    0 -0.10568792662E+03  0.76296970014E+02  0.48419704667E+03  0.50145790997E+03  0.47000000000E+01 0. -1.
        -13    1    4    4    0    0 -0.75268070409E+02 -0.19850566230E+02  0.12350532527E+03  0.14598935843E+03  0.00000000000E+00 0.  1.
         14    1    4    4    0    0  0.13705341706E+02  0.19172718745E+02  0.30010019710E+02  0.38157971885E+02  0.00000000000E+00 0. -1.
         -5    1    5    5    0  502  0.15987737640E+03 -0.42231514856E+02  0.27323758864E+03  0.31941375390E+03  0.47000000000E+01 0.  1.
         11    1    6    6    0    0  0.21170542060E+02 -0.86695779633E+01  0.14314671652E+03  0.14496322252E+03  0.00000000000E+00 0. -1.
        -12    1    6    6    0    0 -0.13797263135E+02 -0.24718029710E+02  0.87450750959E+01  0.29628057668E+02  0.00000000000E+00 0.  1.
</event>
<event>
12    1  0.8416569E-002  0.2329928E+03  0.7818608E-02  0.1124720E+00
         21   -1    0    0  501  502  0.00000000000E+00  0.00000000000E+00  0.12650139793E+04  0.12650139793E+04  0.00000000000E+00 0.  1.
         21   -1    0    0  502  503 -0.00000000000E+00 -0.00000000000E+00 -0.42795711717E+02  0.42795711717E+02  0.00000000000E+00 0.  1.
         -6    2    1    2    0  503 -0.62738412641E+02  0.14279111817E+03  0.58486553029E+03  0.62920510965E+03  0.17177301777E+03 0.  0.
        -24    2    3    3    0    0 -0.29136866222E+02  0.54150772732E+02  0.46782227615E+03  0.47851540164E+03  0.79611835676E+02 0.  0.
          6    2    1    2  501    0  0.62738412641E+02 -0.14279111817E+03  0.63735273727E+03  0.67860458134E+03  0.17309030669E+03 0.  0.
         24    2    5    5    0    0 -0.32029152486E+02 -0.80327084667E+02  0.38331318824E+03  0.40032265712E+03  0.76491322275E+02 0.  0.
          5    1    5    5  501    0  0.94767565126E+02 -0.62464033500E+02  0.25403954902E+03  0.27828192422E+03  0.47000000000E+01 0. -1.
        -11    1    6    6    0    0  0.21236021285E+02 -0.12088506542E+02  0.46102685817E+02  0.52178139388E+02  0.00000000000E+00 0.  1.
         12    1    6    6    0    0 -0.53265173771E+02 -0.68238578125E+02  0.33721050243E+03  0.34814451774E+03  0.00000000000E+00 0. -1.
         -5    1    3    3    0  503 -0.33601546418E+02  0.88640345435E+02  0.11704325414E+03  0.15068970801E+03  0.47000000000E+01 0.  1.
         13    1    4    4    0    0  0.19220217019E+01  0.63858341724E+01  0.32035603548E+03  0.32042543987E+03  0.00000000000E+00 0. -1.
        -14    1    4    4    0    0 -0.31058887924E+02  0.47764938560E+02  0.14746624067E+03  0.15808996177E+03  0.00000000000E+00 0.  1.
</event>
<event>
12    1  0.8416569E-002  0.2350492E+03  0.7818608E-02  0.1125236E+00
         21   -1    0    0  503  502  0.00000000000E+00  0.00000000000E+00  0.46963653633E+03  0.46963653633E+03  0.00000000000E+00 0. -1.
         21   -1    0    0  501  503 -0.00000000000E+00 -0.00000000000E+00 -0.29709179809E+03  0.29709179809E+03  0.00000000000E+00 0. -1.
          6    2    1    2  501    0 -0.19870290587E+02  0.14051814498E+03 -0.21733935542E+03  0.31147267655E+03  0.17215880839E+03 0.  0.
         24    2    3    3    0    0 -0.32775216832E+02  0.12269898067E+03 -0.74614972366E+02  0.16698600154E+03  0.78661781791E+02 0.  0.
         -6    2    1    2    0  502  0.19870290587E+02 -0.14051814498E+03  0.38988409366E+03  0.45525565787E+03  0.18737110239E+03 0.  0.
        -24    2    5    5    0    0  0.68389359476E+02 -0.11232188176E+03  0.36095707563E+03  0.39194695643E+03  0.77711624579E+02 0.  0.
          5    1    3    3  501    0  0.12904926246E+02  0.17819164318E+02 -0.14272438305E+03  0.14448667501E+03  0.47000000000E+01 0. -1.
        -11    1    4    4    0    0  0.80034363151E+01  0.90627374133E+02 -0.70207836859E+02  0.11491960795E+03  0.00000000000E+00 0.  1.
         12    1    4    4    0    0 -0.40778653148E+02  0.32071606532E+02 -0.44071355071E+01  0.52066393590E+02  0.00000000000E+00 0. -1.
         -5    1    5    5    0  502 -0.48519068889E+02 -0.28196263225E+02  0.28927018032E+02  0.63308701439E+02  0.47000000000E+01 0.  1.
         11    1    6    6    0    0  0.48775811949E+02 -0.80286467435E+02  0.14516496866E+03  0.17290999048E+03  0.00000000000E+00 0. -1.
        -12    1    6    6    0    0  0.19613547527E+02 -0.32035414324E+02  0.21579210698E+03  0.21903696595E+03  0.00000000000E+00 0.  1.
</event>
<event>
12    1  0.8416569E-002  0.1857701E+03  0.7818608E-02  0.1162656E+00
         21   -1    0    0  501  502  0.00000000000E+00  0.00000000000E+00  0.70206234749E+02  0.70206234749E+02  0.00000000000E+00 0.  1.
         21   -1    0    0  502  503 -0.00000000000E+00 -0.00000000000E+00 -0.10750857579E+04  0.10750857579E+04  0.00000000000E+00 0.  1.
         -6    2    1    2    0  503 -0.18496917423E+01  0.65681939087E+02 -0.92650293829E+03  0.94494350406E+03  0.17376130962E+03 0.  0.
        -24    2    3    3    0    0 -0.41460348679E+02  0.49050694100E+02 -0.29002281964E+03  0.30699786854E+03  0.77521121422E+02 0.  0.
          6    2    1    2  501    0  0.18496917423E+01 -0.65681939087E+02 -0.78376584889E+02  0.20034848862E+03  0.17227620077E+03 0.  0.
         24    2    5    5    0    0 -0.53989899240E+02 -0.60824655671E+02 -0.14416724581E+02  0.11517450871E+03  0.80266914422E+02 0.  0.
          5    1    5    5  501    0  0.55839590982E+02 -0.48572834159E+01 -0.63959860308E+02  0.85173979911E+02  0.47000000000E+01 0. -1.
        -13    1    6    6    0    0 -0.45131893079E+02 -0.77817684603E+02 -0.24887362584E+02  0.93337348507E+02  0.00000000000E+00 0.  1.
         14    1    6    6    0    0 -0.88580061609E+01  0.16993028932E+02  0.10470638002E+02  0.21837160200E+02  0.00000000000E+00 0. -1.
         -5    1    3    3    0  503  0.39610656937E+02  0.16631244986E+02 -0.63648011864E+03  0.63794563552E+03  0.47000000000E+01 0.  1.
         11    1    4    4    0    0 -0.41093135295E+02  0.48057808225E+02 -0.29510674968E+03  0.30180489129E+03  0.00000000000E+00 0. -1.
        -12    1    4    4    0    0 -0.36721338433E+00  0.99288587488E+00  0.50839300374E+01  0.51929772439E+01  0.00000000000E+00 0.  1.
</event>
<event>
12    1  0.8416569E-002  0.3205742E+03  0.7818608E-02  0.1075883E+00
         21   -1    0    0  501  502  0.00000000000E+00  0.00000000000E+00  0.16620871239E+03  0.16620871239E+03  0.00000000000E+00 0. -1.
         21   -1    0    0  502  503 -0.00000000000E+00 -0.00000000000E+00 -0.61442536942E+03  0.61442536942E+03  0.00000000000E+00 0. -1.
         -6    2    1    2    0  503  0.14986514569E+02 -0.26503578993E+03 -0.25863509208E+03  0.41189797355E+03  0.17971996048E+03 0.  0.
        -24    2    3    3    0    0 -0.37636376608E+02 -0.59579222612E+02 -0.62743067759E+02  0.12314661871E+03  0.79134167944E+02 0.  0.
          6    2    1    2  501    0 -0.14986514569E+02  0.26503578993E+03 -0.18958156495E+03  0.36873610826E+03  0.17192027863E+03 0.  0.
         24    2    5    5    0    0 -0.59854104626E+02  0.11742787267E+03 -0.13548214429E+03  0.20518172834E+03  0.79826756808E+02 0.  0.
          5    1    5    5  501    0  0.44867590056E+02  0.14760791726E+03 -0.54099420653E+02  0.16355437991E+03  0.47000000000E+01 0. -1.
        -13    1    6    6    0    0 -0.76622330730E+02  0.11165108886E+03 -0.12647008592E+03  0.18528796465E+03  0.00000000000E+00 0.  1.
         14    1    6    6    0    0  0.16768226104E+02  0.57767838162E+01 -0.90120583705E+01  0.19893763697E+02  0.00000000000E+00 0. -1.
         -5    1    3    3    0  503  0.52622891177E+02 -0.20545656732E+03 -0.19589202432E+03  0.28875135484E+03  0.47000000000E+01 0.  1.
         13    1    4    4    0    0 -0.10985016403E+02 -0.41451740634E+02  0.96035175369E+01  0.43944794186E+02  0.00000000000E+00 0. -1.
        -14    1    4    4    0    0 -0.26651360205E+02 -0.18127481978E+02 -0.72346585296E+02  0.79201824522E+02  0.00000000000E+00 0.  1.
</event>
<event>
12    1  0.8416569E-002  0.2179016E+03  0.7818608E-02  0.1135708E+00
         21   -1    0    0  501  502  0.00000000000E+00  0.00000000000E+00  0.14274787809E+04  0.14274787809E+04  0.00000000000E+00 0. -1.
         21   -1    0    0  502  503 -0.00000000000E+00 -0.00000000000E+00 -0.52587389532E+02  0.52587389532E+02  0.00000000000E+00 0.  1.
         -6    2    1    2    0  503  0.13219180396E+03  0.39821164677E+01  0.23517999258E+03  0.31971139645E+03  0.17150865233E+03 0.  0.
        -24    2    3    3    0    0  0.28734634535E+02  0.34577051825E+02  0.46176677810E+02  0.10203324190E+03  0.79102750547E+02 0.  0.
          6    2    1    2  501    0 -0.13219180396E+03 -0.39821164677E+01  0.11397113988E+04  0.11603547739E+04  0.17317793937E+03 0.  0.
         24    2    5    5    0    0 -0.27697289585E+02  0.21121796836E+01  0.81235220580E+03  0.81663632057E+03  0.78785611963E+02 0.  0.
          5    1    5    5  501    0 -0.10449451438E+03 -0.60942961513E+01  0.32735919295E+03  0.34371845337E+03  0.47000000000E+01 0. -1.
        -11    1    6    6    0    0 -0.10550788941E+01  0.33861733260E+02  0.19715758583E+03  0.20004710400E+03  0.00000000000E+00 0.  1.
         12    1    6    6    0    0 -0.26642210691E+02 -0.31749553577E+02  0.61519461998E+03  0.61658921657E+03  0.00000000000E+00 0. -1.
         -5    1    3    3    0  503  0.10345716943E+03 -0.30594935358E+02  0.18900331477E+03  0.21767815455E+03  0.47000000000E+01 0.  1.
         11    1    4    4    0    0  0.39141180449E+02  0.28938871150E+02  0.64140914263E+02  0.80520476606E+02  0.00000000000E+00 0. -1.
        -12    1    4    4    0    0 -0.10406545914E+02  0.56381806755E+01 -0.17964236453E+02  0.21512765293E+02  0.00000000000E+00 0.  1.
</event>
<event>
12    1  0.8416569E-002  0.2122544E+03  0.7818608E-02  0.1139904E+00
         21   -1    0    0  501  502  0.00000000000E+00  0.00000000000E+00  0.73567777559E+02  0.73567777559E+02  0.00000000000E+00 0.  1.
         21   -1    0    0  502  503 -0.00000000000E+00 -0.00000000000E+00 -0.95675298553E+03  0.95675298553E+03  0.00000000000E+00 0.  1.
         -6    2    1    2    0  503 -0.11845452279E+03 -0.33979008852E+02 -0.75101452726E+03  0.78027871436E+03  0.17212206397E+03 0.  0.
        -24    2    3    3    0    0 -0.30144520959E+02 -0.29713595611E+02 -0.59048920320E+03  0.59695572115E+03  0.76727074787E+02 0.  0.
          6    2    1    2  501    0  0.11845452279E+03  0.33979008852E+02 -0.13217068071E+03  0.25004204873E+03  0.17281750572E+03 0.  0.
         24    2    5    5    0    0  0.83934810699E+02 -0.36777866180E+02 -0.12240311253E+03  0.17057103970E+03  0.75592947698E+02 0.  0.
          5    1    5    5  501    0  0.34519712096E+02  0.70756875033E+02 -0.97675681818E+01  0.79471009027E+02  0.47000000000E+01 0. -1.
        -13    1    6    6    0    0  0.36963020978E+02 -0.54541485880E+02 -0.86975750639E+02  0.10911379290E+03  0.00000000000E+00 0.  1.
         14    1    6    6    0    0  0.46971789721E+02  0.17763619700E+02 -0.35427361888E+02  0.61457246805E+02  0.00000000000E+00 0. -1.
         -5    1    3    3    0  503 -0.88310001836E+02 -0.42654132413E+01 -0.16052532406E+03  0.18332299321E+03  0.47000000000E+01 0.  1.
         11    1    4    4    0    0  0.23038516608E+00 -0.45402306913E+02 -0.20571917071E+03  0.21066988334E+03  0.00000000000E+00 0. -1.
        -12    1    4    4    0    0 -0.30374906125E+02  0.15688711303E+02 -0.38477003249E+03  0.38628583781E+03  0.00000000000E+00 0.  1.
</event>
<event>
12    1  0.8416569E-002  0.1836847E+03  0.7818608E-02  0.1164555E+00
         21   -1    0    0  503  502  0.00000000000E+00  0.00000000000E+00  0.30214417900E+03  0.30214417900E+03  0.00000000000E+00 0. -1.
         21   -1    0    0  501  503 -0.00000000000E+00 -0.00000000000E+00 -0.12110657032E+03  0.12110657032E+03  0.00000000000E+00 0.  1.
          6    2    1    2  501    0  0.89968665723E+01  0.59097219208E+02  0.15199629363E+03  0.23841757285E+03  0.17368546526E+03 0.  0.
         24    2    3    3    0    0  0.24835937950E+02  0.50246952678E+02  0.82695138493E+01  0.93473857481E+02  0.74346466667E+02 0.  0.
         -6    2    1    2    0  502 -0.89968665723E+01 -0.59097219208E+02  0.29041315048E+02  0.18483317647E+03  0.17247167947E+03 0.  0.
        -24    2    5    5    0    0 -0.41261797429E+02 -0.94520260934E+02  0.29802306269E+02  0.13668250923E+03  0.84600917344E+02 0.  0.
          5    1    3    3  501    0 -0.15839071378E+02  0.88502665299E+01  0.14372677978E+03  0.14494371537E+03  0.47000000000E+01 0. -1.
        -13    1    4    4    0    0 -0.15999729937E+01 -0.13068701094E+02 -0.15976817863E+02  0.20702887984E+02  0.00000000000E+00 0.  1.
         14    1    4    4    0    0  0.26435910944E+02  0.63315653772E+02  0.24246331712E+02  0.72770969497E+02  0.00000000000E+00 0. -1.
         -5    1    5    5    0  502  0.32264930857E+02  0.35423041727E+02 -0.76099122158E+00  0.48150667244E+02  0.47000000000E+01 0.  1.
         11    1    6    6    0    0 -0.29951841212E+02 -0.44675683242E+02  0.57344869090E+02  0.78622283584E+02  0.00000000000E+00 0. -1.
        -12    1    6    6    0    0 -0.11309956217E+02 -0.49844577693E+02 -0.27542562820E+02  0.58060225643E+02  0.00000000000E+00 0.  1.
</event>
<event>
12    1  0.8416569E-002  0.2223275E+03  0.7818608E-02  0.1132215E+00
         21   -1    0    0  501  502  0.00000000000E+00  0.00000000000E+00  0.83587836347E+03  0.83587836347E+03  0.00000000000E+00 0.  1.
         21   -1    0    0  502  503 -0.00000000000E+00 -0.00000000000E+00 -0.14091172743E+03  0.14091172743E+03  0.00000000000E+00 0. -1.
         -6    2    1    2    0  503 -0.14023430855E+03 -0.39455409222E+01 -0.24659832324E+02  0.22369090921E+03  0.17247691713E+03 0.  0.
        -24    2    3    3    0    0 -0.14410153599E+03  0.48070208474E+02 -0.24749465063E+02  0.17132019538E+03  0.75246765406E+02 0.  0.
          6    2    1    2  501    0  0.14023430855E+03  0.39455409222E+01  0.71962646836E+03  0.75309918169E+03  0.17208978736E+03 0.  0.
         24    2    5    5    0    0  0.12443002328E+03 -0.23818299782E+02  0.33399173233E+03  0.36611488496E+03  0.80246430623E+02 0.  0.
          5    1    5    5  501    0  0.15804285270E+02  0.27763840704E+02  0.38563473603E+03  0.38698429673E+03  0.47000000000E+01 0. -1.
        -13    1    6    6    0    0  0.71765019550E+02  0.15550998365E+02  0.24299457343E+03  0.25384722630E+03  0.00000000000E+00 0.  1.
         14    1    6    6    0    0  0.52665003733E+02 -0.39369298147E+02  0.90997158898E+02  0.11226765867E+03  0.00000000000E+00 0. -1.
         -5    1    3    3    0  503  0.38672274410E+01 -0.52015749396E+02  0.89632739171E-01  0.52370713833E+02  0.47000000000E+01 0.  1.
         11    1    4    4    0    0 -0.88616989815E+02  0.11530653094E+01  0.12775812876E+02  0.89540615578E+02  0.00000000000E+00 0. -1.
        -12    1    4    4    0    0 -0.55484546180E+02  0.46917143165E+02 -0.37525277939E+02  0.81779579798E+02  0.00000000000E+00 0.  1.
</event>
<event>
12    1  0.8416569E-002  0.2420955E+03  0.7818608E-02  0.1118466E+00
         21   -1    0    0  501  502  0.00000000000E+00  0.00000000000E+00  0.10477893601E+03  0.10477893601E+03  0.00000000000E+00 0.  1.
         21   -1    0    0  502  503 -0.00000000000E+00 -0.00000000000E+00 -0.86274403129E+03  0.86274403129E+03  0.00000000000E+00 0. -1.
         -6    2    1    2    0  503 -0.11677418906E+03 -0.12283759194E+03 -0.66643921524E+03  0.70904970042E+03  0.17287268388E+03 0.  0.
        -24    2    3    3    0    0 -0.42704268823E+02 -0.12778226804E+03 -0.35006389434E+03  0.38404779800E+03  0.82437967118E+02 0.  0.
          6    2    1    2  501    0  0.11677418906E+03  0.12283759194E+03 -0.91525880039E+02  0.25847326687E+03  0.17235474391E+03 0.  0.
         24    2    5    5    0    0  0.14446320385E+03  0.12779059647E+03 -0.62828281755E+02  0.21801519053E+03  0.79894783951E+02 0.  0.
          5    1    5    5  501    0 -0.27689014791E+02 -0.49530045288E+01 -0.28697598285E+02  0.40458076342E+02  0.47000000000E+01 0. -1.
        -13    1    6    6    0    0  0.12068513401E+03  0.62314252840E+02 -0.22951813327E+02  0.13774887808E+03  0.00000000000E+00 0.  1.
         14    1    6    6    0    0  0.23778069841E+02  0.65476343627E+02 -0.39876468427E+02  0.80266312450E+02  0.00000000000E+00 0. -1.
         -5    1    3    3    0  503 -0.74069920236E+02  0.49446761051E+01 -0.31637532090E+03  0.32500190242E+03  0.47000000000E+01 0.  1.
         11    1    4    4    0    0 -0.33968572012E+02 -0.24219875908E+02 -0.43173966222E+02  0.60037135449E+02  0.00000000000E+00 0. -1.
        -12    1    4    4    0    0 -0.87356968112E+01 -0.10356239213E+03 -0.30688992812E+03  0.32401066255E+03  0.00000000000E+00 0.  1.
</event>
<event>
12    1  0.8416569E-002  0.2862911E+03  0.7818608E-02  0.1092793E+00
         21   -1    0    0  503  502  0.00000000000E+00  0.00000000000E+00  0.47720042589E+03  0.47720042589E+03  0.00000000000E+00 0. -1.
         21   -1    0    0  501  503 -0.00000000000E+00 -0.00000000000E+00 -0.20596652513E+03  0.20596652513E+03  0.00000000000E+00 0.  1.
          6    2    1    2  501    0 -0.15978562347E+03 -0.16061751212E+03 -0.87183755050E+01  0.28274731736E+03  0.16893964821E+03 0.  0.
         24    2    3    3    0    0 -0.11449368234E+03 -0.35675741758E+02 -0.32105130174E+02  0.14772570351E+03  0.80066111735E+02 0.  0.
         -6    2    1    2    0  502  0.15978562347E+03  0.16061751212E+03  0.27995227626E+03  0.40041963366E+03  0.17502335664E+03 0.  0.
        -24    2    5    5    0    0  0.73095165900E+02  0.87570151334E+02  0.24543461711E+03  0.28182489877E+03  0.78585543228E+02 0.  0.
          5    1    3    3  501    0 -0.45291941131E+02 -0.12494177037E+03  0.23386754669E+02  0.13502161385E+03  0.47000000000E+01 0. -1.
        -11    1    4    4    0    0 -0.34122337557E+02  0.64445589148E+01  0.22918296744E+02  0.41606665158E+02  0.00000000000E+00 0.  1.
         12    1    4    4    0    0 -0.80371344779E+02 -0.42120300673E+02 -0.55023426918E+02  0.10611903835E+03  0.00000000000E+00 0. -1.
         -5    1    5    5    0  502  0.86690457567E+02  0.73047360791E+02  0.34517659145E+02  0.11859473489E+03  0.47000000000E+01 0.  1.
         13    1    6    6    0    0 -0.10570985508E+02  0.14052511400E+02  0.83202481184E+02  0.85040412078E+02  0.00000000000E+00 0. -1.
        -14    1    6    6    0    0  0.83666151407E+02  0.73517639934E+02  0.16223213593E+03  0.19678448669E+03  0.00000000000E+00 0.  1.
</event>
<event>
12    1  0.8416569E-002  0.1815092E+03  0.7818608E-02  0.1166665E+00
         21   -1    0    0  501  502  0.00000000000E+00  0.00000000000E+00  0.99615396999E+02  0.99615396999E+02  0.00000000000E+00 0.  1.
         21   -1    0    0  502  503 -0.00000000000E+00 -0.00000000000E+00 -0.45988148102E+03  0.45988148102E+03  0.00000000000E+00 0. -1.
         -6    2    1    2    0  503  0.55408742102E+02  0.12502802693E+02 -0.33020852036E+03  0.37680667133E+03  0.17239243564E+03 0.  0.
        -24    2    3    3    0    0  0.10539259699E+03  0.12183473252E+01 -0.23918015012E+03  0.27224100358E+03  0.76150744907E+02 0.  0.
          6    2    1    2  501    0 -0.55408742102E+02 -0.12502802693E+02 -0.30057563655E+02  0.18269020668E+03  0.17101405120E+03 0.  0.
         24    2    5    5    0    0 -0.10037683712E+03 -0.22068096870E+02 -0.38728661275E+02  0.13566997321E+03  0.79648741967E+02 0.  0.
          5    1    5    5  501    0  0.44968095016E+02  0.95652941779E+01  0.86710976203E+01  0.47020233474E+02  0.47000000000E+01 0. -1.
        -11    1    6    6    0    0 -0.28960208760E+02  0.11567448411E+02  0.20203588700E+02  0.37157563840E+02  0.00000000000E+00 0.  1.
         12    1    6    6    0    0 -0.71416628357E+02 -0.33635545282E+02 -0.58932249975E+02  0.98512409368E+02  0.00000000000E+00 0. -1.
         -5    1    3    3    0  503 -0.49983854892E+02  0.11284455367E+02 -0.91028370246E+02  0.10456566775E+03  0.47000000000E+01 0.  1.
         11    1    4    4    0    0  0.51455775977E+02  0.22771261122E+02 -0.18291374307E+03  0.19137310317E+03  0.00000000000E+00 0. -1.
        -12    1    4    4    0    0  0.53936821018E+02 -0.21552913797E+02 -0.56266407051E+02  0.80867900412E+02  0.00000000000E+00 0.  1.
</event>
<event>
12    1  0.8416569E-002  0.2565179E+03  0.7818608E-02  0.1109316E+00
         21   -1    0    0  503  502  0.00000000000E+00  0.00000000000E+00  0.14900793073E+03  0.14900793073E+03  0.00000000000E+00 0. -1.
         21   -1    0    0  501  503 -0.00000000000E+00 -0.00000000000E+00 -0.95082590087E+03  0.95082590087E+03  0.00000000000E+00 0. -1.
          6    2    1    2  501    0 -0.14113791989E+03 -0.12717968308E+03 -0.80377331815E+03  0.84371381298E+03  0.17235680151E+03 0.  0.
         24    2    3    3    0    0 -0.40819508116E+02 -0.11019228425E+03 -0.32771986317E+03  0.35688598155E+03  0.78477534095E+02 0.  0.
         -6    2    1    2    0  502  0.14113791989E+03  0.12717968308E+03  0.19553480116E+01  0.25612001861E+03  0.17175289322E+03 0.  0.
        -24    2    5    5    0    0  0.11588613078E+03  0.11585002582E+03 -0.56812266410E+02  0.19099140362E+03  0.79995367682E+02 0.  0.
          5    1    3    3  501    0 -0.10031841177E+03 -0.16987398827E+02 -0.47605345498E+03  0.48682783143E+03  0.47000000000E+01 0. -1.
        -11    1    4    4    0    0 -0.75198429922E+01 -0.89081354049E+02 -0.14810483542E+03  0.17299444486E+03  0.00000000000E+00 0.  1.
         12    1    4    4    0    0 -0.33299665123E+02 -0.21110930203E+02 -0.17961502776E+03  0.18389153669E+03  0.00000000000E+00 0. -1.
         -5    1    5    5    0  502  0.25251789102E+02  0.11329657262E+02  0.58767614422E+02  0.65128614997E+02  0.47000000000E+01 0.  1.
         11    1    6    6    0    0  0.11401734060E+02  0.22748306614E+02  0.19068005349E+02  0.31797387021E+02  0.00000000000E+00 0. -1.
        -12    1    6    6    0    0  0.10448439672E+03  0.93101719203E+02 -0.75880271759E+02  0.15919401659E+03  0.00000000000E+00 0.  1.
</event>
<event>
12    1  0.8416569E-002  0.1775482E+03  0.7818608E-02  0.1171493E+00
         21   -1    0    0  501  502  0.00000000000E+00  0.00000000000E+00  0.24333425990E+03  0.24333425990E+03  0.00000000000E+00 0.  1.
         21   -1    0    0  502  503 -0.00000000000E+00 -0.00000000000E+00 -0.14592306805E+03  0.14592306805E+03  0.00000000000E+00 0.  1.
         -6    2    1    2    0  503  0.18892498166E+02 -0.13553327300E+02 -0.24187559021E+02  0.17406062679E+03  0.17079650060E+03 0.  0.
        -24    2    3    3    0    0  0.42222135546E+02  0.41858731595E+02  0.17967454472E+02  0.10048139457E+03  0.78986195588E+02 0.  0.
          6    2    1    2  501    0 -0.18892498166E+02  0.13553327300E+02  0.12159875088E+03  0.21519670116E+03  0.17601916034E+03 0.  0.
         24    2    5    5    0    0  0.58376139202E+02 -0.19516965135E+02  0.79756371652E+02  0.12119158821E+03  0.67361982426E+02 0.  0.
          5    1    5    5  501    0 -0.77268637368E+02  0.33070292436E+02  0.41842379229E+02  0.94005112957E+02  0.47000000000E+01 0. -1.
        -11    1    6    6    0    0  0.57868595294E+02 -0.17024809371E+02  0.23279063688E+02  0.64657043402E+02  0.00000000000E+00 0.  1.
         12    1    6    6    0    0  0.50754390831E+00 -0.24921557645E+01  0.56477307964E+02  0.56534544803E+02  0.00000000000E+00 0. -1.
         -5    1    3    3    0  503 -0.23329637381E+02 -0.55412058895E+02 -0.42155013493E+02  0.73579232219E+02  0.47000000000E+01 0.  1.
         11    1    4    4    0    0  0.44509577929E+02  0.30627882634E+02 -0.22422043715E+02  0.58497160328E+02  0.00000000000E+00 0. -1.
        -12    1    4    4    0    0 -0.22874423824E+01  0.11230848960E+02  0.40389498187E+02  0.41984234241E+02  0.00000000000E+00 0.  1.
</event>
<event>
12    1  0.8416569E-002  0.1811202E+03  0.7818608E-02  0.1166806E+00
         21   -1    0    0  503  502  0.00000000000E+00  0.00000000000E+00  0.30883405894E+03  0.30883405894E+03  0.00000000000E+00 0.  1.
         21   -1    0    0  501  503 -0.00000000000E+00 -0.00000000000E+00 -0.17322710383E+03  0.17322710383E+03  0.00000000000E+00 0.  1.
          6    2    1    2  501    0  0.57152730294E+02 -0.87779995628E+01 -0.82370204723E+02  0.19865583789E+03  0.17127697874E+03 0.  0.
         24    2    3    3    0    0  0.29593820429E+02 -0.59514935008E+02 -0.16393478407E+02  0.11085635870E+03  0.87192685664E+02 0.  0.
         -6    2    1    2    0  502 -0.57152730294E+02  0.87779995628E+01  0.21797715984E+03  0.28340532488E+03  0.17164220955E+03 0.  0.
        -24    2    5    5    0    0 -0.23084108437E+01  0.28976405171E+02  0.32612011366E+02  0.88987724763E+02  0.77526195934E+02 0.  0.
          5    1    3    3  501    0  0.27558909865E+02  0.50736935445E+02 -0.65976726315E+02  0.87799479194E+02  0.47000000000E+01 0. -1.
        -13    1    4    4    0    0  0.60034904903E+02 -0.45003860911E+02 -0.17768468509E+02  0.77105484738E+02  0.00000000000E+00 0.  1.
         14    1    4    4    0    0 -0.30441084474E+02 -0.14511074097E+02  0.13749901013E+01  0.33750873962E+02  0.00000000000E+00 0. -1.
         -5    1    5    5    0  502 -0.54844319450E+02 -0.20198405608E+02  0.18536514848E+03  0.19441760011E+03  0.47000000000E+01 0.  1.
         13    1    6    6    0    0  0.28401244738E+02  0.46097798190E+01  0.39820828589E+02  0.49128191114E+02  0.00000000000E+00 0. -1.
        -14    1    6    6    0    0 -0.30709655581E+02  0.24366625352E+02 -0.72088172232E+01  0.39859533649E+02  0.00000000000E+00 0.  1.
</event>
<event>
12    1  0.8416569E-002  0.1768737E+03  0.7818608E-02  0.1170971E+00
         21   -1    0    0  501  502  0.00000000000E+00  0.00000000000E+00  0.22286053431E+03  0.22286053431E+03  0.00000000000E+00 0. -1.
         21   -1    0    0  502  503 -0.00000000000E+00 -0.00000000000E+00 -0.38968314704E+03  0.38968314704E+03  0.00000000000E+00 0. -1.
         -6    2    1    2    0  503 -0.95122786204E+01 -0.39204146120E+02 -0.32851667264E+03  0.37289961392E+03  0.17176573973E+03 0.  0.
        -24    2    3    3    0    0  0.50544655988E+02  0.49787867515E+01 -0.23391547071E+03  0.25235732110E+03  0.79926338024E+02 0.  0.
          6    2    1    2  501    0  0.95122786204E+01  0.39204146120E+02  0.16169405991E+03  0.23964406744E+03  0.17221167652E+03 0.  0.
         24    2    5    5    0    0 -0.53373801107E+02  0.57159916925E+02  0.10358601815E+03  0.15203297655E+03  0.79170348339E+02 0.  0.
          5    1    5    5  501    0  0.62886079727E+02 -0.17955770804E+02  0.58108041760E+02  0.87611090883E+02  0.47000000000E+01 0. -1.
        -11    1    6    6    0    0 -0.40780406877E+02 -0.10451928332E+02  0.33093456824E+02  0.53548681361E+02  0.00000000000E+00 0.  1.
         12    1    6    6    0    0 -0.12593394230E+02  0.67611845257E+02  0.70492561325E+02  0.98484295192E+02  0.00000000000E+00 0. -1.
         -5    1    3    3    0  503 -0.60056934608E+02 -0.44182932872E+02 -0.94601201928E+02  0.12054229282E+03  0.47000000000E+01 0.  1.
         13    1    4    4    0    0  0.14648618245E+02  0.64605301322E+01 -0.20661627507E+03  0.20723562818E+03  0.00000000000E+00 0. -1.
        -14    1    4    4    0    0  0.35896037743E+02 -0.14817433806E+01 -0.27299195643E+02  0.45121692918E+02  0.00000000000E+00 0.  1.
</event>
<event>
12    1  0.8416569E-002  0.2053717E+03  0.7818608E-02  0.1145513E+00
         21   -1    0    0  501  502  0.00000000000E+00  0.00000000000E+00  0.92971456392E+02  0.92971456392E+02  0.00000000000E+00 0. -1.
         21   -1    0    0  502  503 -0.00000000000E+00 -0.00000000000E+00 -0.45135891099E+03  0.45135891099E+03  0.00000000000E+00 0.  1.
         -6    2    1    2    0  503  0.65030852612E+02 -0.89904916046E+02 -0.17442020645E+03  0.26944380449E+03  0.17281680947E+03 0.  0.
        -24    2    3    3    0    0 -0.20976483386E+02 -0.84299405927E+02 -0.82999657048E+02  0.14371198496E+03  0.78852957174E+02 0.  0.
          6    2    1    2  501    0 -0.65030852612E+02  0.89904916046E+02 -0.18396724815E+03  0.27488656289E+03  0.17148401776E+03 0.  0.
         24    2    5    5    0    0 -0.12242902878E+02  0.61375065759E+02 -0.18890949033E+03  0.21449587030E+03  0.80030590849E+02 0.  0.
          5    1    5    5  501    0 -0.52787949734E+02  0.28529850287E+02  0.49422421803E+01  0.60390692596E+02  0.47000000000E+01 0. -1.
        -11    1    6    6    0    0  0.30177339957E+02  0.10713826924E+02 -0.90166868544E+02  0.95684492565E+02  0.00000000000E+00 0.  1.
         12    1    6    6    0    0 -0.42420242835E+02  0.50661238835E+02 -0.98742621782E+02  0.11881137773E+03  0.00000000000E+00 0. -1.
         -5    1    3    3    0  503  0.86007335997E+02 -0.56055101186E+01 -0.91420549403E+02  0.12573181953E+03  0.47000000000E+01 0.  1.
         11    1    4    4    0    0 -0.30802224782E+02 -0.15180577466E+02 -0.61886658201E+02  0.70775599235E+02  0.00000000000E+00 0. -1.
        -12    1    4    4    0    0  0.98257413965E+01 -0.69118828462E+02 -0.21112998847E+02  0.72936385722E+02  0.00000000000E+00 0.  1.
</event>
<event>
12    1  0.8416569E-002  0.2255906E+03  0.7818608E-02  0.1130612E+00
         21   -1    0    0  503  502  0.00000000000E+00  0.00000000000E+00  0.11871158300E+04  0.11871158300E+04  0.00000000000E+00 0. -1.
         21   -1    0    0  501  503 -0.00000000000E+00 -0.00000000000E+00 -0.43736196893E+02  0.43736196893E+02  0.00000000000E+00 0. -1.
          6    2    1    2  501    0  0.19593518367E+02  0.13748569190E+03  0.68837356016E+03  0.72299217498E+03  0.17196890799E+03 0.  0.
         24    2    3    3    0    0  0.43096821183E+02  0.12407817951E+03  0.33402109772E+03  0.36757703142E+03  0.79309833453E+02 0.  0.
         -6    2    1    2    0  502 -0.19593518367E+02 -0.13748569190E+03  0.45500607291E+03  0.50785985187E+03  0.17777761760E+03 0.  0.
        -24    2    5    5    0    0  0.71781048358E+01 -0.14432351935E+03  0.45015902606E+03  0.47941587964E+03  0.79470960027E+02 0.  0.
          5    1    3    3  501    0 -0.23503302816E+02  0.13407512394E+02  0.35435246244E+03  0.35541514356E+03  0.47000000000E+01 0. -1.
        -11    1    4    4    0    0  0.42490373190E+02  0.45820477232E+02  0.78474084029E+02  0.10031515245E+03  0.00000000000E+00 0.  1.
         12    1    4    4    0    0  0.60644799351E+00  0.78257702278E+02  0.25554701369E+03  0.26726187897E+03  0.00000000000E+00 0. -1.
         -5    1    5    5    0  502 -0.26771623203E+02  0.68378274408E+01  0.48470468519E+01  0.28443972230E+02  0.47000000000E+01 0.  1.
         11    1    6    6    0    0  0.17630419932E+02 -0.12693510055E+03  0.27860177743E+03  0.30666317328E+03  0.00000000000E+00 0. -1.
        -12    1    6    6    0    0 -0.10452315096E+02 -0.17388418793E+02  0.17155724863E+03  0.17275270636E+03  0.00000000000E+00 0.  1.
</event>
<event>
12    1  0.8416569E-002  0.1970091E+03  0.7818608E-02  0.1152752E+00
         21   -1    0    0  503  502  0.00000000000E+00  0.00000000000E+00  0.76275503129E+02  0.76275503129E+02  0.00000000000E+00 0.  1.
         21   -1    0    0  501  503 -0.00000000000E+00 -0.00000000000E+00 -0.52488491463E+03  0.52488491463E+03  0.00000000000E+00 0. -1.
          6    2    1    2  501    0 -0.55393329612E+02 -0.71870717064E+02 -0.28406368594E+03  0.34447407895E+03  0.17244243230E+03 0.  0.
         24    2    3    3    0    0  0.14563488417E+02 -0.83118196331E+02 -0.21819609557E+03  0.24761804331E+03  0.81144497610E+02 0.  0.
         -6    2    1    2    0  502  0.55393329612E+02  0.71870717064E+02 -0.16454572556E+03  0.25668633881E+03  0.17486783523E+03 0.  0.
        -24    2    5    5    0    0 -0.36239646634E+02  0.14850476719E+02 -0.67964558638E+02  0.11177974149E+03  0.79634670396E+02 0.  0.
          5    1    3    3  501    0 -0.69956818029E+02  0.11247479266E+02 -0.65867590371E+02  0.96856035640E+02  0.47000000000E+01 0. -1.
        -13    1    4    4    0    0 -0.14183783485E+02 -0.86345574402E+02 -0.15220753473E+03  0.17556728500E+03  0.00000000000E+00 0.  1.
         14    1    4    4    0    0  0.28747271902E+02  0.32273780719E+01 -0.65988560841E+02  0.72050758309E+02  0.00000000000E+00 0. -1.
         -5    1    5    5    0  502  0.91632976247E+02  0.57020240346E+02 -0.96581166923E+02  0.14490659733E+03  0.47000000000E+01 0.  1.
         13    1    6    6    0    0 -0.15558723064E+02  0.45421523547E+02 -0.54149978084E+02  0.72369943977E+02  0.00000000000E+00 0. -1.
        -14    1    6    6    0    0 -0.20680923570E+02 -0.30571046828E+02 -0.13814580554E+02  0.39409797510E+02  0.00000000000E+00 0.  1.
</event>
<event>
12    1  0.8416569E-002  0.1957875E+03  0.7818608E-02  0.1153699E+00
         21   -1    0    0  503  502  0.00000000000E+00  0.00000000000E+00  0.32899872038E+03  0.32899872038E+03  0.00000000000E+00 0.  1.
         21   -1    0    0  501  503 -0.00000000000E+00 -0.00000000000E+00 -0.86132104319E+03  0.86132104319E+03  0.00000000000E+00 0. -1.
          6    2    1    2  501    0  0.61329111929E+01  0.93692552097E+02 -0.82011527705E+03  0.84316180149E+03  0.17180468247E+03 0.  0.
         24    2    3    3    0    0  0.37938164117E+02  0.36522331360E+02 -0.69235998913E+03  0.69955291651E+03  0.85080805508E+02 0.  0.
         -6    2    1    2    0  502 -0.61329111929E+01 -0.93692552097E+02  0.28779295424E+03  0.34715796208E+03  0.16993516177E+03 0.  0.
        -24    2    5    5    0    0  0.19532225345E+02 -0.10795926940E+03  0.13319857909E+03  0.18972940913E+03  0.78858579367E+02 0.  0.
          5    1    3    3  501    0 -0.31805252924E+02  0.57170220737E+02 -0.12775528792E+03  0.14360888498E+03  0.47000000000E+01 0. -1.
        -11    1    4    4    0    0  0.50947790360E+02 -0.23857456688E+00 -0.23119439259E+03  0.23674159209E+03  0.00000000000E+00 0.  1.
         12    1    4    4    0    0 -0.13009626244E+02  0.36760905927E+02 -0.46116559654E+03  0.46281132442E+03  0.00000000000E+00 0. -1.
         -5    1    5    5    0  502 -0.25665136538E+02  0.14266717302E+02  0.15459437515E+03  0.15742855295E+03  0.47000000000E+01 0.  1.
         11    1    6    6    0    0  0.45255542320E+02 -0.54927537352E+02  0.46935678469E+02  0.85252896628E+02  0.00000000000E+00 0. -1.
        -12    1    6    6    0    0 -0.25723316975E+02 -0.53031732048E+02  0.86262900622E+02  0.10447651250E+03  0.00000000000E+00 0.  1.
</event>
<event>
12    1  0.8416569E-002  0.2230729E+03  0.7818608E-02  0.1131993E+00
         21   -1    0    0  503  502  0.00000000000E+00  0.00000000000E+00  0.15760917140E+04  0.15760917140E+04  0.00000000000E+00 0.  1.
         21   -1    0    0  501  503 -0.00000000000E+00 -0.00000000000E+00 -0.31348973846E+02  0.31348973846E+02  0.00000000000E+00 0.  1.
          6    2    1    2  501    0 -0.10911539329E+03  0.90572126881E+02  0.80622573528E+03  0.83596879979E+03  0.16951229684E+03 0.  0.
         24    2    3    3    0    0 -0.45913437512E+02  0.11933288186E+03  0.51887901450E+03  0.54031377078E+03  0.79719249640E+02 0.  0.
         -6    2    1    2    0  502  0.10911539329E+03 -0.90572126881E+02  0.73851700485E+03  0.77147188803E+03  0.17219764325E+03 0.  0.
        -24    2    5    5    0    0  0.12875482611E+02 -0.32546358318E+02  0.23255064143E+03  0.25315426230E+03  0.93713585991E+02 0.  0.
          5    1    3    3  501    0 -0.63201955782E+02 -0.28760754980E+02  0.28734672077E+03  0.29565502901E+03  0.47000000000E+01 0. -1.
        -11    1    4    4    0    0 -0.12309811514E+02 -0.36679949511E+01  0.13929462723E+03  0.13988559190E+03  0.00000000000E+00 0.  1.
         12    1    4    4    0    0 -0.33603625999E+02  0.12300087681E+03  0.37958438727E+03  0.40042817887E+03  0.00000000000E+00 0. -1.
         -5    1    5    5    0  502  0.96239910683E+02 -0.58025768564E+02  0.50596636342E+03  0.51831762572E+03  0.47000000000E+01 0.  1.
         11    1    6    6    0    0  0.94031590876E+01 -0.94176089089E+01  0.22913156156E+03  0.22951771884E+03  0.00000000000E+00 0. -1.
        -12    1    6    6    0    0  0.34723235232E+01 -0.23128749409E+02  0.34190798761E+01  0.23636543467E+02  0.00000000000E+00 0.  1.
</event>
<event>
12    1  0.8416569E-002  0.1825559E+03  0.7818608E-02  0.1165503E+00
         21   -1    0    0  503  502  0.00000000000E+00  0.00000000000E+00  0.24571364568E+03  0.24571364568E+03  0.00000000000E+00 0. -1.
         21   -1    0    0  501  503 -0.00000000000E+00 -0.00000000000E+00 -0.14097953040E+03  0.14097953040E+03  0.00000000000E+00 0. -1.
          6    2    1    2  501    0  0.47198051012E+02 -0.33141544269E+02  0.13004028074E+02  0.18238690289E+03  0.17253944368E+03 0.  0.
         24    2    3    3    0    0  0.27042687862E+02  0.21239974911E+02  0.61533405178E+02  0.10661897608E+03  0.79992515937E+02 0.  0.
         -6    2    1    2    0  502 -0.47198051012E+02  0.33141544269E+02  0.91730087200E+02  0.20430627318E+03  0.17320688898E+03 0.  0.
        -24    2    5    5    0    0 -0.66201111873E+02  0.80304145361E+02  0.73273926569E+02  0.15000943047E+03  0.79387769454E+02 0.  0.
          5    1    3    3  501    0  0.20155363151E+02 -0.54381519179E+02 -0.48529377104E+02  0.75767926817E+02  0.47000000000E+01 0. -1.
        -11    1    4    4    0    0 -0.65819401315E+01  0.33422510761E+02 -0.15537769832E+01  0.34099859008E+02  0.00000000000E+00 0.  1.
         12    1    4    4    0    0  0.33624627993E+02 -0.12182535850E+02  0.63087182162E+02  0.72519117069E+02  0.00000000000E+00 0. -1.
         -5    1    5    5    0  502  0.19003060860E+02 -0.47162601093E+02  0.18456160630E+02  0.54296842717E+02  0.47000000000E+01 0.  1.
         11    1    6    6    0    0 -0.14050149197E+02  0.21498298861E+01  0.51686004260E+02  0.53604771218E+02  0.00000000000E+00 0. -1.
        -12    1    6    6    0    0 -0.52150962676E+02  0.78154315475E+02  0.21587922310E+02  0.96404659249E+02  0.00000000000E+00 0.  1.
</event>
<event>
12    1  0.8416569E-002  0.3158093E+03  0.7818608E-02  0.1077692E+00
         21   -1    0    0  503  502  0.00000000000E+00  0.00000000000E+00  0.10138084772E+03  0.10138084772E+03  0.00000000000E+00 0. -1.
         21   -1    0    0  501  503 -0.00000000000E+00 -0.00000000000E+00 -0.10514833328E+04  0.10514833328E+04  0.00000000000E+00 0. -1.
          6    2    1    2  501    0  0.24350439440E+03 -0.10228840099E+03 -0.62352071095E+03  0.69856121803E+03  0.17161699008E+03 0.  0.
         24    2    3    3    0    0  0.13640897972E+03 -0.37021358344E+02 -0.48598612505E+03  0.51237027566E+03  0.79767129327E+02 0.  0.
         -6    2    1    2    0  502 -0.24350439440E+03  0.10228840099E+03 -0.32658177415E+03  0.45430296251E+03  0.17314219437E+03 0.  0.
        -24    2    5    5    0    0 -0.24150736467E+03  0.71436068179E+02 -0.33008098932E+03  0.42283569262E+03  0.80047763353E+02 0.  0.
          5    1    3    3  501    0  0.10709541468E+03 -0.65267042644E+02 -0.13753458591E+03  0.18619094237E+03  0.47000000000E+01 0. -1.
        -11    1    4    4    0    0  0.12880777703E+03 -0.56653601582E+02 -0.40759685997E+03  0.43120328646E+03  0.00000000000E+00 0.  1.
         12    1    4    4    0    0  0.76012026921E+01  0.19632243239E+02 -0.78389265074E+02  0.81166989200E+02  0.00000000000E+00 0. -1.
         -5    1    5    5    0  502 -0.19970297285E+01  0.30852332809E+02  0.34992151694E+01  0.31467269889E+02  0.47000000000E+01 0.  1.
         13    1    6    6    0    0 -0.21947169561E+03  0.68179884391E+02 -0.24942116602E+03  0.33915665978E+03  0.00000000000E+00 0. -1.
        -14    1    6    6    0    0 -0.22035669058E+02  0.32561837879E+01 -0.80659823297E+02  0.83679032846E+02  0.00000000000E+00 0.  1.
</event>
<event>
12    1  0.8416569E-002  0.2213255E+03  0.7818608E-02  0.1132937E+00
         21   -1    0    0  503  502  0.00000000000E+00  0.00000000000E+00  0.44999319703E+03  0.44999319703E+03  0.00000000000E+00 0. -1.
         21   -1    0    0  501  503 -0.00000000000E+00 -0.00000000000E+00 -0.21068062323E+03  0.21068062323E+03  0.00000000000E+00 0.  1.
          6    2    1    2  501    0 -0.11541956610E+03 -0.76676229364E+02 -0.11008159396E+03  0.24719009900E+03  0.17258061110E+03 0.  0.
         24    2    3    3    0    0 -0.14348540261E+03 -0.42448283083E+02 -0.11156174441E+03  0.20265332397E+03  0.78945737058E+02 0.  0.
         -6    2    1    2    0  502  0.11541956610E+03  0.76676229364E+02  0.34939416776E+03  0.41348372126E+03  0.17231245715E+03 0.  0.
        -24    2    5    5    0    0  0.86280100028E+02 -0.20542530003E+02  0.18028148700E+03  0.21619767398E+03  0.79835884657E+02 0.  0.
          5    1    3    3  501    0  0.28065836505E+02 -0.34227946280E+02  0.14801504542E+01  0.44536775036E+02  0.47000000000E+01 0. -1.
        -13    1    4    4    0    0 -0.40187339773E+02 -0.50628215595E+02 -0.32725455060E+02  0.72451320907E+02  0.00000000000E+00 0.  1.
         14    1    4    4    0    0 -0.10329806284E+03  0.81799325115E+01 -0.78836289354E+02  0.13020200306E+03  0.00000000000E+00 0. -1.
         -5    1    5    5    0  502  0.29139466077E+02  0.97218759366E+02  0.16911268076E+03  0.19728604728E+03  0.47000000000E+01 0.  1.
         13    1    6    6    0    0  0.66290391156E+01  0.26155545582E+02  0.42360225644E+02  0.50223952861E+02  0.00000000000E+00 0. -1.
        -14    1    6    6    0    0  0.79651060912E+02 -0.46698075585E+02  0.13792126135E+03  0.16597372112E+03  0.00000000000E+00 0.  1.
</event>
<event>
12    1  0.8416569E-002  0.3100025E+03  0.7818608E-02  0.1080465E+00
         21   -1    0    0  503  502  0.00000000000E+00  0.00000000000E+00  0.34900262527E+03  0.34900262527E+03  0.00000000000E+00 0.  1.
         21   -1    0    0  501  503 -0.00000000000E+00 -0.00000000000E+00 -0.40486705786E+03  0.40486705786E+03  0.00000000000E+00 0.  1.
          6    2    1    2  501    0  0.63767056183E+02 -0.25022031202E+03  0.18601219069E+03  0.36067015927E+03  0.16972326505E+03 0.  0.
         24    2    3    3    0    0  0.18907564661E+02 -0.13393584357E+03  0.28292204404E+02  0.15959272230E+03  0.79831585155E+02 0.  0.
         -6    2    1    2    0  502 -0.63767056183E+02  0.25022031202E+03 -0.24187662328E+03  0.39319952385E+03  0.17153752553E+03 0.  0.
        -24    2    5    5    0    0 -0.67628919637E+02  0.80173141814E+02 -0.63891103761E+02  0.14696408927E+03  0.80715345226E+02 0.  0.
          5    1    3    3  501    0  0.44859491522E+02 -0.11628446846E+03  0.15771998629E+03  0.20107743697E+03  0.47000000000E+01 0. -1.
        -13    1    4    4    0    0  0.44193112502E+02 -0.10610347880E+03  0.37457739877E+02  0.12088863339E+03  0.00000000000E+00 0.  1.
         14    1    4    4    0    0 -0.25285547840E+02 -0.27832364767E+02 -0.91655354725E+01  0.38704088913E+02  0.00000000000E+00 0. -1.
         -5    1    5    5    0  502  0.38618634542E+01  0.17004717021E+03 -0.17798551952E+03  0.24623543458E+03  0.47000000000E+01 0.  1.
         13    1    6    6    0    0 -0.37531608585E+02  0.23318641082E+02  0.13618314439E+02  0.46236772736E+02  0.00000000000E+00 0. -1.
        -14    1    6    6    0    0 -0.30097311052E+02  0.56854500732E+02 -0.77509418200E+02  0.10072731653E+03  0.00000000000E+00 0.  1.
</event>
<event>
12    1  0.8416569E-002  0.2072772E+03  0.7818608E-02  0.1143743E+00
         21   -1    0    0  503  502  0.00000000000E+00  0.00000000000E+00  0.33419453860E+03  0.33419453860E+03  0.00000000000E+00 0. -1.
         21   -1    0    0  501  503 -0.00000000000E+00 -0.00000000000E+00 -0.21876682323E+03  0.21876682323E+03  0.00000000000E+00 0.  1.
          6    2    1    2  501    0  0.18930965285E+02 -0.11393348076E+03 -0.11983375742E+03  0.23941420671E+03  0.17210407744E+03 0.  0.
         24    2    3    3    0    0  0.35967948489E+02 -0.78640938790E+02 -0.53133478166E+01  0.11828272223E+03  0.80526269883E+02 0.  0.
         -6    2    1    2    0  502 -0.18930965285E+02  0.11393348076E+03  0.23526147279E+03  0.31354715512E+03  0.17211809440E+03 0.  0.
        -24    2    5    5    0    0  0.19217051866E+02  0.90460114468E+02  0.23906447392E+03  0.26834955612E+03  0.79418726954E+02 0.  0.
          5    1    3    3  501    0 -0.17036983204E+02 -0.35292541970E+02 -0.11452040961E+03  0.12113148448E+03  0.47000000000E+01 0. -1.
        -13    1    4    4    0    0  0.57685959748E+02 -0.73387088914E+02 -0.13841930185E+02  0.94365956799E+02  0.00000000000E+00 0.  1.
         14    1    4    4    0    0 -0.21718011259E+02 -0.52538498761E+01  0.85285823681E+01  0.23916765433E+02  0.00000000000E+00 0. -1.
         -5    1    5    5    0  502 -0.38148017151E+02  0.23473366292E+02 -0.38030011264E+01  0.45197598998E+02  0.47000000000E+01 0.  1.
         13    1    6    6    0    0  0.17127420221E+02  0.67885788971E+02  0.74517503387E+02  0.10224816467E+03  0.00000000000E+00 0. -1.
        -14    1    6    6    0    0  0.20896316446E+01  0.22574325498E+02  0.16454697053E+03  0.16610139145E+03  0.00000000000E+00 0.  1.
</event>
<event>
12    1  0.8416569E-002  0.2082267E+03  0.7818608E-02  0.1143342E+00
         21   -1    0    0  501  502  0.00000000000E+00  0.00000000000E+00  0.96568294206E+03  0.96568294206E+03  0.00000000000E+00 0. -1.
         21   -1    0    0  502  503 -0.00000000000E+00 -0.00000000000E+00 -0.50920587623E+02  0.50920587623E+02  0.00000000000E+00 0.  1.
         -6    2    1    2    0  503 -0.32318259650E+02 -0.11207910376E+03  0.27528409141E+03  0.34407783661E+03  0.17029982753E+03 0.  0.
        -24    2    3    3    0    0 -0.79562414299E+02 -0.45209810182E+02  0.18828364853E+03  0.22451747682E+03  0.81137293444E+02 0.  0.
          6    2    1    2  501    0  0.32318259650E+02  0.11207910376E+03  0.63947826303E+03  0.67252569308E+03  0.17248815483E+03 0.  0.
         24    2    5    5    0    0 -0.34674359913E+02  0.97357837086E+02  0.50588286639E+03  0.52227740932E+03  0.78583446756E+02 0.  0.
          5    1    5    5  501    0  0.66992619562E+02  0.14721266670E+02  0.13359539664E+03  0.15024828376E+03  0.47000000000E+01 0. -1.
        -13    1    6    6    0    0 -0.26551952267E+02  0.49880697960E+01  0.47824629340E+02  0.54927972664E+02  0.00000000000E+00 0.  1.
         14    1    6    6    0    0 -0.81224076452E+01  0.92369767290E+02  0.45805823705E+03  0.46734943666E+03  0.00000000000E+00 0. -1.
         -5    1    3    3    0  503  0.47244154649E+02 -0.66869293575E+02  0.87000442882E+02  0.11956035979E+03  0.47000000000E+01 0.  1.
         13    1    4    4    0    0 -0.68058578139E+02 -0.62022996088E+02  0.10914439291E+03  0.14279818138E+03  0.00000000000E+00 0. -1.
        -14    1    4    4    0    0 -0.11503836160E+02  0.16813185906E+02  0.79139255620E+02  0.81719295438E+02  0.00000000000E+00 0.  1.
</event>
<event>
12    1  0.8416569E-002  0.2284935E+03  0.7818608E-02  0.1128650E+00
         21   -1    0    0  501  502  0.00000000000E+00  0.00000000000E+00  0.13208682064E+04  0.13208682064E+04  0.00000000000E+00 0. -1.
         21   -1    0    0  502  503 -0.00000000000E+00 -0.00000000000E+00 -0.39602007476E+02  0.39602007476E+02  0.00000000000E+00 0. -1.
         -6    2    1    2    0  503 -0.10057566753E+03 -0.11243873902E+03  0.75495330824E+03  0.78877357752E+03  0.17161388068E+03 0.  0.
        -24    2    3    3    0    0 -0.13842177899E+03 -0.94102357581E+02  0.63330193248E+03  0.65997257496E+03  0.80477446618E+02 0.  0.
          6    2    1    2  501    0  0.10057566753E+03  0.11243873902E+03  0.52631289067E+03  0.57169663634E+03  0.16454133276E+03 0.  0.
         24    2    5    5    0    0  0.73083914399E+02  0.99643075416E+02  0.22390896866E+03  0.26773981779E+03  0.79242556499E+02 0.  0.
          5    1    5    5  501    0  0.27491753130E+02  0.12795663604E+02  0.30240392201E+03  0.30395681855E+03  0.47000000000E+01 0. -1.
        -13    1    6    6    0    0 -0.25043929204E+01 -0.47639073642E+01  0.55022000395E+02  0.55284602963E+02  0.00000000000E+00 0.  1.
         14    1    6    6    0    0  0.75588307320E+02  0.10440698278E+03  0.16888696827E+03  0.21245521483E+03  0.00000000000E+00 0. -1.
         -5    1    3    3    0  503  0.37846111458E+02 -0.18336381439E+02  0.12165137576E+03  0.12880100256E+03  0.47000000000E+01 0.  1.
         11    1    4    4    0    0 -0.26067622950E+02 -0.45355487480E+00  0.22026178099E+03  0.22179941128E+03  0.00000000000E+00 0. -1.
        -12    1    4    4    0    0 -0.11235415604E+03 -0.93648802706E+02  0.41304015150E+03  0.43817316369E+03  0.00000000000E+00 0.  1.
</event>
<event>
12    1  0.8416569E-002  0.2134141E+03  0.7818608E-02  0.1139196E+00
         21   -1    0    0  503  502  0.00000000000E+00  0.00000000000E+00  0.15504473090E+04  0.15504473090E+04  0.00000000000E+00 0.  1.
         21   -1    0    0  501  503 -0.00000000000E+00 -0.00000000000E+00 -0.54945167798E+02  0.54945167798E+02  0.00000000000E+00 0. -1.
          6    2    1    2  501    0  0.10922682713E+03 -0.62662016633E+02  0.19933365038E+03  0.29202647953E+03  0.17230360553E+03 0.  0.
         24    2    3    3    0    0  0.12903700662E+03 -0.10994105103E+02  0.16816852786E+03  0.22834468343E+03  0.84197513399E+02 0.  0.
         -6    2    1    2    0  502 -0.10922682713E+03  0.62662016633E+02  0.12961684909E+04  0.13133659973E+04  0.17035392009E+03 0.  0.
        -24    2    5    5    0    0 -0.19785090873E+02 -0.21752878409E+02  0.48456792775E+03  0.49248643078E+03  0.82898554660E+02 0.  0.
          5    1    3    3  501    0 -0.19810179491E+02 -0.51667911530E+02  0.31165122520E+02  0.63681796104E+02  0.47000000000E+01 0. -1.
        -13    1    4    4    0    0  0.96589844662E+02 -0.11190196569E+02  0.17000153579E+03  0.19584519591E+03  0.00000000000E+00 0.  1.
         14    1    4    4    0    0  0.32447161956E+02  0.19609146636E+00 -0.18330079252E+01  0.32499487518E+02  0.00000000000E+00 0. -1.
         -5    1    5    5    0  502 -0.89441736254E+02  0.84414895042E+02  0.81160056311E+03  0.82087956652E+03  0.47000000000E+01 0.  1.
         13    1    6    6    0    0  0.31115743052E+02 -0.17888322532E+02  0.16417839001E+03  0.16805572081E+03  0.00000000000E+00 0. -1.
        -14    1    6    6    0    0 -0.50900833925E+02 -0.38645558768E+01  0.32038953774E+03  0.32443070998E+03  0.00000000000E+00 0.  1.
</event>
<event>
12    1  0.8416569E-002  0.3230372E+03  0.7818608E-02  0.1074702E+00
         21   -1    0    0  503  502  0.00000000000E+00  0.00000000000E+00  0.39428319655E+03  0.39428319655E+03  0.00000000000E+00 0.  1.
         21   -1    0    0  501  503 -0.00000000000E+00 -0.00000000000E+00 -0.30254478014E+03  0.30254478014E+03  0.00000000000E+00 0.  1.
          6    2    1    2  501    0  0.21332089196E+03  0.16322791075E+03 -0.82211886513E+02  0.33333441880E+03  0.17945441394E+03 0.  0.
         24    2    3    3    0    0  0.13810193270E+03  0.18334855374E+03 -0.77713216999E+02  0.25519953457E+03  0.79991389401E+02 0.  0.
         -6    2    1    2    0  502 -0.21332089196E+03 -0.16322791075E+03  0.17395030292E+03  0.36349355788E+03  0.17239403975E+03 0.  0.
        -24    2    5    5    0    0 -0.13380234983E+03 -0.94896120213E+02  0.18285484404E+03  0.25816638668E+03  0.79408102705E+02 0.  0.
          5    1    3    3  501    0  0.75218959259E+02 -0.20120642985E+02 -0.44986695135E+01  0.78134884229E+02  0.47000000000E+01 0. -1.
        -11    1    4    4    0    0  0.72602447708E+02  0.34487370326E+02 -0.22874180359E+02  0.83568667886E+02  0.00000000000E+00 0.  1.
         12    1    4    4    0    0  0.65499484989E+02  0.14886118341E+03 -0.54839036640E+02  0.17163086669E+03  0.00000000000E+00 0. -1.
         -5    1    5    5    0  502 -0.79518542130E+02 -0.68331790540E+02 -0.89045411111E+01  0.10532717120E+03  0.47000000000E+01 0.  1.
         13    1    6    6    0    0 -0.41078140801E+02 -0.21235690721E+00  0.13748863869E+02  0.43318471866E+02  0.00000000000E+00 0. -1.
        -14    1    6    6    0    0 -0.92724209025E+02 -0.94683763306E+02  0.16910598017E+03  0.21484791482E+03  0.00000000000E+00 0.  1.
</event>
<event>
12    1  0.8416569E-002  0.2636749E+03  0.7818608E-02  0.1105307E+00
         21   -1    0    0  503  502  0.00000000000E+00  0.00000000000E+00  0.59277283183E+03  0.59277283183E+03  0.00000000000E+00 0. -1.
         21   -1    0    0  501  503 -0.00000000000E+00 -0.00000000000E+00 -0.23758247991E+03  0.23758247991E+03  0.00000000000E+00 0. -1.
          6    2    1    2  501    0  0.17014081788E+03  0.96870906888E+02 -0.11951640039E+03  0.28733507904E+03  0.17304741307E+03 0.  0.
         24    2    3    3    0    0  0.56367824301E+02 -0.10643670117E+01 -0.10452805495E+03  0.13639683855E+03  0.67078452583E+02 0.  0.
         -6    2    1    2    0  502 -0.17014081788E+03 -0.96870906888E+02  0.47470675231E+03  0.54302023270E+03  0.17661427442E+03 0.  0.
        -24    2    5    5    0    0 -0.10092700524E+03 -0.64903703535E+01  0.35686762116E+03  0.37910762162E+03  0.78356266116E+02 0.  0.
          5    1    3    3  501    0  0.11377299358E+03  0.97935273900E+02 -0.14988345440E+02  0.15093824048E+03  0.47000000000E+01 0. -1.
        -13    1    4    4    0    0  0.52801065094E+02 -0.84915709193E-01 -0.27974409999E+02  0.59753889418E+02  0.00000000000E+00 0.  1.
         14    1    4    4    0    0  0.35667592072E+01 -0.97945130252E+00 -0.76553644955E+02  0.76642949135E+02  0.00000000000E+00 0. -1.
         -5    1    5    5    0  502 -0.69213812633E+02 -0.90380536535E+02  0.11783913115E+03  0.16391261109E+03  0.47000000000E+01 0.  1.
         11    1    6    6    0    0 -0.62571895117E+02 -0.37099917064E+02  0.15293395724E+03  0.16935300760E+03  0.00000000000E+00 0. -1.
        -12    1    6    6    0    0 -0.38355110127E+02  0.30609546710E+02  0.20393366392E+03  0.20975461402E+03  0.00000000000E+00 0.  1.
</event>
<event>
12    1  0.8416569E-002  0.1749391E+03  0.7818608E-02  0.1173045E+00
         21   -1    0    0  503  502  0.00000000000E+00  0.00000000000E+00  0.63723850868E+03  0.63723850868E+03  0.00000000000E+00 0.  1.
         21   -1    0    0  501  503 -0.00000000000E+00 -0.00000000000E+00 -0.57595714930E+02  0.57595714930E+02  0.00000000000E+00 0.  1.
          6    2    1    2  501    0 -0.14627155854E+02  0.13636932562E+02  0.43414586863E+03  0.46806658645E+03  0.17379233150E+03 0.  0.
         24    2    3    3    0    0 -0.62651150922E+02 -0.35943462743E+02  0.27293297117E+03  0.29263509553E+03  0.76979173530E+02 0.  0.
         -6    2    1    2    0  502  0.14627155854E+02 -0.13636932562E+02  0.14549692513E+03  0.22676763716E+03  0.17278392988E+03 0.  0.
        -24    2    5    5    0    0  0.69669310710E+00  0.30939995244E+02  0.15697979399E+03  0.17844469683E+03  0.79006869431E+02 0.  0.
          5    1    3    3  501    0  0.48023995068E+02  0.49580395304E+02  0.16121289746E+03  0.17543149092E+03  0.47000000000E+01 0. -1.
        -13    1    4    4    0    0 -0.91380283334E+00 -0.37777712394E+02  0.15461566003E+03  0.15916655715E+03  0.00000000000E+00 0.  1.
         14    1    4    4    0    0 -0.61737348088E+02  0.18342496508E+01  0.11831731114E+03  0.13346853838E+03  0.00000000000E+00 0. -1.
         -5    1    5    5    0  502  0.13930462747E+02 -0.44576927805E+02 -0.11482868868E+02  0.48322940332E+02  0.47000000000E+01 0.  1.
         13    1    6    6    0    0 -0.25558816710E+02  0.15202348546E+02  0.14063230688E+03  0.14374216588E+03  0.00000000000E+00 0. -1.
        -14    1    6    6    0    0  0.26255509817E+02  0.15737646697E+02  0.16347487110E+02  0.34702530947E+02  0.00000000000E+00 0.  1.
</event>
<event>
12    1  0.8416569E-002  0.2099039E+03  0.7818608E-02  0.1141758E+00
         21   -1    0    0  501  502  0.00000000000E+00  0.00000000000E+00  0.13034925526E+04  0.13034925526E+04  0.00000000000E+00 0.  1.
         21   -1    0    0  502  503 -0.00000000000E+00 -0.00000000000E+00 -0.28812184152E+03  0.28812184152E+03  0.00000000000E+00 0.  1.
         -6    2    1    2    0  503 -0.83855472753E+02 -0.84224962866E+02 -0.24020714682E+03  0.31861188178E+03  0.17230343335E+03 0.  0.
        -24    2    3    3    0    0 -0.85666708351E+02 -0.11876161454E+02 -0.90981450766E+02  0.15269615617E+03  0.86940575082E+02 0.  0.
          6    2    1    2  501    0  0.83855472753E+02  0.84224962866E+02  0.12555778579E+04  0.12730025123E+04  0.17301460779E+03 0.  0.
         24    2    5    5    0    0  0.11481907727E+03  0.78951442857E+02  0.11614933248E+04  0.11737022395E+04  0.95359596386E+02 0.  0.
          5    1    5    5  501    0 -0.30963604516E+02  0.52735200097E+01  0.94084533067E+02  0.99300272811E+02  0.47000000000E+01 0. -1.
        -13    1    6    6    0    0  0.26782231979E+02  0.15072243946E+02  0.65218185867E+03  0.65290553472E+03  0.00000000000E+00 0.  1.
         14    1    6    6    0    0  0.88036845290E+02  0.63879198911E+02  0.50931146613E+03  0.52079670478E+03  0.00000000000E+00 0. -1.
         -5    1    3    3    0  503  0.18112355974E+01 -0.72348801413E+02 -0.14922569605E+03  0.16591572560E+03  0.47000000000E+01 0.  1.
         13    1    4    4    0    0 -0.69956030843E+00  0.15367427540E+02  0.96841895229E+01  0.18177754001E+02  0.00000000000E+00 0. -1.
        -14    1    4    4    0    0 -0.84967148042E+02 -0.27243588994E+02 -0.10066564029E+03  0.13451840217E+03  0.00000000000E+00 0.  1.
</event>
<event>
12    1  0.8416569E-002  0.1964968E+03  0.7818608E-02  0.1152971E+00
         21   -1    0    0  503  502  0.00000000000E+00  0.00000000000E+00  0.62150871836E+02  0.62150871836E+02  0.00000000000E+00 0.  1.
         21   -1    0    0  501  503 -0.00000000000E+00 -0.00000000000E+00 -0.91527218172E+03  0.91527218172E+03  0.00000000000E+00 0.  1.
          6    2    1    2  501    0 -0.69758411351E+02 -0.60692092193E+02 -0.70603284504E+03  0.73286653889E+03  0.17338171625E+03 0.  0.
         24    2    3    3    0    0 -0.25026001438E+01 -0.64725670800E+02 -0.59047356798E+03  0.59901718172E+03  0.77245543876E+02 0.  0.
         -6    2    1    2    0  502  0.69758411351E+02  0.60692092193E+02 -0.14708846484E+03  0.24455651467E+03  0.17211364376E+03 0.  0.
        -24    2    5    5    0    0  0.10007956904E+03  0.70310638206E+02 -0.15317110478E+03  0.21183072148E+03  0.80320366281E+02 0.  0.
          5    1    3    3  501    0 -0.67255811207E+02  0.40335786072E+01 -0.11555927706E+03  0.13384935716E+03  0.47000000000E+01 0. -1.
        -11    1    4    4    0    0 -0.13964298228E+02 -0.77467163367E+02 -0.54014798052E+03  0.54585346375E+03  0.00000000000E+00 0.  1.
         12    1    4    4    0    0  0.11461698084E+02  0.12741492567E+02 -0.50325587456E+02  0.53163717972E+02  0.00000000000E+00 0. -1.
         -5    1    5    5    0  502 -0.30321157688E+02 -0.96185460131E+01  0.60826399430E+01  0.32725793186E+02  0.47000000000E+01 0.  1.
         11    1    6    6    0    0  0.25263634961E+02 -0.12195413082E+02 -0.86179000324E+01  0.29347019485E+02  0.00000000000E+00 0. -1.
        -12    1    6    6    0    0  0.74815934078E+02  0.82506051288E+02 -0.14455320475E+03  0.18248370200E+03  0.00000000000E+00 0.  1.
</event>
<event>
12    1  0.8416569E-002  0.2502159E+03  0.7818608E-02  0.1113927E+00
         21   -1    0    0  503  502  0.00000000000E+00  0.00000000000E+00  0.60624884498E+02  0.60624884498E+02  0.00000000000E+00 0.  1.
         21   -1    0    0  501  503 -0.00000000000E+00 -0.00000000000E+00 -0.10161850379E+04  0.10161850379E+04  0.00000000000E+00 0.  1.
          6    2    1    2  501    0 -0.15704801774E+03 -0.78253789126E+02 -0.51171617843E+03  0.56961516980E+03  0.17838233938E+03 0.  0.
         24    2    3    3    0    0 -0.15103192686E+03 -0.91865022253E+02 -0.51770269791E+03  0.55290028325E+03  0.80204828736E+02 0.  0.
         -6    2    1    2    0  502  0.15704801774E+03  0.78253789126E+02 -0.44384397499E+03  0.50719475262E+03  0.17164296538E+03 0.  0.
        -24    2    5    5    0    0  0.32306222485E+02  0.84928581660E+02 -0.22659317049E+03  0.25654545501E+03  0.78832414520E+02 0.  0.
          5    1    3    3  501    0 -0.60160908800E+01  0.13611233128E+02  0.59865194759E+01  0.16714886544E+02  0.47000000000E+01 0. -1.
        -11    1    4    4    0    0 -0.10198089525E+03 -0.96792011778E+02 -0.42855079569E+03  0.45102614229E+03  0.00000000000E+00 0.  1.
         12    1    4    4    0    0 -0.49051031611E+02  0.49269895249E+01 -0.89151902216E+02  0.10187414096E+03  0.00000000000E+00 0. -1.
         -5    1    5    5    0  502  0.12474179526E+03 -0.66747925343E+01 -0.21725080450E+03  0.25064929761E+03  0.47000000000E+01 0.  1.
         11    1    6    6    0    0 -0.77625262933E+01 -0.39584538608E+01 -0.80096551611E+02  0.80569124057E+02  0.00000000000E+00 0. -1.
        -12    1    6    6    0    0  0.40068748778E+02  0.88887035521E+02 -0.14649661888E+03  0.17597633096E+03  0.00000000000E+00 0.  1.
</event>
<event>
12    1  0.8416569E-002  0.1745053E+03  0.7818608E-02  0.1173365E+00
         21   -1    0    0  503  502  0.00000000000E+00  0.00000000000E+00  0.35882215250E+03  0.35882215250E+03  0.00000000000E+00 0. -1.
         21   -1    0    0  501  503 -0.00000000000E+00 -0.00000000000E+00 -0.90884761668E+02  0.90884761668E+02  0.00000000000E+00 0. -1.
          6    2    1    2  501    0  0.13315831899E+02 -0.22048834621E+02  0.75057490938E+02  0.18996242709E+03  0.17259384193E+03 0.  0.
         24    2    3    3    0    0 -0.15595444828E+01 -0.71318123374E+02  0.10341873106E+02  0.10714370440E+03  0.79272392115E+02 0.  0.
         -6    2    1    2    0  502 -0.13315831899E+02  0.22048834621E+02  0.19287989989E+03  0.25974448708E+03  0.17204964487E+03 0.  0.
        -24    2    5    5    0    0 -0.94459389950E+01 -0.35554589596E+02  0.18009005937E+03  0.20042500821E+03  0.79902439430E+02 0.  0.
          5    1    3    3  501    0  0.14875376382E+02  0.49269288754E+02  0.64715617832E+02  0.82818722691E+02  0.47000000000E+01 0. -1.
        -13    1    4    4    0    0 -0.98193372064E+01 -0.30718663850E+02 -0.33722103569E+02  0.46660861126E+02  0.00000000000E+00 0.  1.
         14    1    4    4    0    0  0.82597927236E+01 -0.40599459524E+02  0.44063976675E+02  0.60482843269E+02  0.00000000000E+00 0. -1.
         -5    1    5    5    0  502 -0.38698929038E+01  0.57603424217E+02  0.12789840518E+02  0.59319478867E+02  0.47000000000E+01 0.  1.
         13    1    6    6    0    0 -0.29276233371E+02  0.11048304245E+02  0.10715015298E+03  0.11162579519E+03  0.00000000000E+00 0. -1.
        -14    1    6    6    0    0  0.19830294376E+02 -0.46602893841E+02  0.72939906388E+02  0.88799213022E+02  0.00000000000E+00 0.  1.
</event>
<event>
12    1  0.8416569E-002  0.2251750E+03  0.7818608E-02  0.1130127E+00
         21   -1    0    0  503  502  0.00000000000E+00  0.00000000000E+00  0.14723207045E+04  0.14723207045E+04  0.00000000000E+00 0. -1.
         21   -1    0    0  501  503 -0.00000000000E+00 -0.00000000000E+00 -0.65478611931E+02  0.65478611931E+02  0.00000000000E+00 0.  1.
          6    2    1    2  501    0  0.81652577067E+02  0.11955492835E+03  0.17350157907E+03  0.28407182739E+03  0.17214377986E+03 0.  0.
         24    2    3    3    0    0  0.19199462307E+01  0.11725874862E+03  0.82199921776E+02  0.16274315195E+03  0.77299456948E+02 0.  0.
         -6    2    1    2    0  502 -0.81652577067E+02 -0.11955492835E+03  0.12333405135E+04  0.12537274891E+04  0.17246237356E+03 0.  0.
        -24    2    5    5    0    0 -0.93458626541E+02 -0.19500474180E+02  0.63649706268E+03  0.64842221780E+03  0.78791359718E+02 0.  0.
          5    1    3    3  501    0  0.79732630836E+02  0.22961797282E+01  0.91301657291E+02  0.12132867545E+03  0.47000000000E+01 0. -1.
        -11    1    4    4    0    0  0.21845195572E+02  0.57785521499E+02  0.31836827784E+01  0.61858830416E+02  0.00000000000E+00 0.  1.
         12    1    4    4    0    0 -0.19925249341E+02  0.59473227120E+02  0.79016238998E+02  0.10088432153E+03  0.00000000000E+00 0. -1.
         -5    1    5    5    0  502  0.11806049474E+02 -0.10005445417E+03  0.59684345086E+03  0.60530527128E+03  0.47000000000E+01 0.  1.
         11    1    6    6    0    0 -0.37937312741E+02 -0.38628608571E+02  0.44055697301E+03  0.44387144036E+03  0.00000000000E+00 0. -1.
        -12    1    6    6    0    0 -0.55521313800E+02  0.19128134391E+02  0.19594008966E+03  0.20455077743E+03  0.00000000000E+00 0.  1.
</event>
<event>
12    1  0.8416569E-002  0.2439949E+03  0.7818608E-02  0.1117183E+00
         21   -1    0    0  503  502  0.00000000000E+00  0.00000000000E+00  0.40143695334E+03  0.40143695334E+03  0.00000000000E+00 0. -1.
         21   -1    0    0  501  503 -0.00000000000E+00 -0.00000000000E+00 -0.41844512184E+03  0.41844512184E+03  0.00000000000E+00 0. -1.
          6    2    1    2  501    0 -0.31468271667E+02 -0.16931289008E+03 -0.33793802171E+03  0.41673263117E+03  0.17264666952E+03 0.  0.
         24    2    3    3    0    0 -0.19247336836E+02 -0.15216610905E+03 -0.35096649462E+03  0.39152956678E+03  0.81196900214E+02 0.  0.
         -6    2    1    2    0  502  0.31468271667E+02  0.16931289008E+03  0.32092985320E+03  0.40314944401E+03  0.17284790036E+03 0.  0.
        -24    2    5    5    0    0 -0.65513199428E+01  0.86591561558E+02  0.27923629041E+03  0.30290598678E+03  0.78981723334E+02 0.  0.
          5    1    3    3  501    0 -0.12220934830E+02 -0.17146781035E+02  0.13028472912E+02  0.25203064385E+02  0.47000000000E+01 0. -1.
        -11    1    4    4    0    0 -0.24742931802E+02 -0.65180370316E+02 -0.76253021899E+02  0.10332094027E+03  0.00000000000E+00 0.  1.
         12    1    4    4    0    0  0.54955949658E+01 -0.86985738732E+02 -0.27471347272E+03  0.28820862652E+03  0.00000000000E+00 0. -1.
         -5    1    5    5    0  502  0.38019591609E+02  0.82721328524E+02  0.41693562797E+02  0.10024345723E+03  0.47000000000E+01 0.  1.
         11    1    6    6    0    0 -0.27890970227E+02  0.91125577067E+02  0.21880877038E+03  0.23866096248E+03  0.00000000000E+00 0. -1.
        -12    1    6    6    0    0  0.21339650284E+02 -0.45340155089E+01  0.60427520024E+02  0.64245024298E+02  0.00000000000E+00 0.  1.
</event>
<event>
12    1  0.8416569E-002  0.2350485E+03  0.7818608E-02  0.1124496E+00
         21   -1    0    0  501  502  0.00000000000E+00  0.00000000000E+00  0.19100854044E+03  0.19100854044E+03  0.00000000000E+00 0. -1.
         21   -1    0    0  502  503 -0.00000000000E+00 -0.00000000000E+00 -0.28415423786E+03  0.28415423786E+03  0.00000000000E+00 0.  1.
         -6    2    1    2    0  503  0.11624414158E+03  0.10939292592E+03 -0.17661059426E+02  0.23571111261E+03  0.17253493239E+03 0.  0.
        -24    2    3    3    0    0  0.48141542391E+02 -0.11808879016E+02 -0.21599131084E+02  0.96551348506E+02  0.79991141430E+02 0.  0.
          6    2    1    2  501    0 -0.11624414158E+03 -0.10939292592E+03 -0.75484637988E+02  0.23945166569E+03  0.16173947241E+03 0.  0.
         24    2    5    5    0    0 -0.27216752206E+02 -0.97027254970E+02 -0.67574848912E+02  0.14909990511E+03  0.86656688662E+02 0.  0.
          5    1    5    5  501    0 -0.89027389378E+02 -0.12365670954E+02 -0.79097890763E+01  0.90351760585E+02  0.47000000000E+01 0. -1.
        -11    1    6    6    0    0 -0.47704046465E+02 -0.99888071414E+02 -0.64696806477E+02  0.12821458430E+03  0.00000000000E+00 0.  1.
         12    1    6    6    0    0  0.20487294259E+02  0.28608164444E+01 -0.28780424348E+01  0.20885320803E+02  0.00000000000E+00 0. -1.
         -5    1    3    3    0  503  0.68102599192E+02  0.12120180494E+03  0.39380716587E+01  0.13915976411E+03  0.47000000000E+01 0.  1.
         13    1    4    4    0    0  0.42273019102E+02 -0.11993500694E+01  0.24506928153E+02  0.48877767053E+02  0.00000000000E+00 0. -1.
        -14    1    4    4    0    0  0.58685232890E+01 -0.10609528947E+02 -0.46106059238E+02  0.47673581452E+02  0.00000000000E+00 0.  1.
</event>
<event>
12    1  0.8416569E-002  0.1884234E+03  0.7818608E-02  0.1160734E+00
         21   -1    0    0  501  502  0.00000000000E+00  0.00000000000E+00  0.34332858065E+03  0.34332858065E+03  0.00000000000E+00 0.  1.
         21   -1    0    0  502  503 -0.00000000000E+00 -0.00000000000E+00 -0.13976212143E+03  0.13976212143E+03  0.00000000000E+00 0.  1.
         -6    2    1    2    0  503 -0.68580030299E+02  0.32975364295E+02 -0.25465148417E+02  0.18651214604E+03  0.16836778680E+03 0.  0.
        -24    2    3    3    0    0  0.23923051236E+02  0.34297459361E+02 -0.25144558007E+02  0.93879749943E+02  0.80203058251E+02 0.  0.
          6    2    1    2  501    0  0.68580030299E+02 -0.32975364295E+02  0.22903160763E+03  0.29657855604E+03  0.17237391741E+03 0.  0.
         24    2    5    5    0    0  0.10074088881E+03 -0.62840542825E+02  0.18856815149E+03  0.23669841750E+03  0.79815616197E+02 0.  0.
          5    1    5    5  501    0 -0.32160858511E+02  0.29865178530E+02  0.40463456142E+02  0.59880138542E+02  0.47000000000E+01 0. -1.
        -11    1    6    6    0    0  0.42045517949E+02 -0.70706489898E+02  0.12663380444E+03  0.15100779357E+03  0.00000000000E+00 0.  1.
         12    1    6    6    0    0  0.58695370862E+02  0.78659470725E+01  0.61934347051E+02  0.85690623925E+02  0.00000000000E+00 0. -1.
         -5    1    3    3    0  503 -0.92503081535E+02 -0.13220950661E+01 -0.32059040921E+00  0.92632396099E+02  0.47000000000E+01 0.  1.
         13    1    4    4    0    0 -0.75264387506E+01 -0.96985247503E+01  0.19977085493E+02  0.23447656757E+02  0.00000000000E+00 0. -1.
        -14    1    4    4    0    0  0.31449489986E+02  0.43995984112E+02 -0.45121643500E+02  0.70432093186E+02  0.00000000000E+00 0.  1.
</event>
<event>
12    1  0.8416569E-002  0.2160641E+03  0.7818608E-02  0.1136868E+00
         21   -1    0    0  501  502  0.00000000000E+00  0.00000000000E+00  0.37558834005E+02  0.37558834005E+02  0.00000000000E+00 0. -1.
         21   -1    0    0  502  503 -0.00000000000E+00 -0.00000000000E+00 -0.18924892265E+04  0.18924892265E+04  0.00000000000E+00 0. -1.
         -6    2    1    2    0  503 -0.72865764636E+02  0.10894240290E+03 -0.14929150173E+04  0.15084572379E+04  0.17166864286E+03 0.  0.
        -24    2    3    3    0    0 -0.62379291898E+02  0.47778839245E+02 -0.13188739903E+04  0.13236240247E+04  0.79862149618E+02 0.  0.
          6    2    1    2  501    0  0.72865764636E+02 -0.10894240290E+03 -0.36201537520E+03  0.42159082260E+03  0.17177259097E+03 0.  0.
         24    2    5    5    0    0  0.82225190350E+02 -0.13018057801E+03 -0.35748692379E+03  0.39748157533E+03  0.80540283233E+02 0.  0.
          5    1    5    5  501    0 -0.93594257140E+01  0.21238175110E+02 -0.45284514146E+01  0.24109247270E+02  0.47000000000E+01 0. -1.
        -11    1    6    6    0    0  0.56300133152E+02 -0.21510291568E+02 -0.15343851126E+03  0.16485076395E+03  0.00000000000E+00 0.  1.
         12    1    6    6    0    0  0.25925057197E+02 -0.10867028645E+03 -0.20404841253E+03  0.23263081138E+03  0.00000000000E+00 0. -1.
         -5    1    3    3    0  503 -0.10486472737E+02  0.61163563660E+02 -0.17404102707E+03  0.18483321329E+03  0.47000000000E+01 0.  1.
         13    1    4    4    0    0 -0.56419772496E+02  0.69486373076E+02 -0.10443280370E+04  0.10481567610E+04  0.00000000000E+00 0. -1.
        -14    1    4    4    0    0 -0.59595194020E+01 -0.21707533832E+02 -0.27454595325E+03  0.27546726365E+03  0.00000000000E+00 0.  1.
</event>
<event>
12    1  0.8416569E-002  0.1865187E+03  0.7818608E-02  0.1161998E+00
         21   -1    0    0  501  502  0.00000000000E+00  0.00000000000E+00  0.23382297827E+04  0.23382297827E+04  0.00000000000E+00 0. -1.
         21   -1    0    0  502  503 -0.00000000000E+00 -0.00000000000E+00 -0.32524086314E+02  0.32524086314E+02  0.00000000000E+00 0.  1.
         -6    2    1    2    0  503  0.53561085159E+02  0.49210715034E+02  0.27452238905E+03  0.33102475962E+03  0.17007164689E+03 0.  0.
        -24    2    3    3    0    0  0.94342147765E+02  0.22942450476E+02  0.24114855442E+03  0.27195683577E+03  0.79881777303E+02 0.  0.
          6    2    1    2  501    0 -0.53561085159E+02 -0.49210715034E+02  0.20311833073E+04  0.20397291093E+04  0.17175193560E+03 0.  0.
         24    2    5    5    0    0 -0.76116749346E+02  0.17284862064E+02  0.14513151649E+04  0.14556062008E+04  0.79882275090E+02 0.  0.
          5    1    5    5  501    0  0.22555664187E+02 -0.66495577098E+02  0.57986814235E+03  0.58412290853E+03  0.47000000000E+01 0. -1.
        -11    1    6    6    0    0 -0.16125875850E+02  0.69372067236E+01  0.50414179341E+02  0.53383126433E+02  0.00000000000E+00 0.  1.
         12    1    6    6    0    0 -0.59990873496E+02  0.10347655340E+02  0.14009009856E+04  0.14022230744E+04  0.00000000000E+00 0. -1.
         -5    1    3    3    0  503 -0.40781062606E+02  0.26268264558E+02  0.33373834631E+02  0.59067923852E+02  0.47000000000E+01 0.  1.
         11    1    4    4    0    0  0.36748136427E+02  0.19270487629E+02  0.19114327145E+03  0.19559531550E+03  0.00000000000E+00 0. -1.
        -12    1    4    4    0    0  0.57594011338E+02  0.36719628466E+01  0.50005282962E+02  0.76361520265E+02  0.00000000000E+00 0.  1.
</event>
<event>
12    1  0.8416569E-002  0.1760659E+03  0.7818608E-02  0.1172034E+00
         21   -1    0    0  501  502  0.00000000000E+00  0.00000000000E+00  0.11764000310E+03  0.11764000310E+03  0.00000000000E+00 0.  1.
         21   -1    0    0  502  503 -0.00000000000E+00 -0.00000000000E+00 -0.29513509639E+03  0.29513509639E+03  0.00000000000E+00 0.  1.
         -6    2    1    2    0  503  0.71790782027E+01  0.27530220223E+02 -0.15894850967E+03  0.23719997017E+03  0.17375196382E+03 0.  0.
        -24    2    3    3    0    0 -0.32701898388E+02 -0.10096109362E+02 -0.15990922320E+03  0.18216138423E+03  0.80252505604E+02 0.  0.
          6    2    1    2  501    0 -0.71790782027E+01 -0.27530220223E+02 -0.18546583620E+02  0.17557512931E+03  0.17225910159E+03 0.  0.
         24    2    5    5    0    0 -0.28535611298E+01  0.38909295109E+02  0.31096305635E+02  0.92392043598E+02  0.77763959770E+02 0.  0.
          5    1    5    5  501    0 -0.43255170728E+01 -0.66439515333E+02 -0.49642889256E+02  0.83183085716E+02  0.47000000000E+01 0. -1.
        -11    1    6    6    0    0 -0.30945079856E+02  0.44813409164E+02  0.32907439743E+02  0.63629703745E+02  0.00000000000E+00 0.  1.
         12    1    6    6    0    0  0.28091518726E+02 -0.59041140546E+01 -0.18111341077E+01  0.28762339854E+02  0.00000000000E+00 0. -1.
         -5    1    3    3    0  503  0.39880976591E+02  0.37626329586E+02  0.96071353433E+00  0.55038585942E+02  0.47000000000E+01 0.  1.
         11    1    4    4    0    0  0.12889806077E+01 -0.84289555488E+01  0.74829934960E+01  0.11344776521E+02  0.00000000000E+00 0. -1.
        -12    1    4    4    0    0 -0.33990878996E+02 -0.16671538137E+01 -0.16739221670E+03  0.17081660771E+03  0.00000000000E+00 0.  1.
</event>
<event>
12    1  0.8416569E-002  0.2259839E+03  0.7818608E-02  0.1130533E+00
         21   -1    0    0  503  502  0.00000000000E+00  0.00000000000E+00  0.10723304613E+03  0.10723304613E+03  0.00000000000E+00 0. -1.
         21   -1    0    0  501  503 -0.00000000000E+00 -0.00000000000E+00 -0.10917460112E+04  0.10917460112E+04  0.00000000000E+00 0. -1.
          6    2    1    2  501    0 -0.13186180684E+03  0.39493833515E+02 -0.94934799662E+03  0.97587413112E+03  0.17922444623E+03 0.  0.
         24    2    3    3    0    0 -0.11270776307E+03  0.55346751202E+02 -0.41823986729E+03  0.44416356377E+03  0.81181168200E+02 0.  0.
         -6    2    1    2    0  502  0.13186180684E+03 -0.39493833515E+02 -0.35164968441E+02  0.22310492620E+03  0.17202306271E+03 0.  0.
        -24    2    5    5    0    0  0.21337206123E+01 -0.16099343839E+02  0.13122728507E+02  0.82639734149E+02  0.79958601920E+02 0.  0.
          5    1    3    3  501    0 -0.19154043766E+02 -0.15852917687E+02 -0.53110812933E+03  0.53171056735E+03  0.47000000000E+01 0. -1.
        -11    1    4    4    0    0 -0.11745443393E+03  0.33859947879E+02 -0.38775777285E+03  0.40656872792E+03  0.00000000000E+00 0.  1.
         12    1    4    4    0    0  0.47466708589E+01  0.21486803323E+02 -0.30482094440E+02  0.37594835852E+02  0.00000000000E+00 0. -1.
         -5    1    5    5    0  502  0.12972808622E+03 -0.23394489676E+02 -0.48287696948E+02  0.14046519205E+03  0.47000000000E+01 0.  1.
         13    1    6    6    0    0  0.39352659379E+02 -0.53328786649E+01  0.17977286828E+02  0.43591905633E+02  0.00000000000E+00 0. -1.
        -14    1    6    6    0    0 -0.37218938767E+02 -0.10766465174E+02 -0.48545583209E+01  0.39047828515E+02  0.00000000000E+00 0.  1.
</event>
<event>
12    1  0.8416569E-002  0.1984882E+03  0.7818608E-02  0.1151022E+00
         21   -1    0    0  501  502  0.00000000000E+00  0.00000000000E+00  0.46477706315E+03  0.46477706315E+03  0.00000000000E+00 0. -1.
         21   -1    0    0  502  503 -0.00000000000E+00 -0.00000000000E+00 -0.24157210905E+03  0.24157210905E+03  0.00000000000E+00 0. -1.
         -6    2    1    2    0  503 -0.98553562903E+02 -0.81282457582E+01 -0.17294181682E+03  0.26325794252E+03  0.17209590104E+03 0.  0.
        -24    2    3    3    0    0 -0.99195042067E+02 -0.52500157149E+02 -0.79632841346E+02  0.15982713028E+03  0.81285910720E+02 0.  0.
          6    2    1    2  501    0  0.98553562903E+02  0.81282457582E+01  0.39614677092E+03  0.44309122969E+03  0.17210084419E+03 0.  0.
         24    2    5    5    0    0  0.48195705219E+01 -0.39626564167E+02  0.22975823213E+03  0.24618054170E+03  0.78882957830E+02 0.  0.
          5    1    5    5  501    0  0.93733992382E+02  0.47754809925E+02  0.16638853880E+03  0.19691068798E+03  0.47000000000E+01 0. -1.
        -11    1    6    6    0    0 -0.15932096852E+02  0.23842049020E+01  0.54134213440E+01  0.16994742533E+02  0.00000000000E+00 0.  1.
         12    1    6    6    0    0  0.20751667374E+02 -0.42010769069E+02  0.22434481078E+03  0.22918579917E+03  0.00000000000E+00 0. -1.
         -5    1    3    3    0  503  0.64147916326E+00  0.44371911391E+02 -0.93308975478E+02  0.10343081224E+03  0.47000000000E+01 0.  1.
         11    1    4    4    0    0 -0.10728977438E+02 -0.12220758917E+01 -0.53101243678E+02  0.54188066089E+02  0.00000000000E+00 0. -1.
        -12    1    4    4    0    0 -0.88466064629E+02 -0.51278081258E+02 -0.26531597668E+02  0.10563906419E+03  0.00000000000E+00 0.  1.
</event>
<event>
12    1  0.8416569E-002  0.1956910E+03  0.7818608E-02  0.1154640E+00
         21   -1    0    0  501  502  0.00000000000E+00  0.00000000000E+00  0.72103844079E+03  0.72103844079E+03  0.00000000000E+00 0. -1.
         21   -1    0    0  502  503 -0.00000000000E+00 -0.00000000000E+00 -0.12030780226E+03  0.12030780226E+03  0.00000000000E+00 0. -1.
         -6    2    1    2    0  503  0.82009840057E+02  0.70236661419E+01 -0.19306637767E+02  0.19116072382E+03  0.17144891460E+03 0.  0.
        -24    2    3    3    0    0  0.65275456462E+02 -0.55606221598E+02 -0.37190523601E+02  0.12374807067E+03  0.81101867131E+02 0.  0.
          6    2    1    2  501    0 -0.82009840057E+02 -0.70236661419E+01  0.62003727630E+03  0.65018551923E+03  0.17753883990E+03 0.  0.
         24    2    5    5    0    0 -0.25607350450E+02  0.14566764292E+02  0.55741932052E+03  0.56306212452E+03  0.73856145077E+02 0.  0.
          5    1    5    5  501    0 -0.56402489607E+02 -0.21590430434E+02  0.62617955778E+02  0.87123394711E+02  0.47000000000E+01 0. -1.
        -13    1    6    6    0    0  0.22531064802E+02 -0.29935766845E+01  0.28215961955E+03  0.28307359694E+03  0.00000000000E+00 0.  1.
         14    1    6    6    0    0 -0.48138415252E+02  0.17560340977E+02  0.27525970097E+03  0.27998852758E+03  0.00000000000E+00 0. -1.
         -5    1    3    3    0  503  0.16734383595E+02  0.62629887740E+02  0.17883885834E+02  0.67412653153E+02  0.47000000000E+01 0.  1.
         13    1    4    4    0    0  0.32903241799E+02  0.83694259288E+01 -0.39405643173E+02  0.52014183885E+02  0.00000000000E+00 0. -1.
        -14    1    4    4    0    0  0.32372214663E+02 -0.63975647526E+02  0.22151195720E+01  0.71733886785E+02  0.00000000000E+00 0.  1.
</event>
<event>
12    1  0.8416569E-002  0.1885501E+03  0.7818608E-02  0.1160303E+00
         21   -1    0    0  501  502  0.00000000000E+00  0.00000000000E+00  0.26441248102E+03  0.26441248102E+03  0.00000000000E+00 0.  1.
         21   -1    0    0  502  503 -0.00000000000E+00 -0.00000000000E+00 -0.13358714720E+03  0.13358714720E+03  0.00000000000E+00 0.  1.
         -6    2    1    2    0  503  0.57129477529E+01  0.72380062210E+02  0.80925008586E+02  0.20518288308E+03  0.17401048048E+03 0.  0.
        -24    2    3    3    0    0  0.67115718226E+02  0.66111232769E+02  0.70166545342E+02  0.14235428309E+03  0.80412580476E+02 0.  0.
          6    2    1    2  501    0 -0.57129477529E+01 -0.72380062210E+02  0.49900325232E+02  0.19281674514E+03  0.17151310029E+03 0.  0.
         24    2    5    5    0    0 -0.70396562566E+02 -0.50316655214E+02  0.35777935481E+02  0.12287179647E+03  0.79561145582E+02 0.  0.
          5    1    5    5  501    0  0.64683614813E+02 -0.22063406996E+02  0.14122389751E+02  0.69944948680E+02  0.47000000000E+01 0. -1.
        -11    1    6    6    0    0 -0.30027665456E+02 -0.34429177818E+02 -0.21930642477E+02  0.50675260802E+02  0.00000000000E+00 0.  1.
         12    1    6    6    0    0 -0.40368897110E+02 -0.15887477397E+02  0.57708577958E+02  0.72196535663E+02  0.00000000000E+00 0. -1.
         -5    1    3    3    0  503 -0.61402770473E+02  0.62688294408E+01  0.10758463244E+02  0.62828599982E+02  0.47000000000E+01 0.  1.
         11    1    4    4    0    0  0.51733186876E+02 -0.41836181328E+01  0.29483381693E+02  0.59691666764E+02  0.00000000000E+00 0. -1.
        -12    1    4    4    0    0  0.15382531350E+02  0.70294850902E+02  0.40683163649E+02  0.82662616330E+02  0.00000000000E+00 0.  1.
</event>
<event>
12    1  0.8416569E-002  0.1817286E+03  0.7818608E-02  0.1166665E+00
         21   -1    0    0  503  502  0.00000000000E+00  0.00000000000E+00  0.93259771918E+02  0.93259771918E+02  0.00000000000E+00 0.  1.
         21   -1    0    0  501  503 -0.00000000000E+00 -0.00000000000E+00 -0.35908438946E+03  0.35908438946E+03  0.00000000000E+00 0.  1.
          6    2    1    2  501    0 -0.45994383327E+02 -0.26219274414E+02 -0.95922241462E+02  0.20356290741E+03  0.17156295410E+03 0.  0.
         24    2    3    3    0    0 -0.96582012384E+02 -0.29369468495E+02 -0.68171230643E+02  0.14558670076E+03  0.79734057689E+02 0.  0.
         -6    2    1    2    0  502  0.45994383327E+02  0.26219274414E+02 -0.16990237608E+03  0.24878125397E+03  0.17384579741E+03 0.  0.
        -24    2    5    5    0    0  0.61955081921E+02  0.67136253742E+02 -0.71824021924E+02  0.14121547571E+03  0.80233482493E+02 0.  0.
          5    1    3    3  501    0  0.50587629057E+02  0.31501940814E+01 -0.27751010819E+02  0.57976206653E+02  0.47000000000E+01 0. -1.
        -11    1    4    4    0    0 -0.91797934679E+02 -0.22192482934E+02 -0.19855406485E+02  0.96507016723E+02  0.00000000000E+00 0.  1.
         12    1    4    4    0    0 -0.47840777043E+01 -0.71769855609E+01 -0.48315824158E+02  0.49079684038E+02  0.00000000000E+00 0. -1.
         -5    1    5    5    0  502 -0.15960698594E+02 -0.40916979328E+02 -0.98078354160E+02  0.10756577826E+03  0.47000000000E+01 0.  1.
         13    1    6    6    0    0 -0.29891444086E+01  0.55446869981E+02 -0.35221733665E+02  0.65756071182E+02  0.00000000000E+00 0. -1.
        -14    1    6    6    0    0  0.64944226330E+02  0.11689383761E+02 -0.36602288259E+02  0.75459404530E+02  0.00000000000E+00 0.  1.
</event>
<event>
12    1  0.8416569E-002  0.1942912E+03  0.7818608E-02  0.1155153E+00
         21   -1    0    0  503  502  0.00000000000E+00  0.00000000000E+00  0.91208011076E+02  0.91208011076E+02  0.00000000000E+00 0.  1.
         21   -1    0    0  501  503 -0.00000000000E+00 -0.00000000000E+00 -0.42340738637E+03  0.42340738637E+03  0.00000000000E+00 0. -1.
          6    2    1    2  501    0  0.34613821807E+02 -0.83249343041E+02 -0.21261189868E+03  0.28647015079E+03  0.16950739824E+03 0.  0.
         24    2    3    3    0    0  0.19601859673E+02  0.13010438225E+02 -0.14708402680E+03  0.16896569773E+03  0.79763347881E+02 0.  0.
         -6    2    1    2    0  502 -0.34613821807E+02  0.83249343041E+02 -0.11958747661E+03  0.22814524665E+03  0.17210612781E+03 0.  0.
        -24    2    5    5    0    0 -0.30148096732E+02  0.22486110527E+02 -0.14281865697E+03  0.16277024480E+03  0.68428436419E+02 0.  0.
          5    1    3    3  501    0  0.15011962134E+02 -0.96259781266E+02 -0.65527871885E+02  0.11750445307E+03  0.47000000000E+01 0. -1.
        -11    1    4    4    0    0  0.33440212717E+02 -0.16538406182E+02 -0.31380217626E+02  0.48749202699E+02  0.00000000000E+00 0.  1.
         12    1    4    4    0    0 -0.13838353044E+02  0.29548844407E+02 -0.11570380917E+03  0.12021649503E+03  0.00000000000E+00 0. -1.
         -5    1    5    5    0  502 -0.44657250749E+01  0.60763232515E+02  0.23231180357E+02  0.65375001850E+02  0.47000000000E+01 0.  1.
         13    1    6    6    0    0  0.18581192526E+02  0.22667870809E+02 -0.56283458303E+02  0.63458023616E+02  0.00000000000E+00 0. -1.
        -14    1    6    6    0    0 -0.48729289258E+02 -0.18176028246E+00 -0.86535198668E+02  0.99312221186E+02  0.00000000000E+00 0.  1.
</event>
<event>
12    1  0.8416569E-002  0.1954970E+03  0.7818608E-02  0.1153676E+00
         21   -1    0    0  503  502  0.00000000000E+00  0.00000000000E+00  0.32478119144E+03  0.32478119144E+03  0.00000000000E+00 0.  1.
         21   -1    0    0  501  503 -0.00000000000E+00 -0.00000000000E+00 -0.13157565939E+03  0.13157565939E+03  0.00000000000E+00 0. -1.
          6    2    1    2  501    0  0.66978348751E+02  0.64046318614E+02  0.21764102398E+02  0.19633523169E+03  0.17171434686E+03 0.  0.
         24    2    3    3    0    0  0.88094147537E+02  0.95821588730E+02 -0.28825640354E-01  0.15214737745E+03  0.78781139483E+02 0.  0.
         -6    2    1    2    0  502 -0.66978348751E+02 -0.64046318614E+02  0.17144142966E+03  0.26002161914E+03  0.17213671453E+03 0.  0.
        -24    2    5    5    0    0  0.26986654309E+02 -0.22821742479E+02  0.46182242285E+02  0.98031367900E+02  0.78919187459E+02 0.  0.
          5    1    3    3  501    0 -0.21115798786E+02 -0.31775270116E+02  0.21792928038E+02  0.44187854234E+02  0.47000000000E+01 0. -1.
        -11    1    4    4    0    0  0.54532736915E+02  0.15736474309E+02  0.24643754671E+02  0.61877060882E+02  0.00000000000E+00 0.  1.
         12    1    4    4    0    0  0.33561410622E+02  0.80085114421E+02 -0.24672580311E+02  0.90270316572E+02  0.00000000000E+00 0. -1.
         -5    1    5    5    0  502 -0.93965003060E+02 -0.41224576134E+02  0.12525918737E+03  0.16199025124E+03  0.47000000000E+01 0.  1.
         13    1    6    6    0    0  0.77375361544E+00 -0.21907423486E+02 -0.18212625181E+02  0.28499712533E+02  0.00000000000E+00 0. -1.
        -14    1    6    6    0    0  0.26212900693E+02 -0.91431899311E+00  0.64394867467E+02  0.69531655367E+02  0.00000000000E+00 0.  1.
</event>
<event>
12    1  0.8416569E-002  0.3671303E+03  0.7818608E-02  0.1055980E+00
         21   -1    0    0  501  502  0.00000000000E+00  0.00000000000E+00  0.19236448118E+04  0.19236448118E+04  0.00000000000E+00 0. -1.
         21   -1    0    0  502  503 -0.00000000000E+00 -0.00000000000E+00 -0.69732277199E+02  0.69732277199E+02  0.00000000000E+00 0. -1.
         -6    2    1    2    0  503 -0.86970273849E+02 -0.31083451865E+03  0.90924434257E+03  0.98056613079E+03  0.17493637655E+03 0.  0.
        -24    2    3    3    0    0 -0.24735627017E+02 -0.27700200386E+03  0.64038341531E+03  0.70249046028E+03  0.77845788546E+02 0.  0.
          6    2    1    2  501    0  0.86970273849E+02  0.31083451865E+03  0.94466819206E+03  0.10128109582E+04  0.17089797399E+03 0.  0.
         24    2    5    5    0    0 -0.92288242830E+01  0.94077326071E+02  0.40603011019E+03  0.42426102811E+03  0.78748048290E+02 0.  0.
          5    1    5    5  501    0  0.96199098132E+02  0.21675719258E+03  0.53863808186E+03  0.58854993013E+03  0.47000000000E+01 0. -1.
        -13    1    6    6    0    0 -0.50401181929E+01  0.35427153713E+02  0.40550444163E+02  0.54081646918E+02  0.00000000000E+00 0.  1.
         14    1    6    6    0    0 -0.41887060901E+01  0.58650172358E+02  0.36547966603E+03  0.37017938119E+03  0.00000000000E+00 0. -1.
         -5    1    3    3    0  503 -0.62234646832E+02 -0.33832514791E+02  0.26886092726E+03  0.27807567051E+03  0.47000000000E+01 0.  1.
         13    1    4    4    0    0 -0.17909203546E+02 -0.26425289951E+03  0.63316043390E+03  0.68632533796E+03  0.00000000000E+00 0. -1.
        -14    1    4    4    0    0 -0.68264234703E+01 -0.12749104350E+02  0.72229814092E+01  0.16165122319E+02  0.00000000000E+00 0.  1.
</event>
<event>
12    1  0.8416569E-002  0.1766882E+03  0.7818608E-02  0.1171164E+00
         21   -1    0    0  503  502  0.00000000000E+00  0.00000000000E+00  0.91207399235E+02  0.91207399235E+02  0.00000000000E+00 0.  1.
         21   -1    0    0  501  503 -0.00000000000E+00 -0.00000000000E+00 -0.74710495071E+03  0.74710495071E+03  0.00000000000E+00 0.  1.
          6    2    1    2  501    0  0.39398795295E+02  0.94865336379E+01 -0.63704092093E+03  0.66108989921E+03  0.17197808146E+03 0.  0.
         24    2    3    3    0    0  0.31196607915E+01  0.69632912232E+02 -0.43106843140E+03  0.44341923306E+03  0.77085335484E+02 0.  0.
         -6    2    1    2    0  502 -0.39398795295E+02 -0.94865336379E+01 -0.18856630545E+02  0.17722245074E+03  0.17149333847E+03 0.  0.
        -24    2    5    5    0    0 -0.28982337950E+01 -0.61362068111E+02  0.19485601961E+02  0.10295550749E+03  0.80289754488E+02 0.  0.
          5    1    3    3  501    0  0.36279134503E+02 -0.60146378594E+02 -0.20597248953E+03  0.21767066615E+03  0.47000000000E+01 0. -1.
        -11    1    4    4    0    0  0.27963456881E+02  0.69828767905E+02 -0.36849818689E+03  0.37609696289E+03  0.00000000000E+00 0.  1.
         12    1    4    4    0    0 -0.24843796090E+02 -0.19585567295E+00 -0.62570244511E+02  0.67322270177E+02  0.00000000000E+00 0. -1.
         -5    1    5    5    0  502 -0.36500561500E+02  0.51875534473E+02 -0.38342232506E+02  0.74266943253E+02  0.47000000000E+01 0.  1.
         11    1    6    6    0    0  0.82204312777E+01  0.17805479051E+02 -0.31624553042E+01  0.19864835720E+02  0.00000000000E+00 0. -1.
        -12    1    6    6    0    0 -0.11118665073E+02 -0.79167547162E+02  0.22648057265E+02  0.83090671766E+02  0.00000000000E+00 0.  1.
</event>
<event>
12    1  0.8416569E-002  0.2159112E+03  0.7818608E-02  0.1137011E+00
         21   -1    0    0  503  502  0.00000000000E+00  0.00000000000E+00  0.23427283114E+03  0.23427283114E+03  0.00000000000E+00 0.  1.
         21   -1    0    0  501  503 -0.00000000000E+00 -0.00000000000E+00 -0.50752089572E+03  0.50752089572E+03  0.00000000000E+00 0.  1.
          6    2    1    2  501    0  0.10028455013E+03 -0.78367074406E+02 -0.42587759586E+03  0.47738222881E+03  0.17413694719E+03 0.  0.
         24    2    3    3    0    0  0.41900652082E+02 -0.97098874080E+02 -0.37587896733E+03  0.39812623392E+03  0.77689407663E+02 0.  0.
         -6    2    1    2    0  502 -0.10028455013E+03  0.78367074406E+02  0.15262953128E+03  0.26441149806E+03  0.17441122998E+03 0.  0.
        -24    2    5    5    0    0 -0.42370420873E+02 -0.28707027585E+02  0.76537782306E+02  0.12077670441E+03  0.78164149137E+02 0.  0.
          5    1    3    3  501    0  0.58383898045E+02  0.18731799675E+02 -0.49998628533E+02  0.79255994884E+02  0.47000000000E+01 0. -1.
        -13    1    4    4    0    0  0.28431284152E+02 -0.10091733697E+02 -0.19082835764E+03  0.19319845518E+03  0.00000000000E+00 0.  1.
         14    1    4    4    0    0  0.13469367930E+02 -0.87007140383E+02 -0.18505060969E+03  0.20492777874E+03  0.00000000000E+00 0. -1.
         -5    1    5    5    0  502 -0.57914129254E+02  0.10707410199E+03  0.76091748975E+02  0.14363479365E+03  0.47000000000E+01 0.  1.
         11    1    6    6    0    0  0.18402274516E+02  0.28631809886E+01  0.76137846426E+00  0.18639238448E+02  0.00000000000E+00 0. -1.
        -12    1    6    6    0    0 -0.60772695389E+02 -0.31570208574E+02  0.75776403842E+02  0.10213746596E+03  0.00000000000E+00 0.  1.
</event>
<event>
12    1  0.8416569E-002  0.2187553E+03  0.7818608E-02  0.1134819E+00
         21   -1    0    0  501  502  0.00000000000E+00  0.00000000000E+00  0.84677771705E+03  0.84677771705E+03  0.00000000000E+00 0. -1.
         21   -1    0    0  502  503 -0.00000000000E+00 -0.00000000000E+00 -0.67500564452E+02  0.67500564452E+02  0.00000000000E+00 0. -1.
         -6    2    1    2    0  503 -0.61473819953E+02  0.12050038142E+03  0.20516641075E+03  0.29991186205E+03  0.17191421244E+03 0.  0.
        -24    2    3    3    0    0  0.21047655492E+02  0.55922917822E+02  0.46217086938E+02  0.10947284227E+03  0.79233247636E+02 0.  0.
          6    2    1    2  501    0  0.61473819953E+02 -0.12050038142E+03  0.57411074185E+03  0.61436641945E+03  0.17188246270E+03 0.  0.
         24    2    5    5    0    0  0.44747643720E+02 -0.66607639510E+02  0.52660205690E+03  0.54045188944E+03  0.91321351317E+02 0.  0.
          5    1    5    5  501    0  0.16726176233E+02 -0.53892741905E+02  0.47508684947E+02  0.73914530012E+02  0.47000000000E+01 0. -1.
        -13    1    6    6    0    0 -0.23640898154E+02 -0.69165541155E+01  0.56042697713E+02  0.61216948252E+02  0.00000000000E+00 0.  1.
         14    1    6    6    0    0  0.68388541874E+02 -0.59691085395E+02  0.47055935919E+03  0.47923494119E+03  0.00000000000E+00 0. -1.
         -5    1    3    3    0  503 -0.82521475445E+02  0.64577463593E+02  0.15894932381E+03  0.19043901978E+03  0.47000000000E+01 0.  1.
         13    1    4    4    0    0 -0.29685235447E+02  0.24395429592E+02  0.10320711949E+02  0.39785264655E+02  0.00000000000E+00 0. -1.
        -14    1    4    4    0    0  0.50732890939E+02  0.31527488230E+02  0.35896374988E+02  0.69687577619E+02  0.00000000000E+00 0.  1.
</event>
<event>
12    1  0.8416569E-002  0.1847437E+03  0.7818608E-02  0.1163879E+00
         21   -1    0    0  503  502  0.00000000000E+00  0.00000000000E+00  0.91711666181E+02  0.91711666181E+02  0.00000000000E+00 0.  1.
         21   -1    0    0  501  503 -0.00000000000E+00 -0.00000000000E+00 -0.39149285906E+03  0.39149285906E+03  0.00000000000E+00 0.  1.
          6    2    1    2  501    0  0.56869285127E+02  0.18446760515E+02 -0.20921156762E+03  0.27745447904E+03  0.17215431841E+03 0.  0.
         24    2    3    3    0    0  0.74136532489E+02 -0.56732219417E+01 -0.21962445307E+03  0.24566690964E+03  0.81172157835E+02 0.  0.
         -6    2    1    2    0  502 -0.56869285127E+02 -0.18446760515E+02 -0.90569625262E+02  0.20575004620E+03  0.17480224806E+03 0.  0.
        -24    2    5    5    0    0 -0.83687592593E+02 -0.36730127774E+01 -0.11716306310E+03  0.16492375353E+03  0.80346480608E+02 0.  0.
          5    1    3    3  501    0 -0.17267247362E+02  0.24119982456E+02  0.10412885450E+02  0.31787569403E+02  0.47000000000E+01 0. -1.
        -13    1    4    4    0    0  0.68267530963E+02  0.29250231950E+02 -0.15817006005E+03  0.17473923357E+03  0.00000000000E+00 0.  1.
         14    1    4    4    0    0  0.58690015262E+01 -0.34923453891E+02 -0.61454393015E+02  0.70927676061E+02  0.00000000000E+00 0. -1.
         -5    1    5    5    0  502  0.26818307466E+02 -0.14773747737E+02  0.26593437837E+02  0.40826292675E+02  0.47000000000E+01 0.  1.
         11    1    6    6    0    0 -0.13782071086E+02  0.10436858986E+02 -0.84913663021E+02  0.86655661538E+02  0.00000000000E+00 0. -1.
        -12    1    6    6    0    0 -0.69905521507E+02 -0.14109871764E+02 -0.32249400078E+02  0.78268091990E+02  0.00000000000E+00 0.  1.
</event>
<event>
12    1  0.8416569E-002  0.1902341E+03  0.7818608E-02  0.1160857E+00
         21   -1    0    0  501  502  0.00000000000E+00  0.00000000000E+00  0.59810739403E+03  0.59810739403E+03  0.00000000000E+00 0.  1.
         21   -1    0    0  502  503 -0.00000000000E+00 -0.00000000000E+00 -0.65105708721E+02  0.65105708721E+02  0.00000000000E+00 0.  1.
         -6    2    1    2    0  503 -0.63588360093E+01  0.48926475094E+02  0.15657579030E+03  0.24638381553E+03  0.18372471714E+03 0.  0.
        -24    2    3    3    0    0 -0.73306555743E+02 -0.30462010077E+00  0.74677409315E+02  0.12961424450E+03  0.76480017037E+02 0.  0.
          6    2    1    2  501    0  0.63588360093E+01 -0.48926475094E+02  0.37642589501E+03  0.41682928722E+03  0.17209289785E+03 0.  0.
         24    2    5    5    0    0 -0.49389444164E+02 -0.51823605675E+02  0.32035229922E+03  0.33756641917E+03  0.78743180218E+02 0.  0.
          5    1    5    5  501    0  0.55748280173E+02  0.28971305809E+01  0.56073595787E+02  0.79262868055E+02  0.47000000000E+01 0. -1.
        -13    1    6    6    0    0 -0.42107406012E+02 -0.99140683012E+01  0.61193004832E+02  0.74939350355E+02  0.00000000000E+00 0.  1.
         14    1    6    6    0    0 -0.72820381520E+01 -0.41909537374E+02  0.25915929439E+03  0.26262706881E+03  0.00000000000E+00 0. -1.
         -5    1    3    3    0  503  0.66947719734E+02  0.49231095195E+02  0.81898380982E+02  0.11676957103E+03  0.47000000000E+01 0.  1.
         11    1    4    4    0    0  0.68915128923E+01 -0.17298640341E+02 -0.14823195493E+00  0.18621436043E+02  0.00000000000E+00 0. -1.
        -12    1    4    4    0    0 -0.80198068636E+02  0.16994020240E+02  0.74825641270E+02  0.11099280845E+03  0.00000000000E+00 0.  1.
</event>
<event>
12    1  0.8416569E-002  0.3371301E+03  0.7818608E-02  0.1068054E+00
         21   -1    0    0  503  502  0.00000000000E+00  0.00000000000E+00  0.67575584555E+03  0.67575584555E+03  0.00000000000E+00 0.  1.
         21   -1    0    0  501  503 -0.00000000000E+00 -0.00000000000E+00 -0.16959695859E+03  0.16959695859E+03  0.00000000000E+00 0. -1.
          6    2    1    2  501    0  0.13558333794E+03  0.25615854416E+03  0.29343077466E+03  0.44694333161E+03  0.17221115201E+03 0.  0.
         24    2    3    3    0    0  0.15086252472E+03  0.25969268498E+03  0.24521816591E+03  0.39602683779E+03  0.80656775049E+02 0.  0.
         -6    2    1    2    0  502 -0.13558333794E+03 -0.25615854416E+03  0.21272811230E+03  0.39840947253E+03  0.17168813811E+03 0.  0.
        -24    2    5    5    0    0 -0.32126977152E+02 -0.33950583904E+02  0.77313695575E+02  0.11834028386E+03  0.76434484699E+02 0.  0.
          5    1    3    3  501    0 -0.15279186782E+02 -0.35341408178E+01  0.48212608746E+02  0.50916493812E+02  0.47000000000E+01 0. -1.
        -11    1    4    4    0    0  0.89623321317E+02  0.17392290295E+03  0.20456474884E+03  0.28306934197E+03  0.00000000000E+00 0.  1.
         12    1    4    4    0    0  0.61239203402E+02  0.85769782034E+02  0.40653417070E+02  0.11295749582E+03  0.00000000000E+00 0. -1.
         -5    1    5    5    0  502 -0.10345636079E+03 -0.22220796026E+03  0.13541441673E+03  0.28006918868E+03  0.47000000000E+01 0.  1.
         13    1    6    6    0    0 -0.29071020878E+02 -0.46450260866E+02  0.18046876043E+02  0.57692640123E+02  0.00000000000E+00 0. -1.
        -14    1    6    6    0    0 -0.30559562738E+01  0.12499676962E+02  0.59266819532E+02  0.60647643732E+02  0.00000000000E+00 0.  1.
</event>
<event>
12    1  0.8416569E-002  0.1774574E+03  0.7818608E-02  0.1170409E+00
         21   -1    0    0  503  502  0.00000000000E+00  0.00000000000E+00  0.37462182849E+03  0.37462182849E+03  0.00000000000E+00 0.  1.
         21   -1    0    0  501  503 -0.00000000000E+00 -0.00000000000E+00 -0.19439437399E+03  0.19439437399E+03  0.00000000000E+00 0.  1.
          6    2    1    2  501    0  0.14660480207E+02 -0.22070681132E+01 -0.12440089526E+03  0.21671808563E+03  0.17683705796E+03 0.  0.
         24    2    3    3    0    0  0.51551539756E+02 -0.57157128419E+02 -0.76766911705E+02  0.13503855459E+03  0.80110885099E+02 0.  0.
         -6    2    1    2    0  502 -0.14660480207E+02  0.22070681132E+01  0.30462834976E+03  0.35229811685E+03  0.17633981635E+03 0.  0.
        -24    2    5    5    0    0  0.41325852424E+02  0.50121339622E+02  0.16525371089E+03  0.19457168655E+03  0.79557384817E+02 0.  0.
          5    1    3    3  501    0 -0.36891059548E+02  0.54950060306E+02 -0.47633983558E+02  0.81679531046E+02  0.47000000000E+01 0. -1.
        -11    1    4    4    0    0  0.43642174983E+02  0.35613812876E+01 -0.10934396880E+02  0.45131850272E+02  0.00000000000E+00 0.  1.
         12    1    4    4    0    0  0.79093647730E+01 -0.60718509707E+02 -0.65832514825E+02  0.89906704313E+02  0.00000000000E+00 0. -1.
         -5    1    5    5    0  502 -0.55986332632E+02 -0.47914271509E+02  0.13937463886E+03  0.15772643030E+03  0.47000000000E+01 0.  1.
         11    1    6    6    0    0  0.24839011831E+01 -0.78472380668E+01 -0.56420927018E+01  0.99790841473E+01  0.00000000000E+00 0. -1.
        -12    1    6    6    0    0  0.38841951241E+02  0.57968577689E+02  0.17089580360E+03  0.18459260240E+03  0.00000000000E+00 0.  1.
</event>
<event>
12    1  0.8416569E-002  0.1817433E+03  0.7818608E-02  0.1166238E+00
         21   -1    0    0  503  502  0.00000000000E+00  0.00000000000E+00  0.62607886787E+03  0.62607886787E+03  0.00000000000E+00 0.  1.
         21   -1    0    0  501  503 -0.00000000000E+00 -0.00000000000E+00 -0.10049142334E+03  0.10049142334E+03  0.00000000000E+00 0.  1.
          6    2    1    2  501    0 -0.32035297028E+01 -0.57220191802E+02  0.12238805637E+02  0.18215491127E+03  0.17247089720E+03 0.  0.
         24    2    3    3    0    0  0.58231393102E+02 -0.41807348366E+01  0.18140455232E+02  0.10064200920E+03  0.79946008114E+02 0.  0.
         -6    2    1    2    0  502  0.32035297028E+01  0.57220191802E+02  0.51334863889E+03  0.54441537995E+03  0.17197926595E+03 0.  0.
        -24    2    5    5    0    0 -0.41678388120E+02  0.89845807358E+02  0.35841843764E+03  0.37978162096E+03  0.77207163161E+02 0.  0.
          5    1    3    3  501    0 -0.61434922805E+02 -0.53039456965E+02 -0.59016495949E+01  0.81512902066E+02  0.47000000000E+01 0. -1.
        -11    1    4    4    0    0  0.65038554692E+02 -0.40885048393E+01 -0.14948941088E+02  0.66859556594E+02  0.00000000000E+00 0.  1.
         12    1    4    4    0    0 -0.68071615905E+01 -0.92229997223E-01  0.33089396319E+02  0.33782452606E+02  0.00000000000E+00 0. -1.
         -5    1    5    5    0  502  0.44881917822E+02 -0.32625615556E+02  0.15493020126E+03  0.16463375899E+03  0.47000000000E+01 0.  1.
         13    1    6    6    0    0 -0.32407607338E+02  0.11341067990E+02  0.45316273663E+02  0.56854529241E+02  0.00000000000E+00 0. -1.
        -14    1    6    6    0    0 -0.92707807816E+01  0.78504739368E+02  0.31310216398E+03  0.32292709172E+03  0.00000000000E+00 0.  1.
</event>
<event>
12    1  0.8416569E-002  0.1815364E+03  0.7818608E-02  0.1166445E+00
         21   -1    0    0  501  502  0.00000000000E+00  0.00000000000E+00  0.63262813097E+03  0.63262813097E+03  0.00000000000E+00 0.  1.
         21   -1    0    0  502  503 -0.00000000000E+00 -0.00000000000E+00 -0.60203131967E+02  0.60203131967E+02  0.00000000000E+00 0.  1.
         -6    2    1    2    0  503  0.57058557291E+02 -0.17031915828E+02  0.15759656268E+03  0.24001993737E+03  0.17095943568E+03 0.  0.
        -24    2    3    3    0    0  0.98993697916E+02 -0.30793383175E+02  0.14048739933E+03  0.19245159208E+03  0.80950115801E+02 0.  0.
          6    2    1    2  501    0 -0.57058557291E+02  0.17031915828E+02  0.41482843632E+03  0.45281132557E+03  0.17149256505E+03 0.  0.
         24    2    5    5    0    0 -0.24833778738E+02  0.76026830135E+02  0.25615481736E+03  0.28042152419E+03  0.81388852459E+02 0.  0.
          5    1    5    5  501    0 -0.32224778554E+02 -0.58994914307E+02  0.15867361896E+03  0.17238980138E+03  0.47000000000E+01 0. -1.
        -11    1    6    6    0    0 -0.72632427391E+00 -0.86493285440E+00  0.13446496083E+03  0.13446970420E+03  0.00000000000E+00 0.  1.
         12    1    6    6    0    0 -0.24107454464E+02  0.76891762990E+02  0.12168985653E+03  0.14595181999E+03  0.00000000000E+00 0. -1.
         -5    1    3    3    0  503 -0.41935140625E+02  0.13761467346E+02  0.17109163350E+02  0.47568345286E+02  0.47000000000E+01 0.  1.
         11    1    4    4    0    0  0.23427981053E+02 -0.41483703899E+02  0.87216095144E+02  0.99380155149E+02  0.00000000000E+00 0. -1.
        -12    1    4    4    0    0  0.75565716863E+02  0.10690320724E+02  0.53271304189E+02  0.93071436930E+02  0.00000000000E+00 0.  1.
</event>
<event>
12    1  0.8416569E-002  0.2099437E+03  0.7818608E-02  0.1141973E+00
         21   -1    0    0  501  502  0.00000000000E+00  0.00000000000E+00  0.20227657761E+03  0.20227657761E+03  0.00000000000E+00 0. -1.
         21   -1    0    0  502  503 -0.00000000000E+00 -0.00000000000E+00 -0.26451852059E+03  0.26451852059E+03  0.00000000000E+00 0. -1.
         -6    2    1    2    0  503 -0.22606885465E+02 -0.11647330352E+03  0.68709966606E+02  0.22090142054E+03  0.17320299184E+03 0.  0.
        -24    2    3    3    0    0  0.43448065635E+02 -0.10382732012E+03  0.17897168660E+02  0.13647862802E+03  0.75088350961E+02 0.  0.
          6    2    1    2  501    0  0.22606885465E+02  0.11647330352E+03 -0.13095190959E+03  0.24589367766E+03  0.17099180210E+03 0.  0.
         24    2    5    5    0    0 -0.56075229916E+02  0.84776123482E+02 -0.65152671990E+02  0.13843570368E+03  0.67735890511E+02 0.  0.
          5    1    5    5  501    0  0.78682115381E+02  0.31697180041E+02 -0.65799237600E+02  0.10745797398E+03  0.47000000000E+01 0. -1.
        -11    1    6    6    0    0 -0.27113879409E+02  0.83402397222E+01  0.72084391058E+01  0.29269158676E+02  0.00000000000E+00 0.  1.
         12    1    6    6    0    0 -0.28961350507E+02  0.76435883760E+02 -0.72361111095E+02  0.10916654500E+03  0.00000000000E+00 0. -1.
         -5    1    3    3    0  503 -0.66054951100E+02 -0.12645983402E+02  0.50812797947E+02  0.84422792516E+02  0.47000000000E+01 0.  1.
         13    1    4    4    0    0  0.44899693507E+01 -0.53003817523E+02  0.42286927402E+02  0.67954019203E+02  0.00000000000E+00 0. -1.
        -14    1    4    4    0    0  0.38958096284E+02 -0.50823502597E+02 -0.24389758742E+02  0.68524608819E+02  0.00000000000E+00 0.  1.
</event>
<event>
12    1  0.8416569E-002  0.1937591E+03  0.7818608E-02  0.1155564E+00
         21   -1    0    0  501  502  0.00000000000E+00  0.00000000000E+00  0.85164673920E+03  0.85164673920E+03  0.00000000000E+00 0. -1.
         21   -1    0    0  502  503 -0.00000000000E+00 -0.00000000000E+00 -0.78581547521E+02  0.78581547521E+02  0.00000000000E+00 0. -1.
         -6    2    1    2    0  503 -0.83120504412E+02 -0.11063722101E+02  0.75163339429E+02  0.20592891479E+03  0.17241161838E+03 0.  0.
        -24    2    3    3    0    0 -0.12560305859E+03 -0.27389399687E+02  0.35256632903E+02  0.14521705117E+03  0.57607762018E+02 0.  0.
          6    2    1    2  501    0  0.83120504412E+02  0.11063722101E+02  0.69790185225E+03  0.72429937193E+03  0.17467444177E+03 0.  0.
         24    2    5    5    0    0 -0.14540814148E+02 -0.16585577671E+02  0.20399231911E+03  0.22004652479E+03  0.79505283820E+02 0.  0.
          5    1    5    5  501    0  0.97661318560E+02  0.27649299772E+02  0.49390953314E+03  0.50425284714E+03  0.47000000000E+01 0. -1.
        -13    1    6    6    0    0  0.29538491159E+02 -0.10343839823E+02  0.44133278382E+02  0.54104193395E+02  0.00000000000E+00 0.  1.
         14    1    6    6    0    0 -0.44079305306E+02 -0.62417378478E+01  0.15985904073E+03  0.16594233140E+03  0.00000000000E+00 0. -1.
         -5    1    3    3    0  503  0.42482554178E+02  0.16325677585E+02  0.39906706526E+02  0.60711863617E+02  0.47000000000E+01 0.  1.
         11    1    4    4    0    0 -0.65278561532E+02  0.37673115069E+01 -0.61757942511E+01  0.65678182575E+02  0.00000000000E+00 0. -1.
        -12    1    4    4    0    0 -0.60324497058E+02 -0.31156711194E+02  0.41432427154E+02  0.79538868596E+02  0.00000000000E+00 0.  1.
</event>
<event>
12    1  0.8416569E-002  0.2603349E+03  0.7818608E-02  0.1107544E+00
         21   -1    0    0  501  502  0.00000000000E+00  0.00000000000E+00  0.95848238074E+03  0.95848238074E+03  0.00000000000E+00 0.  1.
         21   -1    0    0  502  503 -0.00000000000E+00 -0.00000000000E+00 -0.80351126730E+02  0.80351126730E+02  0.00000000000E+00 0. -1.
         -6    2    1    2    0  503  0.14846168980E+03  0.11947914897E+03  0.24644236658E+03  0.35560211969E+03  0.17147270075E+03 0.  0.
        -24    2    3    3    0    0  0.34796807132E+02  0.47668888595E+02  0.16864056379E+03  0.20019417406E+03  0.90304633578E+02 0.  0.
          6    2    1    2  501    0 -0.14846168980E+03 -0.11947914897E+03  0.63168888743E+03  0.68323138778E+03  0.17736442250E+03 0.  0.
         24    2    5    5    0    0 -0.14960913896E+03 -0.13325072577E+03  0.43123376626E+03  0.48224552119E+03  0.80371208575E+02 0.  0.
          5    1    5    5  501    0  0.11474491529E+01  0.13771576796E+02  0.20045512116E+03  0.20098586659E+03  0.47000000000E+01 0. -1.
        -13    1    6    6    0    0 -0.17296570476E+02 -0.11760087815E+02  0.12881270980E+03  0.13049975181E+03  0.00000000000E+00 0.  1.
         14    1    6    6    0    0 -0.13231256848E+03 -0.12149063795E+03  0.30242105646E+03  0.35174576938E+03  0.00000000000E+00 0. -1.
         -5    1    3    3    0  503  0.11366488267E+03  0.71810260374E+02  0.77801802799E+02  0.15540794564E+03  0.47000000000E+01 0.  1.
         11    1    4    4    0    0  0.32815461278E+02 -0.10635059160E+02  0.18554970617E+02  0.39169451321E+02  0.00000000000E+00 0. -1.
        -12    1    4    4    0    0  0.19813458541E+01  0.58303947755E+02  0.15008559317E+03  0.16102472274E+03  0.00000000000E+00 0.  1.
</event>
<event>
12    1  0.8416569E-002  0.3434480E+03  0.7818608E-02  0.1065700E+00
         21   -1    0    0  501  502  0.00000000000E+00  0.00000000000E+00  0.20043676963E+03  0.20043676963E+03  0.00000000000E+00 0. -1.
         21   -1    0    0  502  503 -0.00000000000E+00 -0.00000000000E+00 -0.79546282659E+03  0.79546282659E+03  0.00000000000E+00 0.  1.
         -6    2    1    2    0  503 -0.24263210216E+03 -0.16431549529E+03 -0.38843929688E+02  0.34222147562E+03  0.17244352268E+03 0.  0.
        -24    2    3    3    0    0 -0.19436075384E+03 -0.98828876830E+02  0.28898139123E+02  0.23625120549E+03  0.86233868764E+02 0.  0.
          6    2    1    2  501    0  0.24263210216E+03  0.16431549529E+03 -0.55618212727E+03  0.65367812059E+03  0.17912735036E+03 0.  0.
         24    2    5    5    0    0  0.10897763352E+03  0.11472778507E+03 -0.18343876394E+03  0.25457642566E+03  0.78235459401E+02 0.  0.
          5    1    5    5  501    0  0.13365446865E+03  0.49587710215E+02 -0.37274336333E+03  0.39910169493E+03  0.47000000000E+01 0. -1.
        -11    1    6    6    0    0  0.48778329636E+02  0.68294075433E+02 -0.14922493015E+03  0.17120597525E+03  0.00000000000E+00 0.  1.
         12    1    6    6    0    0  0.60199303880E+02  0.46433709639E+02 -0.34213833791E+02  0.83370450407E+02  0.00000000000E+00 0. -1.
         -5    1    3    3    0  503 -0.48271348325E+02 -0.65486618457E+02 -0.67742068811E+02  0.10597027014E+03  0.47000000000E+01 0.  1.
         13    1    4    4    0    0 -0.54587285908E+02 -0.74357088439E+02  0.52274145324E+01  0.92390877507E+02  0.00000000000E+00 0. -1.
        -14    1    4    4    0    0 -0.13977346793E+03 -0.24471788391E+02  0.23670724591E+02  0.14386032798E+03  0.00000000000E+00 0.  1.
</event>
<event>
12    1  0.8416569E-002  0.1857032E+03  0.7818608E-02  0.1163819E+00
         21   -1    0    0  503  502  0.00000000000E+00  0.00000000000E+00  0.22420468725E+03  0.22420468725E+03  0.00000000000E+00 0. -1.
         21   -1    0    0  501  503 -0.00000000000E+00 -0.00000000000E+00 -0.16296072267E+03  0.16296072267E+03  0.00000000000E+00 0.  1.
          6    2    1    2  501    0  0.51221661947E+02  0.50233333056E+02 -0.26763812482E+02  0.18166349565E+03  0.16473699521E+03 0.  0.
         24    2    3    3    0    0  0.57501653933E+02  0.60558489952E+02 -0.72778218163E+02  0.13385698255E+03  0.75148199105E+02 0.  0.
         -6    2    1    2    0  502 -0.51221661947E+02 -0.50233333056E+02  0.88007777064E+02  0.20550191427E+03  0.17128520526E+03 0.  0.
        -24    2    5    5    0    0 -0.58194788680E+02  0.57426117647E+00  0.11193630669E+03  0.14871546643E+03  0.78737475157E+02 0.  0.
          5    1    3    3  501    0 -0.62799919854E+01 -0.10325156896E+02  0.46014405681E+02  0.47806513096E+02  0.47000000000E+01 0. -1.
        -13    1    4    4    0    0  0.63376828473E+01  0.29280183262E+02 -0.67267403932E+02  0.73636940373E+02  0.00000000000E+00 0.  1.
         14    1    4    4    0    0  0.51163971086E+02  0.31278306690E+02 -0.55108142312E+01  0.60220042180E+02  0.00000000000E+00 0. -1.
         -5    1    5    5    0  502  0.69731267321E+01 -0.50807594233E+02 -0.23928529628E+02  0.56786447840E+02  0.47000000000E+01 0.  1.
         13    1    6    6    0    0 -0.23624481893E+02 -0.38301174000E+02  0.42031407689E+02  0.61577068027E+02  0.00000000000E+00 0. -1.
        -14    1    6    6    0    0 -0.34570306786E+02  0.38875435177E+02  0.69904899003E+02  0.87138398402E+02  0.00000000000E+00 0.  1.
</event>
<event>
12    1  0.8416569E-002  0.3028536E+03  0.7818608E-02  0.1083843E+00
         21   -1    0    0  503  502  0.00000000000E+00  0.00000000000E+00  0.49068765188E+02  0.49068765188E+02  0.00000000000E+00 0. -1.
         21   -1    0    0  501  503 -0.00000000000E+00 -0.00000000000E+00 -0.21187329063E+04  0.21187329063E+04  0.00000000000E+00 0.  1.
          6    2    1    2  501    0  0.22578045169E+03 -0.10574500892E+03 -0.14073109074E+04  0.14394939812E+04  0.17163948363E+03 0.  0.
         24    2    3    3    0    0  0.17678363985E+03 -0.60703968469E+02 -0.12786142472E+04  0.12945308712E+04  0.77578065423E+02 0.  0.
         -6    2    1    2    0  502 -0.22578045169E+03  0.10574500892E+03 -0.66235323369E+03  0.72830769034E+03  0.17193448273E+03 0.  0.
        -24    2    5    5    0    0 -0.14309332231E+03  0.10747997075E+03 -0.31356419742E+03  0.36981633301E+03  0.80087272741E+02 0.  0.
          5    1    3    3  501    0  0.48996811840E+02 -0.45041040448E+02 -0.12869666024E+03  0.14496310997E+03  0.47000000000E+01 0. -1.
        -11    1    4    4    0    0  0.15406356378E+03 -0.22300276724E+02 -0.10639711458E+04  0.10752987879E+04  0.00000000000E+00 0.  1.
         12    1    4    4    0    0  0.22720076064E+02 -0.38403691745E+02 -0.21464310135E+03  0.21923208331E+03  0.00000000000E+00 0. -1.
         -5    1    5    5    0  502 -0.82687129377E+02 -0.17349618354E+01 -0.34878903627E+03  0.35849135733E+03  0.47000000000E+01 0.  1.
         11    1    6    6    0    0 -0.29890166361E+02 -0.32124115602E+01 -0.19484556460E+02  0.35824427052E+02  0.00000000000E+00 0. -1.
        -12    1    6    6    0    0 -0.11320315595E+03  0.11069238231E+03 -0.29407964096E+03  0.33399190596E+03  0.00000000000E+00 0.  1.
</event>
<event>
12    1  0.8416569E-002  0.2268057E+03  0.7818608E-02  0.1128922E+00
         21   -1    0    0  501  502  0.00000000000E+00  0.00000000000E+00  0.56312338439E+02  0.56312338439E+02  0.00000000000E+00 0.  1.
         21   -1    0    0  502  503 -0.00000000000E+00 -0.00000000000E+00 -0.10410642276E+04  0.10410642276E+04  0.00000000000E+00 0.  1.
         -6    2    1    2    0  503 -0.29777271558E+02  0.14483682820E+03 -0.68460533051E+03  0.72117342636E+03  0.17187861885E+03 0.  0.
        -24    2    3    3    0    0 -0.85053928489E+02  0.11578437141E+03 -0.48288979330E+03  0.50996073262E+03  0.78975976860E+02 0.  0.
          6    2    1    2  501    0  0.29777271558E+02 -0.14483682820E+03 -0.30014655867E+03  0.37620313970E+03  0.17197805946E+03 0.  0.
         24    2    5    5    0    0  0.22097414050E+02 -0.13331755701E+03 -0.31729738774E+03  0.35366617545E+03  0.78359840922E+02 0.  0.
          5    1    5    5  501    0  0.76798575082E+01 -0.11519271187E+02  0.17150829072E+02  0.22536964256E+02  0.47000000000E+01 0. -1.
        -11    1    6    6    0    0  0.27949287930E+02 -0.13813777158E+03 -0.25886903390E+03  0.29474799973E+03  0.00000000000E+00 0.  1.
         12    1    6    6    0    0 -0.58518738804E+01  0.48202145697E+01 -0.58428353849E+02  0.58918175718E+02  0.00000000000E+00 0. -1.
         -5    1    3    3    0  503  0.55276656930E+02  0.29052456792E+02 -0.20171553721E+03  0.21121269374E+03  0.47000000000E+01 0.  1.
         11    1    4    4    0    0 -0.20438505373E+02  0.20272883044E+01 -0.16394638583E+03  0.16522790268E+03  0.00000000000E+00 0. -1.
        -12    1    4    4    0    0 -0.64615423116E+02  0.11375708310E+03 -0.31894340748E+03  0.34473282993E+03  0.00000000000E+00 0.  1.
</event>
<event>
12    1  0.8416569E-002  0.1978707E+03  0.7818608E-02  0.1151908E+00
         21   -1    0    0  501  502  0.00000000000E+00  0.00000000000E+00  0.60011910712E+03  0.60011910712E+03  0.00000000000E+00 0. -1.
         21   -1    0    0  502  503 -0.00000000000E+00 -0.00000000000E+00 -0.72286250522E+02  0.72286250522E+02  0.00000000000E+00 0. -1.
         -6    2    1    2    0  503 -0.34837604067E+02 -0.89631079270E+02  0.37189216763E+03  0.42047222949E+03  0.17101380764E+03 0.  0.
        -24    2    3    3    0    0 -0.66427225808E+02 -0.11446165802E+03  0.31220890596E+03  0.34837060978E+03  0.79835038093E+02 0.  0.
          6    2    1    2  501    0  0.34837604067E+02  0.89631079270E+02  0.15594068897E+03  0.25193312815E+03  0.17293181765E+03 0.  0.
         24    2    5    5    0    0 -0.30846813894E+02  0.98041620405E+02  0.88532737103E+02  0.15732286475E+03  0.79679062346E+02 0.  0.
          5    1    5    5  501    0  0.65684417961E+02 -0.84105411347E+01  0.67407951871E+02  0.94610263400E+02  0.47000000000E+01 0. -1.
        -11    1    6    6    0    0 -0.39549958814E+02  0.33658502120E+02  0.74567361731E+02  0.90870157052E+02  0.00000000000E+00 0.  1.
         12    1    6    6    0    0  0.87031449201E+01  0.64383118285E+02  0.13965375372E+02  0.66452707702E+02  0.00000000000E+00 0. -1.
         -5    1    3    3    0  503  0.31589621741E+02  0.24830578751E+02  0.59683261663E+02  0.72101619716E+02  0.47000000000E+01 0.  1.
         13    1    4    4    0    0  0.17272093176E+02 -0.16232351468E+02  0.31538286762E+02  0.39452223875E+02  0.00000000000E+00 0. -1.
        -14    1    4    4    0    0 -0.83699318984E+02 -0.98229306553E+02  0.28067061920E+03  0.30891838590E+03  0.00000000000E+00 0.  1.
</event>
<event>
12    1  0.8416569E-002  0.2307912E+03  0.7818608E-02  0.1126282E+00
         21   -1    0    0  501  502  0.00000000000E+00  0.00000000000E+00  0.42110267195E+03  0.42110267195E+03  0.00000000000E+00 0. -1.
         21   -1    0    0  502  503 -0.00000000000E+00 -0.00000000000E+00 -0.18534489834E+03  0.18534489834E+03  0.00000000000E+00 0.  1.
         -6    2    1    2    0  503  0.13853981934E+03  0.63049205196E+02 -0.53688421043E+02  0.23695366832E+03  0.17348230617E+03 0.  0.
        -24    2    3    3    0    0  0.20762922608E+02 -0.15242875999E+02 -0.37948243270E+02  0.94577790518E+02  0.82713028405E+02 0.  0.
          6    2    1    2  501    0 -0.13853981934E+03 -0.63049205196E+02  0.28944619465E+03  0.36949390198E+03  0.17198302294E+03 0.  0.
         24    2    5    5    0    0 -0.59676319170E+02  0.32022237572E+02  0.11151049418E+03  0.15283464325E+03  0.79606225240E+02 0.  0.
          5    1    5    5  501    0 -0.78863500173E+02 -0.95071442768E+02  0.17793570047E+03  0.21665925872E+03  0.47000000000E+01 0. -1.
        -13    1    6    6    0    0 -0.14947676824E+02  0.60398523184E+01 -0.11224569447E+02  0.19644434778E+02  0.00000000000E+00 0.  1.
         14    1    6    6    0    0 -0.44728642346E+02  0.25982385253E+02  0.12273506363E+03  0.13319020848E+03  0.00000000000E+00 0. -1.
         -5    1    3    3    0  503  0.11777689674E+03  0.78292081195E+02 -0.15740177773E+02  0.14237587780E+03  0.47000000000E+01 0.  1.
         13    1    4    4    0    0  0.12162967387E+02  0.29702454329E+02 -0.36761847040E+02  0.48801710694E+02  0.00000000000E+00 0. -1.
        -14    1    4    4    0    0  0.85999552206E+01 -0.44945330327E+02 -0.11863962294E+01  0.45776079824E+02  0.00000000000E+00 0.  1.
</event>
<event>
12    1  0.8416569E-002  0.2550950E+03  0.7818608E-02  0.1110175E+00
         21   -1    0    0  503  502  0.00000000000E+00  0.00000000000E+00  0.86807489826E+02  0.86807489826E+02  0.00000000000E+00 0.  1.
         21   -1    0    0  501  503 -0.00000000000E+00 -0.00000000000E+00 -0.76679383058E+03  0.76679383058E+03  0.00000000000E+00 0.  1.
          6    2    1    2  501    0  0.67488710081E-01  0.18774621928E+03 -0.40533551732E+03  0.47875930941E+03  0.17223515130E+03 0.  0.
         24    2    3    3    0    0  0.33341666907E+02  0.15669103417E+03 -0.19761502716E+03  0.26605884517E+03  0.77922161123E+02 0.  0.
         -6    2    1    2    0  502 -0.67488710081E-01 -0.18774621928E+03 -0.27465082344E+03  0.37484201099E+03  0.17269861315E+03 0.  0.
        -24    2    5    5    0    0  0.24892650162E+02 -0.14992062628E+03 -0.28025963369E+03  0.32893631667E+03  0.80980244116E+02 0.  0.
          5    1    3    3  501    0 -0.33274178197E+02  0.31055185112E+02 -0.20772049016E+03  0.21270046424E+03  0.47000000000E+01 0. -1.
        -11    1    4    4    0    0  0.32826598685E+02  0.48929426894E+02 -0.11860658612E+03  0.13243563217E+03  0.00000000000E+00 0.  1.
         12    1    4    4    0    0  0.51506822236E+00  0.10776160727E+03 -0.79008441042E+02  0.13362321300E+03  0.00000000000E+00 0. -1.
         -5    1    5    5    0  502 -0.24960138873E+02 -0.37825593002E+02  0.56088102505E+01  0.45905694319E+02  0.47000000000E+01 0.  1.
         13    1    6    6    0    0  0.36001179824E+02 -0.64267211942E+02 -0.69960152759E+02  0.10159125186E+03  0.00000000000E+00 0. -1.
        -14    1    6    6    0    0 -0.11108529662E+02 -0.85653414335E+02 -0.21029948093E+03  0.22734506482E+03  0.00000000000E+00 0.  1.
</event>
<event>
12    1  0.8416569E-002  0.2258760E+03  0.7818608E-02  0.1129681E+00
         21   -1    0    0  501  502  0.00000000000E+00  0.00000000000E+00  0.29590645028E+03  0.29590645028E+03  0.00000000000E+00 0. -1.
         21   -1    0    0  502  503 -0.00000000000E+00 -0.00000000000E+00 -0.62734554371E+03  0.62734554371E+03  0.00000000000E+00 0. -1.
         -6    2    1    2    0  503  0.95921108594E+02 -0.10977853626E+03 -0.55907136134E+03  0.60297656767E+03  0.17253338224E+03 0.  0.
        -24    2    3    3    0    0  0.48306872692E+02 -0.12403574176E+03 -0.28585500457E+03  0.32523630955E+03  0.79669029311E+02 0.  0.
          6    2    1    2  501    0 -0.95921108594E+02  0.10977853626E+03  0.22763226792E+03  0.32027542631E+03  0.17177809292E+03 0.  0.
         24    2    5    5    0    0 -0.43867721426E+01  0.39278556384E+02  0.34529327416E+02  0.95198511587E+02  0.79425646961E+02 0.  0.
          5    1    5    5  501    0 -0.91534336452E+02  0.70499979874E+02  0.19310294050E+03  0.22507691473E+03  0.47000000000E+01 0. -1.
        -11    1    6    6    0    0 -0.37038414560E+02  0.41097712366E+02  0.27355465982E+02  0.61718616591E+02  0.00000000000E+00 0.  1.
         12    1    6    6    0    0  0.32651642418E+02 -0.18191559819E+01  0.71738614340E+01  0.33479894996E+02  0.00000000000E+00 0. -1.
         -5    1    3    3    0  503  0.47614235902E+02  0.14257205505E+02 -0.27321635678E+03  0.27774025812E+03  0.47000000000E+01 0.  1.
         13    1    4    4    0    0  0.32619190975E+02 -0.90912202968E+02 -0.26717919513E+03  0.28410167648E+03  0.00000000000E+00 0. -1.
        -14    1    4    4    0    0  0.15687681717E+02 -0.33123538794E+02 -0.18675809438E+02  0.41134633074E+02  0.00000000000E+00 0.  1.
</event>
<event>
12    1  0.8416569E-002  0.1789999E+03  0.7818608E-02  0.1169240E+00
         21   -1    0    0  501  502  0.00000000000E+00  0.00000000000E+00  0.34345009573E+02  0.34345009573E+02  0.00000000000E+00 0. -1.
         21   -1    0    0  502  503 -0.00000000000E+00 -0.00000000000E+00 -0.13171377004E+04  0.13171377004E+04  0.00000000000E+00 0. -1.
         -6    2    1    2    0  503 -0.28220869885E+02 -0.29854950241E+02 -0.10086246621E+04  0.10240547298E+04  0.17226910627E+03 0.  0.
        -24    2    3    3    0    0 -0.45200591674E+02 -0.56909796353E+02 -0.40101342308E+03  0.41558633827E+03  0.81353676346E+02 0.  0.
          6    2    1    2  501    0  0.28220869885E+02  0.29854950241E+02 -0.27416802875E+03  0.32742798025E+03  0.17422180894E+03 0.  0.
         24    2    5    5    0    0  0.85225131196E+02  0.13817062911E+02 -0.20018233503E+03  0.23254556611E+03  0.80933545849E+02 0.  0.
          5    1    5    5  501    0 -0.57004261311E+02  0.16037887331E+02 -0.73985693724E+02  0.94882414143E+02  0.47000000000E+01 0. -1.
        -13    1    6    6    0    0  0.26409528518E+02  0.43116518091E+02 -0.10897363821E+03  0.12013222362E+03  0.00000000000E+00 0.  1.
         14    1    6    6    0    0  0.58815602678E+02 -0.29299455181E+02 -0.91208696819E+02  0.11241334248E+03  0.00000000000E+00 0. -1.
         -5    1    3    3    0  503  0.16979721789E+02  0.27054846112E+02 -0.60761123903E+03  0.60846839149E+03  0.47000000000E+01 0.  1.
         13    1    4    4    0    0 -0.50316483016E+02 -0.14115030148E+02 -0.31578663325E+03  0.32008152130E+03  0.00000000000E+00 0. -1.
        -14    1    4    4    0    0  0.51158913420E+01 -0.42794766205E+02 -0.85226789825E+02  0.95504816961E+02  0.00000000000E+00 0.  1.
</event>
<event>
12    1  0.8416569E-002  0.2135446E+03  0.7818608E-02  0.1138804E+00
         21   -1    0    0  501  502  0.00000000000E+00  0.00000000000E+00  0.40041660104E+02  0.40041660104E+02  0.00000000000E+00 0. -1.
         21   -1    0    0  502  503 -0.00000000000E+00 -0.00000000000E+00 -0.11657471665E+04  0.11657471665E+04  0.00000000000E+00 0.  1.
         -6    2    1    2    0  503  0.12541756633E+03  0.27329601221E+01 -0.65519543411E+03  0.68911708773E+03  0.17281281409E+03 0.  0.
        -24    2    3    3    0    0  0.12766261433E+02  0.39785007630E+02 -0.35083127130E+03  0.36243252378E+03  0.80801789037E+02 0.  0.
          6    2    1    2  501    0 -0.12541756633E+03 -0.27329601221E+01 -0.47051007225E+03  0.51667173884E+03  0.17272209646E+03 0.  0.
         24    2    5    5    0    0 -0.62758757518E+02 -0.31610714888E+00 -0.10647067666E+03  0.14724144900E+03  0.80032979126E+02 0.  0.
          5    1    5    5  501    0 -0.62658808814E+02 -0.24168529732E+01 -0.36403939560E+03  0.36943028983E+03  0.47000000000E+01 0. -1.
        -11    1    6    6    0    0 -0.30668328184E+02 -0.19350041060E+02 -0.10366617082E+03  0.10982552261E+03  0.00000000000E+00 0.  1.
         12    1    6    6    0    0 -0.32090429334E+02  0.19033933911E+02 -0.28045058310E+01  0.37415926395E+02  0.00000000000E+00 0. -1.
         -5    1    3    3    0  503  0.11265130490E+03 -0.37052047508E+02 -0.30436416281E+03  0.32668456395E+03  0.47000000000E+01 0.  1.
         13    1    4    4    0    0  0.66695709452E+01  0.33865750718E+02 -0.46135057817E+02  0.57617842793E+02  0.00000000000E+00 0. -1.
        -14    1    4    4    0    0  0.60966904878E+01  0.59192569116E+01 -0.30469621348E+03  0.30481468099E+03  0.00000000000E+00 0.  1.
</event>
<event>
12    1  0.8416569E-002  0.2243667E+03  0.7818608E-02  0.1130831E+00
         21   -1    0    0  501  502  0.00000000000E+00  0.00000000000E+00  0.40662309968E+03  0.40662309968E+03  0.00000000000E+00 0.  1.
         21   -1    0    0  502  503 -0.00000000000E+00 -0.00000000000E+00 -0.12913748040E+03  0.12913748040E+03  0.00000000000E+00 0.  1.
         -6    2    1    2    0  503 -0.13544728159E+03  0.46671886073E+02  0.19539068436E+03  0.29684640244E+03  0.17151103774E+03 0.  0.
        -24    2    3    3    0    0 -0.20419889721E+02 -0.11672189693E+02  0.32000025621E+02  0.88630338170E+02  0.79234609205E+02 0.  0.
          6    2    1    2  501    0  0.13544728159E+03 -0.46671886073E+02  0.82094934913E+02  0.23891417764E+03  0.17267360801E+03 0.  0.
         24    2    5    5    0    0  0.68365041921E+02  0.37512066854E+02  0.43091900374E+01  0.10602446053E+03  0.71705529740E+02 0.  0.
          5    1    5    5  501    0  0.67082239665E+02 -0.84183952927E+02  0.77785744876E+02  0.13288971711E+03  0.47000000000E+01 0. -1.
        -13    1    6    6    0    0  0.60360438026E+02  0.13607444415E+02  0.31088527890E+02  0.69246238804E+02  0.00000000000E+00 0.  1.
         14    1    6    6    0    0  0.80046038951E+01  0.23904622439E+02 -0.26779337852E+02  0.36778221725E+02  0.00000000000E+00 0. -1.
         -5    1    3    3    0  503 -0.11502739186E+03  0.58344075765E+02  0.16339065874E+03  0.20821606427E+03  0.47000000000E+01 0.  1.
         11    1    4    4    0    0  0.27910536883E+02  0.95319525358E+01  0.15592718268E+02  0.33361490543E+02  0.00000000000E+00 0. -1.
        -12    1    4    4    0    0 -0.48330426605E+02 -0.21204142228E+02  0.16407307353E+02  0.55268847627E+02  0.00000000000E+00 0.  1.
</event>
<event>
12    1  0.8416569E-002  0.2421203E+03  0.7818608E-02  0.1120356E+00
         21   -1    0    0  503  502  0.00000000000E+00  0.00000000000E+00  0.15375028510E+03  0.15375028510E+03  0.00000000000E+00 0.  1.
         21   -1    0    0  501  503 -0.00000000000E+00 -0.00000000000E+00 -0.43737852636E+03  0.43737852636E+03  0.00000000000E+00 0. -1.
          6    2    1    2  501    0 -0.16226391265E+03 -0.51494920511E+02 -0.26642531017E+03  0.36000648966E+03  0.17216539289E+03 0.  0.
         24    2    3    3    0    0 -0.57102132429E+02 -0.88748331557E+02 -0.12572803463E+03  0.18038291103E+03  0.74789945970E+02 0.  0.
         -6    2    1    2    0  502  0.16226391265E+03  0.51494920511E+02 -0.17202931080E+02  0.23112232180E+03  0.15537143435E+03 0.  0.
        -24    2    5    5    0    0  0.71531610495E+02 -0.26148558274E+02 -0.77940651042E+01  0.11124122567E+03  0.80705293735E+02 0.  0.
          5    1    3    3  501    0 -0.10516178022E+03  0.37253411046E+02 -0.14069727554E+03  0.17962357863E+03  0.47000000000E+01 0. -1.
        -13    1    4    4    0    0 -0.42798545611E+02 -0.99457483037E+01 -0.21442678275E+02  0.48891940720E+02  0.00000000000E+00 0.  1.
         14    1    4    4    0    0 -0.14303586817E+02 -0.78802583254E+02 -0.10428535636E+03  0.13149097031E+03  0.00000000000E+00 0. -1.
         -5    1    5    5    0  502  0.90732302152E+02  0.77643478785E+02 -0.94088659761E+01  0.11988109614E+03  0.47000000000E+01 0.  1.
         11    1    6    6    0    0  0.21578273239E+02  0.23971597244E+01 -0.39849204003E+02  0.45379811705E+02  0.00000000000E+00 0. -1.
        -12    1    6    6    0    0  0.49953337256E+02 -0.28545717999E+02  0.32055138898E+02  0.65861413960E+02  0.00000000000E+00 0.  1.
</event>
<event>
12    1  0.8416569E-002  0.2001393E+03  0.7818608E-02  0.1149722E+00
         21   -1    0    0  501  502  0.00000000000E+00  0.00000000000E+00  0.40340175515E+02  0.40340175515E+02  0.00000000000E+00 0.  1.
         21   -1    0    0  502  503 -0.00000000000E+00 -0.00000000000E+00 -0.99204951557E+03  0.99204951557E+03  0.00000000000E+00 0. -1.
         -6    2    1    2    0  503  0.20785335338E+02  0.98070634304E+02 -0.45658522178E+03  0.49852363415E+03  0.17322202397E+03 0.  0.
        -24    2    3    3    0    0 -0.25038292754E+02 -0.89889932874E+01 -0.21474989948E+03  0.23006883002E+03  0.78143644122E+02 0.  0.
          6    2    1    2  501    0 -0.20785335338E+02 -0.98070634304E+02 -0.49512411828E+03  0.53386605693E+03  0.17267076986E+03 0.  0.
         24    2    5    5    0    0  0.10436502432E+02 -0.13014909256E+03 -0.41063461196E+03  0.43813519818E+03  0.79334484778E+02 0.  0.
          5    1    5    5  501    0 -0.31221837770E+02  0.32078458253E+02 -0.84489506320E+02  0.95730858744E+02  0.47000000000E+01 0. -1.
        -11    1    6    6    0    0  0.23754400029E+02 -0.54873483786E+02 -0.28391436041E+03  0.29014261113E+03  0.00000000000E+00 0.  1.
         12    1    6    6    0    0 -0.13317897597E+02 -0.75275608772E+02 -0.12672025154E+03  0.14799258705E+03  0.00000000000E+00 0. -1.
         -5    1    3    3    0  503  0.45823628093E+02  0.10705962759E+03 -0.24183532230E+03  0.26845480414E+03  0.47000000000E+01 0.  1.
         13    1    4    4    0    0 -0.49449657680E+01  0.31920471972E+02 -0.53439750520E+02  0.62443383581E+02  0.00000000000E+00 0. -1.
        -14    1    4    4    0    0 -0.20093326986E+02 -0.40909465260E+02 -0.16131014896E+03  0.16762544644E+03  0.00000000000E+00 0.  1.
</event>
<event>
12    1  0.8416569E-002  0.2447186E+03  0.7818608E-02  0.1116895E+00
         21   -1    0    0  503  502  0.00000000000E+00  0.00000000000E+00  0.18442500149E+03  0.18442500149E+03  0.00000000000E+00 0. -1.
         21   -1    0    0  501  503 -0.00000000000E+00 -0.00000000000E+00 -0.45570152165E+03  0.45570152165E+03  0.00000000000E+00 0.  1.
          6    2    1    2  501    0 -0.10010649798E+03 -0.14047460790E+03 -0.30857599115E+03  0.39383543799E+03  0.17358797050E+03 0.  0.
         24    2    3    3    0    0 -0.13400705481E+03 -0.85023549256E+02 -0.20396699668E+03  0.27059096800E+03  0.80187539961E+02 0.  0.
         -6    2    1    2    0  502  0.10010649798E+03  0.14047460790E+03  0.37299470990E+02  0.24629108516E+03  0.17179529007E+03 0.  0.
        -24    2    5    5    0    0  0.99867347617E+02  0.16675929850E+03  0.51417314124E+02  0.21608602519E+03  0.79166150165E+02 0.  0.
          5    1    3    3  501    0  0.33900556831E+02 -0.55451058641E+02 -0.10460899447E+03  0.12324446999E+03  0.47000000000E+01 0. -1.
        -13    1    4    4    0    0 -0.90226329344E+02 -0.18555196665E+02 -0.14398185100E+03  0.17092647322E+03  0.00000000000E+00 0.  1.
         14    1    4    4    0    0 -0.43780725464E+02 -0.66468352591E+02 -0.59985145676E+02  0.99664494781E+02  0.00000000000E+00 0. -1.
         -5    1    5    5    0  502  0.23915035941E+00 -0.26284690605E+02 -0.14117843134E+02  0.30205059971E+02  0.47000000000E+01 0.  1.
         13    1    6    6    0    0  0.82717404280E+02  0.75329408942E+02  0.46681294622E+01  0.11197535557E+03  0.00000000000E+00 0. -1.
        -14    1    6    6    0    0  0.17149943338E+02  0.91429889560E+02  0.46749184661E+02  0.10411066962E+03  0.00000000000E+00 0.  1.
</event>
<event>
12    1  0.8416569E-002  0.1736819E+03  0.7818608E-02  0.1174253E+00
         21   -1    0    0  501  502  0.00000000000E+00  0.00000000000E+00  0.47000663629E+03  0.47000663629E+03  0.00000000000E+00 0. -1.
         21   -1    0    0  502  503 -0.00000000000E+00 -0.00000000000E+00 -0.74999684543E+02  0.74999684543E+02  0.00000000000E+00 0. -1.
         -6    2    1    2    0  503 -0.19371291004E+02  0.12336803494E+02  0.93051693727E+02  0.19703811956E+03  0.17215678674E+03 0.  0.
        -24    2    3    3    0    0  0.38252037785E+02 -0.27646669924E+02  0.17901621424E+02  0.94136469749E+02  0.79458480571E+02 0.  0.
          6    2    1    2  501    0  0.19371291004E+02 -0.12336803494E+02  0.30195525802E+03  0.34796820127E+03  0.17139850528E+03 0.  0.
         24    2    5    5    0    0  0.33423971258E+01 -0.27987918196E+02  0.31151539580E+03  0.32316156779E+03  0.81222299226E+02 0.  0.
          5    1    5    5  501    0  0.16028893879E+02  0.15651114702E+02 -0.95601377787E+01  0.24806633482E+02  0.47000000000E+01 0. -1.
        -13    1    6    6    0    0 -0.52274726370E+01  0.23057375037E+02  0.37722839423E+02  0.44519452242E+02  0.00000000000E+00 0.  1.
         14    1    6    6    0    0  0.85698697628E+01 -0.51045293233E+02  0.27379255638E+03  0.27864211555E+03  0.00000000000E+00 0. -1.
         -5    1    3    3    0  503 -0.57623328789E+02  0.39983473418E+02  0.75150072303E+02  0.10290164981E+03  0.47000000000E+01 0.  1.
         11    1    4    4    0    0 -0.33060003992E+01  0.30381009016E+01 -0.25974271121E+02  0.26359485124E+02  0.00000000000E+00 0. -1.
        -12    1    4    4    0    0  0.41558038184E+02 -0.30684770826E+02  0.43875892545E+02  0.67776984626E+02  0.00000000000E+00 0.  1.
</event>
<event>
12    1  0.8416569E-002  0.3430988E+03  0.7818608E-02  0.1065547E+00
         21   -1    0    0  501  502  0.00000000000E+00  0.00000000000E+00  0.12669714619E+03  0.12669714619E+03  0.00000000000E+00 0.  1.
         21   -1    0    0  502  503 -0.00000000000E+00 -0.00000000000E+00 -0.94542478458E+03  0.94542478458E+03  0.00000000000E+00 0. -1.
         -6    2    1    2    0  503  0.28716748126E+03  0.70748346639E+02 -0.48352047912E+03  0.59288183514E+03  0.17391470858E+03 0.  0.
        -24    2    3    3    0    0  0.23341182941E+03  0.34238859119E+02 -0.46072593714E+03  0.52385797021E+03  0.80656073671E+02 0.  0.
          6    2    1    2  501    0 -0.28716748126E+03 -0.70748346639E+02 -0.33520715926E+03  0.47924009563E+03  0.17273314330E+03 0.  0.
         24    2    5    5    0    0 -0.41210546677E+02 -0.39447445481E+02 -0.11192859950E+03  0.14554867330E+03  0.73498263944E+02 0.  0.
          5    1    5    5  501    0 -0.24595693459E+03 -0.31300901158E+02 -0.22327855977E+03  0.33369142233E+03  0.47000000000E+01 0. -1.
        -11    1    6    6    0    0 -0.14448239037E+02  0.15717193245E+02 -0.44453039361E+01  0.21806937012E+02  0.00000000000E+00 0.  1.
         12    1    6    6    0    0 -0.26762307639E+02 -0.55164638726E+02 -0.10748329556E+03  0.12374173629E+03  0.00000000000E+00 0. -1.
         -5    1    3    3    0  503  0.53755651856E+02  0.36509487520E+02 -0.22794541983E+02  0.69023864928E+02  0.47000000000E+01 0.  1.
         13    1    4    4    0    0  0.61607471373E+02  0.45516978368E+02 -0.12626815123E+03  0.14768521207E+03  0.00000000000E+00 0. -1.
        -14    1    4    4    0    0  0.17180435803E+03 -0.11278119248E+02 -0.33445778591E+03  0.37617275814E+03  0.00000000000E+00 0.  1.
</event>
<event>
12    1  0.8416569E-002  0.1865001E+03  0.7818608E-02  0.1161752E+00
         21   -1    0    0  501  502  0.00000000000E+00  0.00000000000E+00  0.42541265102E+03  0.42541265102E+03  0.00000000000E+00 0. -1.
         21   -1    0    0  502  503 -0.00000000000E+00 -0.00000000000E+00 -0.82833227934E+02  0.82833227934E+02  0.00000000000E+00 0. -1.
         -6    2    1    2    0  503  0.54749159841E+02 -0.44173693328E+02  0.14022157434E+03  0.23333318904E+03  0.17272377228E+03 0.  0.
        -24    2    3    3    0    0  0.34558868017E+02 -0.95470036851E+01  0.16592528975E+03  0.18548523709E+03  0.74753667204E+02 0.  0.
          6    2    1    2  501    0 -0.54749159841E+02  0.44173693328E+02  0.20235784875E+03  0.27491268992E+03  0.17227739968E+03 0.  0.
         24    2    5    5    0    0 -0.10565726889E+01  0.11114672811E+02  0.17376927952E+02  0.79424010419E+02  0.76691352240E+02 0.  0.
          5    1    5    5  501    0 -0.53692587152E+02  0.33059020517E+02  0.18498092080E+03  0.19548867950E+03  0.47000000000E+01 0. -1.
        -11    1    6    6    0    0  0.22010091683E+02 -0.24096135501E+02 -0.27790946410E+01  0.32753492165E+02  0.00000000000E+00 0.  1.
         12    1    6    6    0    0 -0.23066664372E+02  0.35210808313E+02  0.20156022593E+02  0.46670518254E+02  0.00000000000E+00 0. -1.
         -5    1    3    3    0  503  0.20190291824E+02 -0.34626689643E+02 -0.25703715415E+02  0.47847951949E+02  0.47000000000E+01 0.  1.
         11    1    4    4    0    0  0.57313069254E+02  0.19874316644E+01  0.11186542874E+03  0.12570844021E+03  0.00000000000E+00 0. -1.
        -12    1    4    4    0    0 -0.22754201237E+02 -0.11534435350E+02  0.54059861014E+02  0.59776796883E+02  0.00000000000E+00 0.  1.
</event>
<event>
12    1  0.8416569E-002  0.1928984E+03  0.7818608E-02  0.1156720E+00
         21   -1    0    0  503  502  0.00000000000E+00  0.00000000000E+00  0.11877253243E+03  0.11877253243E+03  0.00000000000E+00 0. -1.
         21   -1    0    0  501  503 -0.00000000000E+00 -0.00000000000E+00 -0.31541143694E+03  0.31541143694E+03  0.00000000000E+00 0. -1.
          6    2    1    2  501    0 -0.34303361862E+02 -0.80859793638E+02 -0.13248280155E+03  0.23089644862E+03  0.16747074496E+03 0.  0.
         24    2    3    3    0    0  0.16906032492E+02 -0.51389591881E+01 -0.11013140163E+03  0.13667478488E+03  0.78986380853E+02 0.  0.
         -6    2    1    2    0  502  0.34303361862E+02  0.80859793638E+02 -0.64156102964E+02  0.20328752076E+03  0.17174045443E+03 0.  0.
        -24    2    5    5    0    0 -0.29321236256E+02 -0.65544990328E+01 -0.22383656008E+02  0.87285902782E+02  0.78835933527E+02 0.  0.
          5    1    3    3  501    0 -0.51209394354E+02 -0.75720834450E+02 -0.22351399918E+02  0.94221663741E+02  0.47000000000E+01 0. -1.
        -13    1    4    4    0    0 -0.26430743635E+02  0.98996421270E+01 -0.17235630016E+02  0.33070440962E+02  0.00000000000E+00 0.  1.
         14    1    4    4    0    0  0.43336776127E+02 -0.15038601315E+02 -0.92895771612E+02  0.10360434391E+03  0.00000000000E+00 0. -1.
         -5    1    5    5    0  502  0.63624598117E+02  0.87414292671E+02 -0.41772446956E+02  0.11600161798E+03  0.47000000000E+01 0.  1.
         11    1    6    6    0    0 -0.28550166565E+02 -0.19572316232E+02  0.22007784555E+02  0.41018656177E+02  0.00000000000E+00 0. -1.
        -12    1    6    6    0    0 -0.77106969045E+00  0.13017817199E+02 -0.44391440564E+02  0.46267246605E+02  0.00000000000E+00 0.  1.
</event>
<event>
12    1  0.8416569E-002  0.2047876E+03  0.7818608E-02  0.1146637E+00
         21   -1    0    0  501  502  0.00000000000E+00  0.00000000000E+00  0.99976904787E+02  0.99976904787E+02  0.00000000000E+00 0.  1.
         21   -1    0    0  502  503 -0.00000000000E+00 -0.00000000000E+00 -0.20598280057E+04  0.20598280057E+04  0.00000000000E+00 0.  1.
         -6    2    1    2    0  503 -0.70389833870E+02  0.71661616863E+02 -0.19481755006E+04  0.19589093270E+04  0.17845967159E+03 0.  0.
        -24    2    3    3    0    0  0.65626034138E+01  0.69114818838E+02 -0.66288280988E+03  0.67130397034E+03  0.80096660445E+02 0.  0.
          6    2    1    2  501    0  0.70389833870E+02 -0.71661616863E+02 -0.11675600322E+02  0.20089558346E+03  0.17358744127E+03 0.  0.
         24    2    5    5    0    0  0.72465510717E+02 -0.43072882319E+02  0.55278095715E+02  0.12791262935E+03  0.78736582640E+02 0.  0.
          5    1    5    5  501    0 -0.20756768473E+01 -0.28588734543E+02 -0.66953696038E+02  0.72982954108E+02  0.47000000000E+01 0. -1.
        -13    1    6    6    0    0  0.68433224109E+02  0.35281425528E+01  0.34738230686E+02  0.76826418783E+02  0.00000000000E+00 0.  1.
         14    1    6    6    0    0  0.40322866081E+01 -0.46601024872E+02  0.20539865029E+02  0.51086210564E+02  0.00000000000E+00 0. -1.
         -5    1    3    3    0  503 -0.76952437284E+02  0.25467980249E+01 -0.12852926907E+04  0.12876053567E+04  0.47000000000E+01 0.  1.
         11    1    4    4    0    0  0.63340472139E+01 -0.17648851168E+02 -0.95212768184E+02  0.97041606164E+02  0.00000000000E+00 0. -1.
        -12    1    4    4    0    0  0.22855619986E+00  0.86763670005E+02 -0.56767004169E+03  0.57426236417E+03  0.00000000000E+00 0.  1.
</event>
<event>
12    1  0.8416569E-002  0.2928759E+03  0.7818608E-02  0.1089022E+00
         21   -1    0    0  503  502  0.00000000000E+00  0.00000000000E+00  0.18295576217E+03  0.18295576217E+03  0.00000000000E+00 0. -1.
         21   -1    0    0  501  503 -0.00000000000E+00 -0.00000000000E+00 -0.47036327723E+03  0.47036327723E+03  0.00000000000E+00 0. -1.
          6    2    1    2  501    0  0.20752662242E+03  0.10416354245E+03 -0.11558162163E+03  0.31485773617E+03  0.17849072855E+03 0.  0.
         24    2    3    3    0    0  0.11421067071E+03  0.44848632936E+02  0.11357673223E+02  0.14644811675E+03  0.79136445330E+02 0.  0.
         -6    2    1    2    0  502 -0.20752662242E+03 -0.10416354245E+03 -0.17182589343E+03  0.33846130323E+03  0.17639323553E+03 0.  0.
        -24    2    5    5    0    0 -0.14927706067E+03  0.32462340359E+01 -0.92291077983E+02  0.19259236069E+03  0.79246422273E+02 0.  0.
          5    1    3    3  501    0  0.93315951711E+02  0.59314909517E+02 -0.12693929486E+03  0.16840961942E+03  0.47000000000E+01 0. -1.
        -11    1    4    4    0    0  0.14194156711E+02  0.43618520880E+02  0.62494757772E+01  0.46293686351E+02  0.00000000000E+00 0.  1.
         12    1    4    4    0    0  0.10001651400E+03  0.12301120557E+01  0.51081974455E+01  0.10015443040E+03  0.00000000000E+00 0. -1.
         -5    1    5    5    0  502 -0.58249561745E+02 -0.10740977649E+03 -0.79534815451E+02  0.14586894254E+03  0.47000000000E+01 0.  1.
         13    1    6    6    0    0 -0.10616668646E+03 -0.33998652677E+02 -0.68584784717E+02  0.13088600534E+03  0.00000000000E+00 0. -1.
        -14    1    6    6    0    0 -0.43110374208E+02  0.37244886713E+02 -0.23706293266E+02  0.61706355354E+02  0.00000000000E+00 0.  1.
</event>
<event>
12    1  0.8416569E-002  0.1729382E+03  0.7818608E-02  0.1175613E+00
         21   -1    0    0  501  502  0.00000000000E+00  0.00000000000E+00  0.52391687321E+02  0.52391687321E+02  0.00000000000E+00 0.  1.
         21   -1    0    0  502  503 -0.00000000000E+00 -0.00000000000E+00 -0.57226056576E+03  0.57226056576E+03  0.00000000000E+00 0.  1.
         -6    2    1    2    0  503  0.20216551642E+02  0.65045032365E+01 -0.30661259705E+03  0.35202115678E+03  0.17162923010E+03 0.  0.
        -24    2    3    3    0    0  0.40710406825E+02 -0.48577266490E+02 -0.11515890668E+03  0.15169491033E+03  0.75714489958E+02 0.  0.
          6    2    1    2  501    0 -0.20216551642E+02 -0.65045032365E+01 -0.21325628139E+03  0.27263109631E+03  0.16851841324E+03 0.  0.
         24    2    5    5    0    0  0.41613537992E+02 -0.27654703064E+02 -0.76799983591E+02  0.12126167355E+03  0.79433537296E+02 0.  0.
          5    1    5    5  501    0 -0.61830089634E+02  0.21150199827E+02 -0.13645629780E+03  0.15136942276E+03  0.47000000000E+01 0. -1.
        -13    1    6    6    0    0  0.22466448505E+02 -0.19001327422E+02 -0.91173567774E+02  0.95804025035E+02  0.00000000000E+00 0.  1.
         14    1    6    6    0    0  0.19147089486E+02 -0.86533756417E+01  0.14373584183E+02  0.25457648518E+02  0.00000000000E+00 0. -1.
         -5    1    3    3    0  503 -0.20493855183E+02  0.55081769726E+02 -0.19145369038E+03  0.20032624645E+03  0.47000000000E+01 0.  1.
         11    1    4    4    0    0  0.27643618458E+01 -0.10068092003E+02 -0.92479749908E+02  0.93067246204E+02  0.00000000000E+00 0. -1.
        -12    1    4    4    0    0  0.37946044979E+02 -0.38509174486E+02 -0.22679156770E+02  0.58627664127E+02  0.00000000000E+00 0.  1.
</event>
<event>
12    1  0.8416569E-002  0.1915746E+03  0.7818608E-02  0.1158206E+00
         21   -1    0    0  503  502  0.00000000000E+00  0.00000000000E+00  0.42905968071E+02  0.42905968071E+02  0.00000000000E+00 0. -1.
         21   -1    0    0  501  503 -0.00000000000E+00 -0.00000000000E+00 -0.10855488893E+04  0.10855488893E+04  0.00000000000E+00 0. -1.
          6    2    1    2  501    0 -0.12584634481E+02  0.74216748780E+02 -0.78819873335E+03  0.80995421270E+03  0.17059333105E+03 0.  0.
         24    2    3    3    0    0 -0.57848064532E+02 -0.35970150836E+00 -0.43633036842E+03  0.44740233879E+03  0.80237986004E+02 0.  0.
         -6    2    1    2    0  502  0.12584634481E+02 -0.74216748780E+02 -0.25444418787E+03  0.31850064466E+03  0.17616559562E+03 0.  0.
        -24    2    5    5    0    0 -0.83700890949E+01 -0.11575681725E+03 -0.21672424358E+03  0.25842101478E+03  0.79638709132E+02 0.  0.
          5    1    3    3  501    0  0.45263430051E+02  0.74576450288E+02 -0.35186836493E+03  0.36255187391E+03  0.47000000000E+01 0. -1.
        -11    1    4    4    0    0  0.45218193207E+01 -0.24391218745E+02 -0.56071921652E+02  0.61314262611E+02  0.00000000000E+00 0.  1.
         12    1    4    4    0    0 -0.62369883853E+02  0.24031517236E+02 -0.38025844677E+03  0.38608807618E+03  0.00000000000E+00 0. -1.
         -5    1    5    5    0  502  0.20954723576E+02  0.41540068474E+02 -0.37719944292E+02  0.60079629878E+02  0.47000000000E+01 0.  1.
         13    1    6    6    0    0 -0.14549193118E+02 -0.47302235353E+02 -0.16538563312E+03  0.17263136486E+03  0.00000000000E+00 0. -1.
        -14    1    6    6    0    0  0.61791040230E+01 -0.68454581900E+02 -0.51338610456E+02  0.85789649919E+02  0.00000000000E+00 0.  1.
</event>
<event>
12    1  0.8416569E-002  0.1758465E+03  0.7818608E-02  0.1171916E+00
         21   -1    0    0  503  502  0.00000000000E+00  0.00000000000E+00  0.91899713754E+02  0.91899713754E+02  0.00000000000E+00 0.  1.
         21   -1    0    0  501  503 -0.00000000000E+00 -0.00000000000E+00 -0.11961760094E+04  0.11961760094E+04  0.00000000000E+00 0.  1.
          6    2    1    2  501    0  0.25940523183E+02  0.21600209893E+02 -0.10982654101E+04  0.11122539693E+04  0.17257607418E+03 0.  0.
         24    2    3    3    0    0  0.27368782476E+02  0.73539490587E+02 -0.90920693620E+03  0.91612919942E+03  0.80488199575E+02 0.  0.
         -6    2    1    2    0  502 -0.25940523183E+02 -0.21600209893E+02 -0.60108855327E+01  0.17582175385E+03  0.17244616137E+03 0.  0.
        -24    2    5    5    0    0 -0.62407918226E+02 -0.62868288953E+02 -0.11485438931E+02  0.12027910370E+03  0.80547982381E+02 0.  0.
          5    1    3    3  501    0 -0.14282592938E+01 -0.51939280695E+02 -0.18905847388E+03  0.19612476985E+03  0.47000000000E+01 0. -1.
        -13    1    4    4    0    0  0.46781727976E+02  0.12839784996E+02 -0.41790989713E+03  0.42071614215E+03  0.00000000000E+00 0.  1.
         14    1    4    4    0    0 -0.19412945500E+02  0.60699705591E+02 -0.49129703907E+03  0.49541305727E+03  0.00000000000E+00 0. -1.
         -5    1    5    5    0  502  0.36467395044E+02  0.41268079060E+02  0.54745533982E+01  0.55542650148E+02  0.47000000000E+01 0.  1.
         13    1    6    6    0    0  0.18178950549E+02 -0.24087261014E+02 -0.56978930357E+00  0.30182694480E+02  0.00000000000E+00 0. -1.
        -14    1    6    6    0    0 -0.80586868776E+02 -0.38781027939E+02 -0.10915649627E+02  0.90096409217E+02  0.00000000000E+00 0.  1.
</event>
<event>
12    1  0.8416569E-002  0.2004043E+03  0.7818608E-02  0.1149524E+00
         21   -1    0    0  503  502  0.00000000000E+00  0.00000000000E+00  0.72059030765E+03  0.72059030765E+03  0.00000000000E+00 0. -1.
         21   -1    0    0  501  503 -0.00000000000E+00 -0.00000000000E+00 -0.81994301640E+02  0.81994301640E+02  0.00000000000E+00 0.  1.
          6    2    1    2  501    0  0.65095737852E+02  0.77807130830E+02  0.91159222981E+02  0.21961897720E+03  0.17213682499E+03 0.  0.
         24    2    3    3    0    0  0.73468973408E+01 -0.21824588612E+02  0.24929670086E+02  0.86690982497E+02  0.79771852348E+02 0.  0.
         -6    2    1    2    0  502 -0.65095737852E+02 -0.77807130830E+02  0.54743678303E+03  0.58296563209E+03  0.17283081927E+03 0.  0.
        -24    2    5    5    0    0 -0.65127505825E+02 -0.11279862696E+03  0.50624179146E+03  0.52871138671E+03  0.79308617198E+02 0.  0.
          5    1    3    3  501    0  0.57748840511E+02  0.99631719442E+02  0.66229552895E+02  0.13292799470E+03  0.47000000000E+01 0. -1.
        -11    1    4    4    0    0 -0.88099915007E+01 -0.39041503324E+02 -0.12940726566E+02  0.42063253988E+02  0.00000000000E+00 0.  1.
         12    1    4    4    0    0  0.16156888841E+02  0.17216914712E+02  0.37870396652E+02  0.44627728509E+02  0.00000000000E+00 0. -1.
         -5    1    5    5    0  502  0.31767972599E-01  0.34991496134E+02  0.41194991572E+02  0.54254245378E+02  0.47000000000E+01 0.  1.
         11    1    6    6    0    0 -0.44969467309E+02 -0.80173960766E+01  0.16129757797E+03  0.16764080735E+03  0.00000000000E+00 0. -1.
        -12    1    6    6    0    0 -0.20158038516E+02 -0.10478123089E+03  0.34494421349E+03  0.36107057936E+03  0.00000000000E+00 0.  1.
</event>
<event>
12    1  0.8416569E-002  0.2489161E+03  0.7818608E-02  0.1114251E+00
         21   -1    0    0  503  502  0.00000000000E+00  0.00000000000E+00  0.41929867093E+03  0.41929867093E+03  0.00000000000E+00 0. -1.
         21   -1    0    0  501  503 -0.00000000000E+00 -0.00000000000E+00 -0.16634395312E+03  0.16634395312E+03  0.00000000000E+00 0. -1.
          6    2    1    2  501    0  0.11671608237E+03 -0.13343054204E+03  0.25749999782E+02  0.24862447519E+03  0.17240856631E+03 0.  0.
         24    2    3    3    0    0  0.12324345164E+03 -0.47341588566E+02  0.42387932635E+02  0.16057434588E+03  0.80976597504E+02 0.  0.
         -6    2    1    2    0  502 -0.11671608237E+03  0.13343054204E+03  0.22720471803E+03  0.33701814887E+03  0.17473664566E+03 0.  0.
        -24    2    5    5    0    0 -0.67442653239E+02  0.82744315310E+02  0.23063835898E+03  0.26608970402E+03  0.78832383953E+02 0.  0.
          5    1    3    3  501    0 -0.65273692660E+01 -0.86088953478E+02 -0.16637932853E+02  0.88050129302E+02  0.47000000000E+01 0. -1.
        -13    1    4    4    0    0  0.51644664895E+01  0.16821762060E+02 -0.46386188330E+01  0.18197806945E+02  0.00000000000E+00 0.  1.
         14    1    4    4    0    0  0.11807898515E+03 -0.64163350626E+02  0.47026551468E+02  0.14237653894E+03  0.00000000000E+00 0. -1.
         -5    1    5    5    0  502 -0.49273429134E+02  0.50686226734E+02 -0.34336409488E+01  0.70928444853E+02  0.47000000000E+01 0.  1.
         11    1    6    6    0    0 -0.34686937031E+02  0.90463991325E+02  0.14834465043E+03  0.17718084726E+03  0.00000000000E+00 0. -1.
        -12    1    6    6    0    0 -0.32755716208E+02 -0.77196760143E+01  0.82293708548E+02  0.88908856750E+02  0.00000000000E+00 0.  1.
</event>
<event>
12    1  0.8416569E-002  0.3130759E+03  0.7818608E-02  0.1080492E+00
         21   -1    0    0  501  502  0.00000000000E+00  0.00000000000E+00  0.11464334940E+03  0.11464334940E+03  0.00000000000E+00 0.  1.
         21   -1    0    0  502  503 -0.00000000000E+00 -0.00000000000E+00 -0.84599459054E+03  0.84599459054E+03  0.00000000000E+00 0.  1.
         -6    2    1    2    0  503  0.22172232304E+03  0.10864558516E+03 -0.44374431790E+03  0.53550943845E+03  0.16999025644E+03 0.  0.
        -24    2    3    3    0    0  0.21710977611E+03  0.10459999913E+03 -0.30628921027E+03  0.39783722277E+03  0.79897188873E+02 0.  0.
          6    2    1    2  501    0 -0.22172232304E+03 -0.10864558516E+03 -0.28760692324E+03  0.42512850149E+03  0.19248856791E+03 0.  0.
         24    2    5    5    0    0 -0.13865400342E+03 -0.13589757876E+03 -0.13474468938E+03  0.24896956922E+03  0.78336648524E+02 0.  0.
          5    1    5    5  501    0 -0.83068319618E+02  0.27251993604E+02 -0.15286223386E+03  0.17615893228E+03  0.47000000000E+01 0. -1.
        -11    1    6    6    0    0 -0.43743821287E+02 -0.51055962342E+01 -0.10893581102E+02  0.45368040766E+02  0.00000000000E+00 0.  1.
         12    1    6    6    0    0 -0.94910182136E+02 -0.13079198253E+03 -0.12385110827E+03  0.20360152845E+03  0.00000000000E+00 0. -1.
         -5    1    3    3    0  503  0.46125469257E+01  0.40455860270E+01 -0.13745510763E+03  0.13767221568E+03  0.47000000000E+01 0.  1.
         13    1    4    4    0    0  0.10513925267E+03  0.82392366593E+02 -0.12113889500E+03  0.18032580627E+03  0.00000000000E+00 0. -1.
        -14    1    4    4    0    0  0.11197052345E+03  0.22207632536E+02 -0.18515031527E+03  0.21751141650E+03  0.00000000000E+00 0.  1.
</event>
<event>
12    1  0.8416569E-002  0.2165594E+03  0.7818608E-02  0.1136524E+00
         21   -1    0    0  503  502  0.00000000000E+00  0.00000000000E+00  0.27731284722E+03  0.27731284722E+03  0.00000000000E+00 0. -1.
         21   -1    0    0  501  503 -0.00000000000E+00 -0.00000000000E+00 -0.18021174809E+03  0.18021174809E+03  0.00000000000E+00 0. -1.
          6    2    1    2  501    0  0.10971226721E+03  0.72194438311E+02 -0.87559584162E+01  0.21647755907E+03  0.17186345822E+03 0.  0.
         24    2    3    3    0    0  0.27106206008E+02  0.88204496095E+02  0.27201410818E+02  0.12485274965E+03  0.79583370180E+02 0.  0.
         -6    2    1    2    0  502 -0.10971226721E+03 -0.72194438311E+02  0.10585705755E+03  0.24104703625E+03  0.17218925214E+03 0.  0.
        -24    2    5    5    0    0 -0.13314738195E+03 -0.15811294770E+02  0.79352383483E+02  0.17431734851E+03  0.78176178378E+02 0.  0.
          5    1    3    3  501    0  0.82606061206E+02 -0.16010057784E+02 -0.35957369234E+02  0.91624809416E+02  0.47000000000E+01 0. -1.
        -11    1    4    4    0    0  0.10215976717E+01  0.28170530689E+02  0.48433356957E+02  0.56039383715E+02  0.00000000000E+00 0.  1.
         12    1    4    4    0    0  0.26084608336E+02  0.60033965407E+02 -0.21231946139E+02  0.68813365935E+02  0.00000000000E+00 0. -1.
         -5    1    5    5    0  502  0.23435114735E+02 -0.56383143542E+02  0.26504674063E+02  0.66729687737E+02  0.47000000000E+01 0.  1.
         11    1    6    6    0    0 -0.55405579601E+02 -0.44045085538E+02  0.49558562831E+02  0.86404854960E+02  0.00000000000E+00 0. -1.
        -12    1    6    6    0    0 -0.77741802348E+02  0.28233790768E+02  0.29793820653E+02  0.87912493552E+02  0.00000000000E+00 0.  1.
</event>
<event>
12    1  0.8416569E-002  0.2451179E+03  0.7818608E-02  0.1116775E+00
         21   -1    0    0  503  502  0.00000000000E+00  0.00000000000E+00  0.54198943181E+03  0.54198943181E+03  0.00000000000E+00 0. -1.
         21   -1    0    0  501  503 -0.00000000000E+00 -0.00000000000E+00 -0.24857101411E+03  0.24857101411E+03  0.00000000000E+00 0. -1.
          6    2    1    2  501    0 -0.13169607541E+03  0.11040608255E+03 -0.14881042087E+03  0.28494286784E+03  0.17179795468E+03 0.  0.
         24    2    3    3    0    0 -0.13406423518E+03  0.14213754730E+03 -0.11894049404E+03  0.24104757693E+03  0.76031517878E+02 0.  0.
         -6    2    1    2    0  502  0.13169607541E+03 -0.11040608255E+03  0.44222883857E+03  0.50561757808E+03  0.17478395308E+03 0.  0.
        -24    2    5    5    0    0  0.15941730457E+03 -0.89569973137E+02  0.41641328638E+03  0.46213030710E+03  0.82022793084E+02 0.  0.
          5    1    3    3  501    0  0.23681597730E+01 -0.31731464751E+02 -0.29869926828E+02  0.43895290917E+02  0.47000000000E+01 0. -1.
        -13    1    4    4    0    0  0.85962154522E+00  0.26359869613E+02  0.13166343624E+01  0.26406726440E+02  0.00000000000E+00 0.  1.
         14    1    4    4    0    0 -0.13492385673E+03  0.11577767769E+03 -0.12025712840E+03  0.21464085049E+03  0.00000000000E+00 0. -1.
         -5    1    5    5    0  502 -0.27721229161E+02 -0.20836109416E+02  0.25815552193E+02  0.43487270975E+02  0.47000000000E+01 0.  1.
         11    1    6    6    0    0  0.32235739270E+01  0.10959419264E+02  0.96178534033E+01  0.14933298482E+02  0.00000000000E+00 0. -1.
        -12    1    6    6    0    0  0.15619373065E+03 -0.10052939240E+03  0.40679543297E+03  0.44719700862E+03  0.00000000000E+00 0.  1.
</event>
<event>
12    1  0.8416569E-002  0.1843739E+03  0.7818608E-02  0.1163984E+00
         21   -1    0    0  503  502  0.00000000000E+00  0.00000000000E+00  0.58039564594E+02  0.58039564594E+02  0.00000000000E+00 0. -1.
         21   -1    0    0  501  503 -0.00000000000E+00 -0.00000000000E+00 -0.61248031326E+03  0.61248031326E+03  0.00000000000E+00 0. -1.
          6    2    1    2  501    0 -0.62455690270E+02 -0.73546453573E+01 -0.35427248471E+03  0.39937791245E+03  0.17331739520E+03 0.  0.
         24    2    3    3    0    0 -0.12720750652E+02  0.45349003077E+02 -0.10134932683E+03  0.13623640571E+03  0.77912275127E+02 0.  0.
         -6    2    1    2    0  502  0.62455690270E+02  0.73546453573E+01 -0.20016826396E+03  0.27114196540E+03  0.17174349318E+03 0.  0.
        -24    2    5    5    0    0  0.60311710227E+02  0.69182296975E+02 -0.11749222714E+03  0.16777527725E+03  0.76944315017E+02 0.  0.
          5    1    3    3  501    0 -0.49734939618E+02 -0.52703648434E+02 -0.25292315788E+03  0.26314150674E+03  0.47000000000E+01 0. -1.
        -13    1    4    4    0    0  0.29195521568E+02  0.26637038030E+02 -0.70841410232E+02  0.81119761330E+02  0.00000000000E+00 0.  1.
         14    1    4    4    0    0 -0.41916272221E+02  0.18711965047E+02 -0.30507916595E+02  0.55116644380E+02  0.00000000000E+00 0. -1.
         -5    1    5    5    0  502  0.21439800431E+01 -0.61827651618E+02 -0.82676036819E+02  0.10336668815E+03  0.47000000000E+01 0.  1.
         11    1    6    6    0    0  0.64255484573E+02  0.19372164013E+02 -0.84460776210E+02  0.10787803648E+03  0.00000000000E+00 0. -1.
        -12    1    6    6    0    0 -0.39437743457E+01  0.49810132963E+02 -0.33031450928E+02  0.59897240773E+02  0.00000000000E+00 0.  1.
</event>
<event>
12    1  0.8416569E-002  0.1999097E+03  0.7818608E-02  0.1150047E+00
         21   -1    0    0  501  502  0.00000000000E+00  0.00000000000E+00  0.13992374554E+03  0.13992374554E+03  0.00000000000E+00 0.  1.
         21   -1    0    0  502  503 -0.00000000000E+00 -0.00000000000E+00 -0.30347038132E+03  0.30347038132E+03  0.00000000000E+00 0. -1.
         -6    2    1    2    0  503 -0.88894184359E+02  0.31704383148E+02 -0.25482358424E+02  0.20044222473E+03  0.17498683076E+03 0.  0.
        -24    2    3    3    0    0 -0.24143018877E+02 -0.31889152749E+02  0.30008414617E+02  0.93961394849E+02  0.79551463535E+02 0.  0.
          6    2    1    2  501    0  0.88894184359E+02 -0.31704383148E+02 -0.13806427735E+03  0.24295190213E+03  0.17622865302E+03 0.  0.
         24    2    5    5    0    0 -0.21703397021E+02 -0.29823353613E+02 -0.52580583939E+02  0.10307726141E+03  0.80620928725E+02 0.  0.
          5    1    5    5  501    0  0.11059758138E+03 -0.18810295351E+01 -0.85483693415E+02  0.13987464073E+03  0.47000000000E+01 0. -1.
        -11    1    6    6    0    0 -0.37503189668E+02  0.92246358294E+01 -0.46611979282E+02  0.60533129392E+02  0.00000000000E+00 0.  1.
         12    1    6    6    0    0  0.15799792647E+02 -0.39047989443E+02 -0.59686046569E+01  0.42544132013E+02  0.00000000000E+00 0. -1.
         -5    1    3    3    0  503 -0.64751165482E+02  0.63593535897E+02 -0.55490773040E+02  0.10648082988E+03  0.47000000000E+01 0.  1.
         13    1    4    4    0    0 -0.33244449350E+01  0.10182044317E+02 -0.21654321600E+02  0.24158551375E+02  0.00000000000E+00 0. -1.
        -14    1    4    4    0    0 -0.20818573942E+02 -0.42071197066E+02  0.51662736217E+02  0.69802843473E+02  0.00000000000E+00 0.  1.
</event>
<event>
12    1  0.8416569E-002  0.2109130E+03  0.7818608E-02  0.1141495E+00
         21   -1    0    0  501  502  0.00000000000E+00  0.00000000000E+00  0.14377519121E+03  0.14377519121E+03  0.00000000000E+00 0. -1.
         21   -1    0    0  502  503 -0.00000000000E+00 -0.00000000000E+00 -0.33611042757E+03  0.33611042757E+03  0.00000000000E+00 0. -1.
         -6    2    1    2    0  503 -0.39516778576E+02  0.10916524820E+03 -0.16893160225E+03  0.26767809376E+03  0.17214833265E+03 0.  0.
        -24    2    3    3    0    0 -0.42070203267E+02  0.14549018728E+03 -0.12827212063E+03  0.21289392978E+03  0.77024618193E+02 0.  0.
          6    2    1    2  501    0  0.39516778576E+02 -0.10916524820E+03 -0.23403634109E+02  0.21220752503E+03  0.17608428773E+03 0.  0.
         24    2    5    5    0    0  0.90452015305E+02 -0.45688947683E+02 -0.16674353932E+02  0.13040891697E+03  0.80370420765E+02 0.  0.
          5    1    5    5  501    0 -0.50935236729E+02 -0.63476300515E+02 -0.67292801767E+01  0.81798608053E+02  0.47000000000E+01 0. -1.
        -11    1    6    6    0    0  0.70183868396E+02 -0.50425519592E+02  0.19574133979E+02  0.88609565682E+02  0.00000000000E+00 0.  1.
         12    1    6    6    0    0  0.20268146909E+02  0.47365719089E+01 -0.36248487911E+02  0.41799351292E+02  0.00000000000E+00 0. -1.
         -5    1    3    3    0  503  0.25534246911E+01 -0.36324939081E+02 -0.40659481624E+02  0.54784163979E+02  0.47000000000E+01 0.  1.
         11    1    4    4    0    0 -0.20355891376E+02  0.99548176277E+02 -0.36448811372E+02  0.10794775386E+03  0.00000000000E+00 0. -1.
        -12    1    4    4    0    0 -0.21714311891E+02  0.45942011002E+02 -0.91823309258E+02  0.10494617591E+03  0.00000000000E+00 0.  1.
</event>
<event>
12    1  0.8416569E-002  0.1975123E+03  0.7818608E-02  0.1153190E+00
         21   -1    0    0  503  502  0.00000000000E+00  0.00000000000E+00  0.11125599644E+04  0.11125599644E+04  0.00000000000E+00 0.  1.
         21   -1    0    0  501  503 -0.00000000000E+00 -0.00000000000E+00 -0.60022904767E+02  0.60022904767E+02  0.00000000000E+00 0.  1.
          6    2    1    2  501    0  0.30921860651E+02 -0.77095887959E+02  0.13546099602E+03  0.23447860978E+03  0.17242563497E+03 0.  0.
         24    2    3    3    0    0  0.53061132521E+02 -0.76240371179E+02  0.15749658273E+03  0.20287898400E+03  0.87901254809E+02 0.  0.
         -6    2    1    2    0  502 -0.30921860651E+02  0.77095887959E+02  0.91707606364E+03  0.93810425941E+03  0.17919586386E+03 0.  0.
        -24    2    5    5    0    0 -0.40217646768E+02  0.86037647853E+02  0.91518127406E+03  0.92424615936E+03  0.87488643522E+02 0.  0.
          5    1    3    3  501    0 -0.22139271870E+02 -0.85551678020E+00 -0.22035586706E+02  0.31599625779E+02  0.47000000000E+01 0. -1.
        -11    1    4    4    0    0  0.10174186365E+02 -0.43438449909E+02  0.98759851269E+01  0.45694070523E+02  0.00000000000E+00 0.  1.
         12    1    4    4    0    0  0.42886946155E+02 -0.32801921269E+02  0.14762059760E+03  0.15718491348E+03  0.00000000000E+00 0. -1.
         -5    1    5    5    0  502  0.92957861166E+01 -0.89417598938E+01  0.18947895806E+01  0.13858100053E+02  0.47000000000E+01 0.  1.
         13    1    6    6    0    0  0.14363060427E+02 -0.10790483474E+02  0.13175475338E+03  0.13297385862E+03  0.00000000000E+00 0. -1.
        -14    1    6    6    0    0 -0.54580707195E+02  0.96828131327E+02  0.78342652067E+03  0.79127230073E+03  0.00000000000E+00 0.  1.
</event>
<event>
12    1  0.8416569E-002  0.2074207E+03  0.7818608E-02  0.1143889E+00
         21   -1    0    0  503  502  0.00000000000E+00  0.00000000000E+00  0.95997445601E+03  0.95997445601E+03  0.00000000000E+00 0. -1.
         21   -1    0    0  501  503 -0.00000000000E+00 -0.00000000000E+00 -0.44637456053E+02  0.44637456053E+02  0.00000000000E+00 0. -1.
          6    2    1    2  501    0 -0.11114481769E+03  0.34301576384E+02  0.48026101177E+03  0.52262181345E+03  0.17015625709E+03 0.  0.
         24    2    3    3    0    0 -0.46753613181E+02  0.25378590590E+02  0.42883621519E+03  0.43960105341E+03  0.80737930974E+02 0.  0.
         -6    2    1    2    0  502  0.11114481769E+03 -0.34301576384E+02  0.43507598819E+03  0.48199009861E+03  0.17173692387E+03 0.  0.
        -24    2    5    5    0    0  0.11136606595E+03 -0.54075819413E+02  0.21328823331E+03  0.25927286118E+03  0.80024691084E+02 0.  0.
          5    1    3    3  501    0 -0.64391204511E+02  0.89229857935E+01  0.51424796583E+02  0.83020760039E+02  0.47000000000E+01 0. -1.
        -13    1    4    4    0    0 -0.37186297410E+02  0.43303679827E+02  0.15783065321E+03  0.16783487270E+03  0.00000000000E+00 0.  1.
         14    1    4    4    0    0 -0.95673157710E+01 -0.17925089237E+02  0.27100556198E+03  0.27176618072E+03  0.00000000000E+00 0. -1.
         -5    1    5    5    0  502 -0.22124826074E+00  0.19774243029E+02  0.22178775487E+03  0.22271723743E+03  0.47000000000E+01 0.  1.
         11    1    6    6    0    0  0.53704421319E+02 -0.73455541060E+01  0.30973816598E+02  0.62429955542E+02  0.00000000000E+00 0. -1.
        -12    1    6    6    0    0  0.57661644635E+02 -0.46730265307E+02  0.18231441671E+03  0.19684290564E+03  0.00000000000E+00 0.  1.
</event>
<event>
12    1  0.8416569E-002  0.2084801E+03  0.7818608E-02  0.1142831E+00
         21   -1    0    0  501  502  0.00000000000E+00  0.00000000000E+00  0.15015305674E+04  0.15015305674E+04  0.00000000000E+00 0.  1.
         21   -1    0    0  502  503 -0.00000000000E+00 -0.00000000000E+00 -0.29345474569E+02  0.29345474569E+02  0.00000000000E+00 0.  1.
         -6    2    1    2    0  503  0.10123149350E+03  0.58493188766E+02  0.64212984631E+03  0.67503979458E+03  0.17227511814E+03 0.  0.
        -24    2    3    3    0    0 -0.85280847195E+01 -0.11568971646E+02  0.23227571221E+03  0.24497192485E+03  0.76502732938E+02 0.  0.
          6    2    1    2  501    0 -0.10123149350E+03 -0.58493188766E+02  0.83005524653E+03  0.85583624740E+03  0.17261141813E+03 0.  0.
         24    2    5    5    0    0 -0.74835317533E+02 -0.10082044115E+03  0.44805379232E+03  0.47056289585E+03  0.70086746482E+02 0.  0.
          5    1    5    5  501    0 -0.26396175971E+02  0.42327252382E+02  0.38200145421E+03  0.38527335155E+03  0.47000000000E+01 0. -1.
        -13    1    6    6    0    0 -0.27461477824E+02 -0.19253330529E+01  0.44073636793E+02  0.51964652715E+02  0.00000000000E+00 0.  1.
         14    1    6    6    0    0 -0.47373839710E+02 -0.98895108095E+02  0.40398015552E+03  0.41859824313E+03  0.00000000000E+00 0. -1.
         -5    1    3    3    0  503  0.10975957822E+03  0.70062160413E+02  0.40985413410E+03  0.43006786973E+03  0.47000000000E+01 0.  1.
         11    1    4    4    0    0  0.18615778094E+01  0.30227083397E+02  0.57728647686E+02  0.65190020756E+02  0.00000000000E+00 0. -1.
        -12    1    4    4    0    0 -0.10389662529E+02 -0.41796055043E+02  0.17454706452E+03  0.17978190409E+03  0.00000000000E+00 0.  1.
</event>
<event>
12    1  0.8416569E-002  0.2282781E+03  0.7818608E-02  0.1127859E+00
         21   -1    0    0  501  502  0.00000000000E+00  0.00000000000E+00  0.45453575899E+03  0.45453575899E+03  0.00000000000E+00 0. -1.
         21   -1    0    0  502  503 -0.00000000000E+00 -0.00000000000E+00 -0.21965551558E+03  0.21965551558E+03  0.00000000000E+00 0. -1.
         -6    2    1    2    0  503  0.58212895668E+02 -0.13800358358E+03 -0.11563791559E+03  0.25589648283E+03  0.17227057816E+03 0.  0.
        -24    2    3    3    0    0 -0.11617880659E+02 -0.11334221709E+03 -0.11714306369E+03  0.18167468152E+03  0.79383620535E+02 0.  0.
          6    2    1    2  501    0 -0.58212895668E+02  0.13800358358E+03  0.35051815900E+03  0.41829479174E+03  0.17226091462E+03 0.  0.
         24    2    5    5    0    0 -0.74398570622E+02  0.34599872958E+02  0.24494011347E+03  0.26955637323E+03  0.77023896560E+02 0.  0.
          5    1    5    5  501    0  0.16185674954E+02  0.10340371062E+03  0.10557804552E+03  0.14873841851E+03  0.47000000000E+01 0. -1.
        -13    1    6    6    0    0 -0.63982373577E+02  0.10001771043E+02  0.82233387826E+02  0.10467143653E+03  0.00000000000E+00 0.  1.
         14    1    6    6    0    0 -0.10416197045E+02  0.24598101914E+02  0.16270672565E+03  0.16488493670E+03  0.00000000000E+00 0. -1.
         -5    1    3    3    0  503  0.69830776327E+02 -0.24661366489E+02  0.15051480960E+01  0.74221801314E+02  0.47000000000E+01 0.  1.
         11    1    4    4    0    0  0.16849852479E+02  0.45313168068E+01 -0.12000931733E+02  0.21177174576E+02  0.00000000000E+00 0. -1.
        -12    1    4    4    0    0 -0.28467733138E+02 -0.11787353389E+03 -0.10514213195E+03  0.16049750694E+03  0.00000000000E+00 0.  1.
</event>
<event>
12    1  0.8416569E-002  0.3330044E+03  0.7818608E-02  0.1069909E+00
         21   -1    0    0  501  502  0.00000000000E+00  0.00000000000E+00  0.12749846290E+04  0.12749846290E+04  0.00000000000E+00 0.  1.
         21   -1    0    0  502  503 -0.00000000000E+00 -0.00000000000E+00 -0.87156093154E+02  0.87156093154E+02  0.00000000000E+00 0. -1.
         -6    2    1    2    0  503 -0.28359532435E+03 -0.27235832226E+02  0.54827201949E+03  0.64147809470E+03  0.17240603260E+03 0.  0.
        -24    2    3    3    0    0 -0.27656096368E+03 -0.64235087993E+02  0.48209631858E+03  0.56519087069E+03  0.80073383589E+02 0.  0.
          6    2    1    2  501    0  0.28359532435E+03  0.27235832226E+02  0.63955651631E+03  0.72066262740E+03  0.17074538480E+03 0.  0.
         24    2    5    5    0    0  0.19131664235E+03  0.75346972206E+01  0.55930942854E+03  0.59670628440E+03  0.81071102725E+02 0.  0.
          5    1    5    5  501    0  0.92278682008E+02  0.19701135006E+02  0.80247087770E+02  0.12395634300E+03  0.47000000000E+01 0. -1.
        -11    1    6    6    0    0  0.40932289720E+02 -0.32316327677E+02  0.12947651220E+03  0.13958497264E+03  0.00000000000E+00 0.  1.
         12    1    6    6    0    0  0.15038435263E+03  0.39851024898E+02  0.42983291633E+03  0.45712131176E+03  0.00000000000E+00 0. -1.
         -5    1    3    3    0  503 -0.70343606785E+01  0.36999255767E+02  0.66175700907E+02  0.76287224016E+02  0.47000000000E+01 0.  1.
         11    1    4    4    0    0 -0.18365031401E+03 -0.31485485112E+01  0.30830182704E+03  0.35886956927E+03  0.00000000000E+00 0. -1.
        -12    1    4    4    0    0 -0.92910649666E+02 -0.61086539482E+02  0.17379449155E+03  0.20632130142E+03  0.00000000000E+00 0.  1.
</event>
<event>
12    1  0.8416569E-002  0.1939119E+03  0.7818608E-02  0.1155027E+00
         21   -1    0    0  503  502  0.00000000000E+00  0.00000000000E+00  0.14334650500E+04  0.14334650500E+04  0.00000000000E+00 0. -1.
         21   -1    0    0  501  503 -0.00000000000E+00 -0.00000000000E+00 -0.10568560138E+03  0.10568560138E+03  0.00000000000E+00 0. -1.
          6    2    1    2  501    0 -0.14376586325E+02 -0.86841612286E+02 -0.34108862954E+01  0.19394186156E+03  0.17278211615E+03 0.  0.
         24    2    3    3    0    0  0.29928732328E+02  0.52644619913E+01  0.24312506259E+02  0.87936358519E+02  0.78855954818E+02 0.  0.
         -6    2    1    2    0  502  0.14376586325E+02  0.86841612286E+02  0.13311903349E+04  0.13452087898E+04  0.17254225165E+03 0.  0.
        -24    2    5    5    0    0  0.22885982807E+02  0.20634239764E+01  0.96677668915E+03  0.97093730246E+03  0.86798920999E+02 0.  0.
          5    1    3    3  501    0 -0.44305318653E+02 -0.92106074278E+02 -0.27723392554E+02  0.10600550304E+03  0.47000000000E+01 0. -1.
        -11    1    4    4    0    0 -0.20400127894E+02  0.81606491038E+01  0.30020582973E+02  0.37202107654E+02  0.00000000000E+00 0.  1.
         12    1    4    4    0    0  0.50328860222E+02 -0.28961871125E+01 -0.57080767141E+01  0.50734250865E+02  0.00000000000E+00 0. -1.
         -5    1    5    5    0  502 -0.85093964817E+01  0.84778188310E+02  0.36441364572E+03  0.37427148733E+03  0.47000000000E+01 0.  1.
         11    1    6    6    0    0  0.42103153448E+02 -0.23006525599E+02  0.34040232665E+03  0.34376695556E+03  0.00000000000E+00 0. -1.
        -12    1    6    6    0    0 -0.19217170641E+02  0.25069949575E+02  0.62637436251E+03  0.62717034690E+03  0.00000000000E+00 0.  1.
</event>
<event>
12    1  0.8416569E-002  0.1960925E+03  0.7818608E-02  0.1153295E+00
         21   -1    0    0  503  502  0.00000000000E+00  0.00000000000E+00  0.85790804593E+02  0.85790804593E+02  0.00000000000E+00 0. -1.
         21   -1    0    0  501  503 -0.00000000000E+00 -0.00000000000E+00 -0.55040802401E+03  0.55040802401E+03  0.00000000000E+00 0. -1.
          6    2    1    2  501    0  0.81267836400E+02 -0.42985741610E+02 -0.37041961506E+03  0.41865465941E+03  0.17207207039E+03 0.  0.
         24    2    3    3    0    0 -0.21050982104E+02  0.33549394475E+01 -0.17101285626E+03  0.18974038551E+03  0.79382727464E+02 0.  0.
         -6    2    1    2    0  502 -0.81267836400E+02  0.42985741610E+02 -0.94197604357E+02  0.21754416919E+03  0.17320520105E+03 0.  0.
        -24    2    5    5    0    0 -0.34093259715E+02  0.72898344577E+02  0.11335204968E+00  0.10783158559E+03  0.71771296513E+02 0.  0.
          5    1    3    3  501    0  0.10231881850E+03 -0.46340681057E+02 -0.19940675880E+03  0.22891427390E+03  0.47000000000E+01 0. -1.
        -13    1    4    4    0    0 -0.93882768641E+01  0.27883511730E+02 -0.15591370427E+03  0.15866541258E+03  0.00000000000E+00 0.  1.
         14    1    4    4    0    0 -0.11662705240E+02 -0.24528572282E+02 -0.15099151987E+02  0.31074972928E+02  0.00000000000E+00 0. -1.
         -5    1    5    5    0  502 -0.47174576686E+02 -0.29912602968E+02 -0.94310956407E+02  0.10971258360E+03  0.47000000000E+01 0.  1.
         13    1    6    6    0    0 -0.29426977626E+02  0.32273352640E+01  0.19395176279E+02  0.35391179240E+02  0.00000000000E+00 0. -1.
        -14    1    6    6    0    0 -0.46662820889E+01  0.69671009313E+02 -0.19281824229E+02  0.72440406355E+02  0.00000000000E+00 0.  1.
</event>
<event>
12    1  0.8416569E-002  0.1759227E+03  0.7818608E-02  0.1172154E+00
         21   -1    0    0  501  502  0.00000000000E+00  0.00000000000E+00  0.95605837424E+03  0.95605837424E+03  0.00000000000E+00 0. -1.
         21   -1    0    0  502  503 -0.00000000000E+00 -0.00000000000E+00 -0.32158121677E+02  0.32158121677E+02  0.00000000000E+00 0. -1.
         -6    2    1    2    0  503 -0.88995446716E+01 -0.29722872717E+02  0.48120567098E+03  0.51235503644E+03  0.17316504994E+03 0.  0.
        -24    2    3    3    0    0 -0.23499412562E+02  0.42253299146E+02  0.18487120923E+03  0.20701927260E+03  0.79636998598E+02 0.  0.
          6    2    1    2  501    0  0.88995446716E+01  0.29722872717E+02  0.44269458158E+03  0.47586145948E+03  0.17176432981E+03 0.  0.
         24    2    5    5    0    0 -0.52478463954E+02  0.20607547273E+02  0.33459387647E+03  0.35112893948E+03  0.90331665437E+02 0.  0.
          5    1    5    5  501    0  0.61378008626E+02  0.91153254440E+01  0.10810070511E+03  0.12473252000E+03  0.47000000000E+01 0. -1.
        -11    1    6    6    0    0 -0.19844940002E+01  0.47997378470E+02  0.17656364085E+03  0.18298198225E+03  0.00000000000E+00 0.  1.
         12    1    6    6    0    0 -0.50493969954E+02 -0.27389831197E+02  0.15803023562E+03  0.16814695723E+03  0.00000000000E+00 0. -1.
         -5    1    3    3    0  503  0.14599867890E+02 -0.71976171863E+02  0.29633446175E+03  0.30533576384E+03  0.47000000000E+01 0.  1.
         11    1    4    4    0    0 -0.48863697795E+02  0.33406110768E+02  0.15925934947E+03  0.16990341254E+03  0.00000000000E+00 0. -1.
        -12    1    4    4    0    0  0.25364285233E+02  0.88471883778E+01  0.25611859758E+02  0.37115860058E+02  0.00000000000E+00 0.  1.
</event>
<event>
12    1  0.8416569E-002  0.1788919E+03  0.7818608E-02  0.1168890E+00
         21   -1    0    0  501  502  0.00000000000E+00  0.00000000000E+00  0.81589469356E+02  0.81589469356E+02  0.00000000000E+00 0.  1.
         21   -1    0    0  502  503 -0.00000000000E+00 -0.00000000000E+00 -0.43997963428E+03  0.43997963428E+03  0.00000000000E+00 0.  1.
         -6    2    1    2    0  503  0.42351460601E+02  0.26419740744E+02 -0.26516256560E+03  0.31984235928E+03  0.17174486800E+03 0.  0.
        -24    2    3    3    0    0 -0.19531726353E+02  0.34079646233E+02 -0.83017922668E+02  0.12726259937E+03  0.88095874442E+02 0.  0.
          6    2    1    2  501    0 -0.42351460601E+02 -0.26419740744E+02 -0.93227599327E+02  0.20172674435E+03  0.17178662694E+03 0.  0.
         24    2    5    5    0    0 -0.94188161659E+02 -0.23695058425E+02 -0.52722213249E+02  0.13571732251E+03  0.78782575924E+02 0.  0.
          5    1    5    5  501    0  0.51836701058E+02 -0.27246823190E+01 -0.40505386078E+02  0.66009421840E+02  0.47000000000E+01 0. -1.
        -13    1    6    6    0    0 -0.46154203498E+02  0.25094881809E+02 -0.61095159745E+01  0.52889410840E+02  0.00000000000E+00 0.  1.
         14    1    6    6    0    0 -0.48033958161E+02 -0.48789940233E+02 -0.46612697274E+02  0.82827911671E+02  0.00000000000E+00 0. -1.
         -5    1    3    3    0  503  0.61883186954E+02 -0.76599054891E+01 -0.18214464293E+03  0.19257975991E+03  0.47000000000E+01 0.  1.
         11    1    4    4    0    0 -0.23036197002E+02 -0.26872758561E+02 -0.29676719979E+02  0.46190033922E+02  0.00000000000E+00 0. -1.
        -12    1    4    4    0    0  0.35044706488E+01  0.60952404794E+02 -0.53341202689E+02  0.81072565452E+02  0.00000000000E+00 0.  1.
</event>
<event>
12    1  0.8416569E-002  0.1860875E+03  0.7818608E-02  0.1162293E+00
         21   -1    0    0  503  502  0.00000000000E+00  0.00000000000E+00  0.81108537543E+02  0.81108537543E+02  0.00000000000E+00 0. -1.
         21   -1    0    0  501  503 -0.00000000000E+00 -0.00000000000E+00 -0.51411568867E+03  0.51411568867E+03  0.00000000000E+00 0.  1.
          6    2    1    2  501    0 -0.51246562939E+02 -0.47227926668E+02 -0.91674742224E+02  0.20646160221E+03  0.17136349540E+03 0.  0.
         24    2    3    3    0    0 -0.97616267370E+02 -0.85107889249E+01 -0.58804019725E+02  0.13752873167E+03  0.76517123015E+02 0.  0.
         -6    2    1    2    0  502  0.51246562939E+02  0.47227926668E+02 -0.34133240890E+03  0.38876262400E+03  0.17254529024E+03 0.  0.
        -24    2    5    5    0    0  0.95637117922E+02  0.57819639330E+02 -0.28384431442E+03  0.31521211920E+03  0.79382090223E+02 0.  0.
          5    1    3    3  501    0  0.46369704430E+02 -0.38717137743E+02 -0.32870722499E+02  0.68932870545E+02  0.47000000000E+01 0. -1.
        -13    1    4    4    0    0 -0.93686987229E+02 -0.33075294611E+02 -0.44881331798E+02  0.10902091833E+03  0.00000000000E+00 0.  1.
         14    1    4    4    0    0 -0.39292801402E+01  0.24564505686E+02 -0.13922687927E+02  0.28507813335E+02  0.00000000000E+00 0. -1.
         -5    1    5    5    0  502 -0.44390554982E+02 -0.10591712662E+02 -0.57488094479E+02  0.73550504795E+02  0.47000000000E+01 0.  1.
         11    1    6    6    0    0  0.40184674141E+02  0.52056851977E+02 -0.22386236152E+03  0.23332183948E+03  0.00000000000E+00 0. -1.
        -12    1    6    6    0    0  0.55452443781E+02  0.57627873529E+01 -0.59981952898E+02  0.81890279721E+02  0.00000000000E+00 0.  1.
</event>
<event>
12    1  0.8416569E-002  0.2211986E+03  0.7818608E-02  0.1133014E+00
         21   -1    0    0  503  502  0.00000000000E+00  0.00000000000E+00  0.20553355705E+02  0.20553355705E+02  0.00000000000E+00 0.  1.
         21   -1    0    0  501  503 -0.00000000000E+00 -0.00000000000E+00 -0.26728381570E+04  0.26728381570E+04  0.00000000000E+00 0.  1.
          6    2    1    2  501    0 -0.13741960270E+03  0.25983059966E+02 -0.17727024537E+04  0.17864497806E+04  0.17137550189E+03 0.  0.
         24    2    3    3    0    0 -0.13270424294E+03  0.45261006949E+01 -0.86172468559E+03  0.87519503043E+03  0.75934220571E+02 0.  0.
         -6    2    1    2    0  502  0.13741960270E+03 -0.25983059966E+02 -0.87958234754E+03  0.90694173204E+03  0.17122772152E+03 0.  0.
        -24    2    5    5    0    0  0.14312012249E+03 -0.87479840482E+01 -0.48522118403E+03  0.51213499319E+03  0.79263845013E+02 0.  0.
          5    1    3    3  501    0 -0.47153597588E+01  0.21456959271E+02 -0.91097776813E+03  0.91125475019E+03  0.47000000000E+01 0. -1.
        -13    1    4    4    0    0 -0.55444862642E+02  0.33082185707E+02 -0.50350195868E+03  0.50762465090E+03  0.00000000000E+00 0.  1.
         14    1    4    4    0    0 -0.77259380295E+02 -0.28556085012E+02 -0.35822272691E+03  0.36757037953E+03  0.00000000000E+00 0. -1.
         -5    1    5    5    0  502 -0.57005197920E+01 -0.17235075918E+02 -0.39436116350E+03  0.39480673886E+03  0.47000000000E+01 0.  1.
         13    1    6    6    0    0  0.69276454125E+01 -0.14460655072E+01  0.99987290036E+00  0.71472457793E+01  0.00000000000E+00 0. -1.
        -14    1    6    6    0    0  0.13619247707E+03 -0.73019185410E+01 -0.48622105693E+03  0.50498774741E+03  0.00000000000E+00 0.  1.
</event>
<event>
12    1  0.8416569E-002  0.1901106E+03  0.7818608E-02  0.1159334E+00
         21   -1    0    0  501  502  0.00000000000E+00  0.00000000000E+00  0.20972162658E+02  0.20972162658E+02  0.00000000000E+00 0.  1.
         21   -1    0    0  502  503 -0.00000000000E+00 -0.00000000000E+00 -0.28336709424E+04  0.28336709424E+04  0.00000000000E+00 0.  1.
         -6    2    1    2    0  503 -0.26809152103E+02  0.67319915629E+02 -0.23056190003E+04  0.23130972133E+04  0.17114041534E+03 0.  0.
        -24    2    3    3    0    0 -0.51986857346E+02  0.94565591500E+02 -0.20823016282E+04  0.20866706636E+04  0.81050004444E+02 0.  0.
          6    2    1    2  501    0  0.26809152103E+02 -0.67319915629E+02 -0.50707977943E+03  0.54154589179E+03  0.17575934834E+03 0.  0.
         24    2    5    5    0    0  0.66902293574E+02  0.47947074690E+01 -0.30435417945E+03  0.32262184618E+03  0.83393542793E+02 0.  0.
          5    1    5    5  501    0 -0.40093141471E+02 -0.72114623098E+02 -0.20272559998E+03  0.21892404561E+03  0.47000000000E+01 0. -1.
        -11    1    6    6    0    0  0.67529607190E+02 -0.27713989819E+02 -0.18392604731E+03  0.19788154022E+03  0.00000000000E+00 0.  1.
         12    1    6    6    0    0 -0.62731361624E+00  0.32508697288E+02 -0.12042813214E+03  0.12474030596E+03  0.00000000000E+00 0. -1.
         -5    1    3    3    0  503  0.25177705243E+02 -0.27245675871E+02 -0.22331737217E+03  0.22642654969E+03  0.47000000000E+01 0.  1.
         13    1    4    4    0    0 -0.17324961715E+01  0.14535620934E+02 -0.10377003279E+04  0.10378035731E+04  0.00000000000E+00 0. -1.
        -14    1    4    4    0    0 -0.50254361175E+02  0.80029970566E+02 -0.10446013002E+04  0.10488670904E+04  0.00000000000E+00 0.  1.
</event>
<event>
12    1  0.8416569E-002  0.2256655E+03  0.7818608E-02  0.1130629E+00
         21   -1    0    0  503  502  0.00000000000E+00  0.00000000000E+00  0.64665818082E+03  0.64665818082E+03  0.00000000000E+00 0. -1.
         21   -1    0    0  501  503 -0.00000000000E+00 -0.00000000000E+00 -0.89174527626E+02  0.89174527626E+02  0.00000000000E+00 0. -1.
          6    2    1    2  501    0  0.13454307079E+03  0.42602764767E+02  0.14035266885E+03  0.26157202818E+03  0.16971806271E+03 0.  0.
         24    2    3    3    0    0  0.10867849135E+03  0.17238914328E+02  0.16718615573E+03  0.21624623644E+03  0.81872030964E+02 0.  0.
         -6    2    1    2    0  502 -0.13454307079E+03 -0.42602764767E+02  0.41713098435E+03  0.47426068027E+03  0.17609117321E+03 0.  0.
        -24    2    5    5    0    0 -0.31708208459E+02 -0.86471267311E+01  0.31031719553E+03  0.32207898049E+03  0.79736594781E+02 0.  0.
          5    1    3    3  501    0  0.25864579440E+02  0.25363850439E+02 -0.26833486885E+02  0.45325791743E+02  0.47000000000E+01 0. -1.
        -13    1    4    4    0    0  0.63378517968E+02 -0.30286672329E+02  0.10094417489E+03  0.12297904498E+03  0.00000000000E+00 0.  1.
         14    1    4    4    0    0  0.45299973387E+02  0.47525586657E+02  0.66241980846E+02  0.93267191457E+02  0.00000000000E+00 0. -1.
         -5    1    5    5    0  502 -0.10283486234E+03 -0.33955638036E+02  0.10681378882E+03  0.15218169978E+03  0.47000000000E+01 0.  1.
         11    1    6    6    0    0 -0.49366806041E+02  0.57353665736E+01  0.11292891272E+03  0.12338117886E+03  0.00000000000E+00 0. -1.
        -12    1    6    6    0    0  0.17658597582E+02 -0.14382493305E+02  0.19738828281E+03  0.19869780163E+03  0.00000000000E+00 0.  1.
</event>
<event>
12    1  0.8416569E-002  0.2381396E+03  0.7818608E-02  0.1121044E+00
         21   -1    0    0  501  502  0.00000000000E+00  0.00000000000E+00  0.10776379997E+03  0.10776379997E+03  0.00000000000E+00 0.  1.
         21   -1    0    0  502  503 -0.00000000000E+00 -0.00000000000E+00 -0.52897436235E+03  0.52897436235E+03  0.00000000000E+00 0. -1.
         -6    2    1    2    0  503  0.16379305639E+02  0.16296095327E+03 -0.23377779619E+03  0.33371024752E+03  0.17287543887E+03 0.  0.
        -24    2    3    3    0    0 -0.43220352002E+02  0.40528325352E+02 -0.12999593873E+03  0.16243668999E+03  0.77305822458E+02 0.  0.
          6    2    1    2  501    0 -0.16379305639E+02 -0.16296095327E+03 -0.18743276619E+03  0.30302791480E+03  0.17283032536E+03 0.  0.
         24    2    5    5    0    0 -0.10962098216E+02 -0.13170200065E+02 -0.10494224403E+03  0.13187479000E+03  0.78002973594E+02 0.  0.
          5    1    5    5  501    0 -0.54172074228E+01 -0.14979075321E+03 -0.82490522160E+02  0.17115312480E+03  0.47000000000E+01 0. -1.
        -13    1    6    6    0    0 -0.31241024295E+02 -0.12953769463E+02 -0.10695880198E+02  0.35471165691E+02  0.00000000000E+00 0.  1.
         14    1    6    6    0    0  0.20278926078E+02 -0.21643060175E+00 -0.94246363832E+02  0.96403624313E+02  0.00000000000E+00 0. -1.
         -5    1    3    3    0  503  0.59599657641E+02  0.12243262792E+03 -0.10378185745E+03  0.17127355752E+03  0.47000000000E+01 0.  1.
         11    1    4    4    0    0  0.52215731333E+01  0.47632445301E+02 -0.72703063830E+02  0.87073820185E+02  0.00000000000E+00 0. -1.
        -12    1    4    4    0    0 -0.48441925135E+02 -0.71041199497E+01 -0.57292874903E+02  0.75362869808E+02  0.00000000000E+00 0.  1.
</event>
<event>
12    1  0.8416569E-002  0.2153264E+03  0.7818608E-02  0.1137545E+00
         21   -1    0    0  503  502  0.00000000000E+00  0.00000000000E+00  0.58569384332E+03  0.58569384332E+03  0.00000000000E+00 0.  1.
         21   -1    0    0  501  503 -0.00000000000E+00 -0.00000000000E+00 -0.79487935444E+02  0.79487935444E+02  0.00000000000E+00 0.  1.
          6    2    1    2  501    0 -0.63846157908E+02  0.11287248464E+03  0.28091550357E+03  0.35353899539E+03  0.17105487848E+03 0.  0.
         24    2    3    3    0    0 -0.28766593099E+02  0.86762765436E+01  0.19851952570E+03  0.21606676977E+03  0.79825135540E+02 0.  0.
         -6    2    1    2    0  502  0.63846157908E+02 -0.11287248464E+03  0.22529040431E+03  0.31164278337E+03  0.17189801769E+03 0.  0.
        -24    2    5    5    0    0  0.10678096269E+03 -0.71658238275E+02  0.18924981834E+03  0.24190738775E+03  0.78527787436E+02 0.  0.
          5    1    3    3  501    0 -0.35079564809E+02  0.10419620809E+03  0.82395977869E+02  0.13747222562E+03  0.47000000000E+01 0. -1.
        -13    1    4    4    0    0  0.15173721041E+02  0.27520517108E+02  0.42310357984E+02  0.52704715774E+02  0.00000000000E+00 0.  1.
         14    1    4    4    0    0 -0.43940314140E+02 -0.18844240564E+02  0.15620916771E+03  0.16336205400E+03  0.00000000000E+00 0. -1.
         -5    1    5    5    0  502 -0.42934804785E+02 -0.41214246361E+02  0.36040585963E+02  0.69735395615E+02  0.47000000000E+01 0.  1.
         13    1    6    6    0    0  0.28588027202E+02  0.32154397489E+01  0.91960377586E+02  0.96355204311E+02  0.00000000000E+00 0. -1.
        -14    1    6    6    0    0  0.78192935492E+02 -0.74873678023E+02  0.97289440759E+02  0.14555218344E+03  0.00000000000E+00 0.  1.
</event>
<event>
12    1  0.8416569E-002  0.1982364E+03  0.7818608E-02  0.1151290E+00
         21   -1    0    0  503  502  0.00000000000E+00  0.00000000000E+00  0.59942298085E+03  0.59942298085E+03  0.00000000000E+00 0. -1.
         21   -1    0    0  501  503 -0.00000000000E+00 -0.00000000000E+00 -0.89330627118E+02  0.89330627118E+02  0.00000000000E+00 0.  1.
          6    2    1    2  501    0 -0.91313762017E+02  0.37260893361E+02  0.76959618742E+02  0.21241166941E+03  0.17166641219E+03 0.  0.
         24    2    3    3    0    0  0.22196333441E+01 -0.26860127720E+02  0.41663274368E+02  0.93550728310E+02  0.79306475795E+02 0.  0.
         -6    2    1    2    0  502  0.91313762017E+02 -0.37260893361E+02  0.43313273499E+03  0.47634193856E+03  0.17196249302E+03 0.  0.
        -24    2    5    5    0    0  0.12630415421E+03 -0.17637179142E+02  0.28171842195E+03  0.31963264752E+03  0.80845226415E+02 0.  0.
          5    1    3    3  501    0 -0.93533395361E+02  0.64121021081E+02  0.35296344374E+02  0.11886094110E+03  0.47000000000E+01 0. -1.
        -13    1    4    4    0    0  0.38185754966E+02 -0.46094575154E+01  0.75085782731E+01  0.39189000097E+02  0.00000000000E+00 0.  1.
         14    1    4    4    0    0 -0.35966121622E+02 -0.22250670204E+02  0.34154696095E+02  0.54361728213E+02  0.00000000000E+00 0. -1.
         -5    1    5    5    0  502 -0.34990392196E+02 -0.19623714219E+02  0.15141431303E+03  0.15670929104E+03  0.47000000000E+01 0.  1.
         13    1    6    6    0    0  0.19493860718E+02  0.17678137289E+02  0.15309180596E+02  0.30445002122E+02  0.00000000000E+00 0. -1.
        -14    1    6    6    0    0  0.10681029350E+03 -0.35315316431E+02  0.26640924136E+03  0.28918764540E+03  0.00000000000E+00 0.  1.
</event>
<event>
12    1  0.8416569E-002  0.2478333E+03  0.7818608E-02  0.1114991E+00
         21   -1    0    0  503  502  0.00000000000E+00  0.00000000000E+00  0.22747956227E+03  0.22747956227E+03  0.00000000000E+00 0.  1.
         21   -1    0    0  501  503 -0.00000000000E+00 -0.00000000000E+00 -0.38355541392E+03  0.38355541392E+03  0.00000000000E+00 0. -1.
          6    2    1    2  501    0 -0.11067216620E+03  0.13915312616E+03 -0.24600847106E+03  0.34920126868E+03  0.17265409733E+03 0.  0.
         24    2    3    3    0    0  0.57499044786E+01  0.26457610466E+02 -0.10741277320E+03  0.13592859049E+03  0.78778241367E+02 0.  0.
         -6    2    1    2    0  502  0.11067216620E+03 -0.13915312616E+03  0.89932619414E+02  0.26183370751E+03  0.16987375743E+03 0.  0.
        -24    2    5    5    0    0  0.45811963297E+02 -0.88675751747E+02  0.11950295060E+03  0.17436196502E+03  0.78479390382E+02 0.  0.
          5    1    3    3  501    0 -0.11642207068E+03  0.11269551569E+03 -0.13859569786E+03  0.21327267819E+03  0.47000000000E+01 0. -1.
        -13    1    4    4    0    0 -0.29399727255E+01 -0.27470838089E+02 -0.26347169312E+02  0.38176743126E+02  0.00000000000E+00 0.  1.
         14    1    4    4    0    0  0.86898772041E+01  0.53928448555E+02 -0.81065603890E+02  0.97751847366E+02  0.00000000000E+00 0. -1.
         -5    1    5    5    0  502  0.64860202902E+02 -0.50477374410E+02 -0.29570331186E+02  0.87471742490E+02  0.47000000000E+01 0.  1.
         13    1    6    6    0    0  0.82585149198E+00 -0.79661167166E+02  0.62925121821E+02  0.10151923237E+03  0.00000000000E+00 0. -1.
        -14    1    6    6    0    0  0.44986111805E+02 -0.90145845808E+01  0.56577828779E+02  0.72842732650E+02  0.00000000000E+00 0.  1.
</event>
<event>
12    1  0.8416569E-002  0.1989073E+03  0.7818608E-02  0.1151976E+00
         21   -1    0    0  503  502  0.00000000000E+00  0.00000000000E+00  0.89684427824E+03  0.89684427824E+03  0.00000000000E+00 0.  1.
         21   -1    0    0  501  503 -0.00000000000E+00 -0.00000000000E+00 -0.57834768073E+02  0.57834768073E+02  0.00000000000E+00 0.  1.
          6    2    1    2  501    0 -0.10028796745E+02 -0.88112060866E+02  0.17115680240E+03  0.25783518064E+03  0.17123088895E+03 0.  0.
         24    2    3    3    0    0 -0.58739998417E+02 -0.37346147788E+02  0.50533518627E+02  0.11811393785E+03  0.80945312650E+02 0.  0.
         -6    2    1    2    0  502  0.10028796745E+02  0.88112060866E+02  0.66785270777E+03  0.69684386567E+03  0.17804443778E+03 0.  0.
        -24    2    5    5    0    0  0.41084795564E+02  0.17379626277E+02  0.16756375961E+03  0.19060412602E+03  0.79134742576E+02 0.  0.
          5    1    3    3  501    0  0.48711201671E+02 -0.50765913078E+02  0.12062328377E+03  0.13972124279E+03  0.47000000000E+01 0. -1.
        -13    1    4    4    0    0  0.16725149817E+02 -0.49780042300E+01  0.27951679802E+02  0.32951594290E+02  0.00000000000E+00 0.  1.
         14    1    4    4    0    0 -0.75465148233E+02 -0.32368143558E+02  0.22581838826E+02  0.85162343557E+02  0.00000000000E+00 0. -1.
         -5    1    5    5    0  502 -0.31055998818E+02  0.70732434590E+02  0.50028894815E+03  0.50623973966E+03  0.47000000000E+01 0.  1.
         13    1    6    6    0    0  0.30433117735E+02 -0.29543145331E+02  0.70671972102E+02  0.82422689425E+02  0.00000000000E+00 0. -1.
        -14    1    6    6    0    0  0.10651677829E+02  0.46922771608E+02  0.96891787510E+02  0.10818143659E+03  0.00000000000E+00 0.  1.
</event>
<event>
12    1  0.8416569E-002  0.1854394E+03  0.7818608E-02  0.1162877E+00
         21   -1    0    0  501  502  0.00000000000E+00  0.00000000000E+00  0.12556551722E+03  0.12556551722E+03  0.00000000000E+00 0. -1.
         21   -1    0    0  502  503 -0.00000000000E+00 -0.00000000000E+00 -0.28019733253E+03  0.28019733253E+03  0.00000000000E+00 0. -1.
         -6    2    1    2    0  503 -0.62976929961E+02 -0.24369923133E+02 -0.43601314403E+02  0.19049633182E+03  0.17270724060E+03 0.  0.
        -24    2    3    3    0    0 -0.10813734092E+03 -0.28936918779E+01 -0.40416573787E+02  0.14016817072E+03  0.79445318877E+02 0.  0.
          6    2    1    2  501    0  0.62976929961E+02  0.24369923133E+02 -0.11103050090E+03  0.21526651794E+03  0.17161560172E+03 0.  0.
         24    2    5    5    0    0  0.88552376157E+02  0.39371352181E+02 -0.12932407040E+03  0.18011127641E+03  0.79521883847E+02 0.  0.
          5    1    5    5  501    0 -0.25575446196E+02 -0.15001429048E+02  0.18293569497E+02  0.35155241523E+02  0.47000000000E+01 0. -1.
        -13    1    6    6    0    0  0.39026502028E+02  0.34811184399E+02 -0.11804866989E+03  0.12911380594E+03  0.00000000000E+00 0.  1.
         14    1    6    6    0    0  0.49525874129E+02  0.45601677811E+01 -0.11275400508E+02  0.50997470477E+02  0.00000000000E+00 0. -1.
         -5    1    3    3    0  503  0.45160410959E+02 -0.21476231255E+02 -0.31847406162E+01  0.50328161100E+02  0.47000000000E+01 0.  1.
         11    1    4    4    0    0 -0.43309213557E+02  0.21403850016E+02 -0.50867283246E+02  0.70151929975E+02  0.00000000000E+00 0. -1.
        -12    1    4    4    0    0 -0.64828127363E+02 -0.24297541893E+02  0.10450709458E+02  0.70016240742E+02  0.00000000000E+00 0.  1.
</event>
<event>
12    1  0.8416569E-002  0.2038656E+03  0.7818608E-02  0.1146696E+00
         21   -1    0    0  501  502  0.00000000000E+00  0.00000000000E+00  0.23178316143E+04  0.23178316143E+04  0.00000000000E+00 0.  1.
         21   -1    0    0  502  503 -0.00000000000E+00 -0.00000000000E+00 -0.31500058480E+02  0.31500058480E+02  0.00000000000E+00 0.  1.
         -6    2    1    2    0  503 -0.10346050263E+03  0.29794718524E+02  0.37142759980E+03  0.42369759134E+03  0.17311668365E+03 0.  0.
        -24    2    3    3    0    0 -0.94694229779E+01 -0.33370051273E+02  0.19982737375E+03  0.21804536359E+03  0.80059796348E+02 0.  0.
          6    2    1    2  501    0  0.10346050263E+03 -0.29794718524E+02  0.19149039560E+04  0.19256340814E+04  0.17209780345E+03 0.  0.
         24    2    5    5    0    0 -0.14480694433E+02 -0.37672824772E+01  0.72098446901E+03  0.72561183796E+03  0.80436632803E+02 0.  0.
          5    1    5    5  501    0  0.11794119706E+03 -0.26027436047E+02  0.11939194870E+04  0.12000222435E+04  0.47000000000E+01 0. -1.
        -11    1    6    6    0    0  0.23982727475E+02 -0.86850347047E+01  0.53601601213E+03  0.53662255479E+03  0.00000000000E+00 0.  1.
         12    1    6    6    0    0 -0.38463421908E+02  0.49177522275E+01  0.18496845688E+03  0.18898928317E+03  0.00000000000E+00 0. -1.
         -5    1    3    3    0  503 -0.93991079652E+02  0.63164769797E+02  0.17160022605E+03  0.20565222775E+03  0.47000000000E+01 0.  1.
         13    1    4    4    0    0 -0.13474813740E+02 -0.48389532941E+02  0.64128499311E+02  0.81459081307E+02  0.00000000000E+00 0. -1.
        -14    1    4    4    0    0  0.40053907621E+01  0.15019481668E+02  0.13569887444E+03  0.13658628228E+03  0.00000000000E+00 0.  1.
</event>
<event>
12    1  0.8416569E-002  0.3085182E+03  0.7818608E-02  0.1081335E+00
         21   -1    0    0  501  502  0.00000000000E+00  0.00000000000E+00  0.10689603759E+03  0.10689603759E+03  0.00000000000E+00 0. -1.
         21   -1    0    0  502  503 -0.00000000000E+00 -0.00000000000E+00 -0.91884590473E+03  0.91884590473E+03  0.00000000000E+00 0.  1.
         -6    2    1    2    0  503  0.48435326966E+02  0.24745115640E+03 -0.50463030940E+03  0.59027808179E+03  0.17377689423E+03 0.  0.
        -24    2    3    3    0    0 -0.29469075678E+02  0.17211848700E+03 -0.26273856736E+03  0.32517845542E+03  0.78843345336E+02 0.  0.
          6    2    1    2  501    0 -0.48435326966E+02 -0.24745115640E+03 -0.30731955773E+03  0.43546386053E+03  0.17777909765E+03 0.  0.
         24    2    5    5    0    0  0.76753091450E+01 -0.16915130019E+03 -0.26819009667E+03  0.33138468062E+03  0.96014612807E+02 0.  0.
          5    1    5    5  501    0 -0.56110636111E+02 -0.78299856213E+02 -0.39129461059E+02  0.10407917991E+03  0.47000000000E+01 0. -1.
        -11    1    6    6    0    0 -0.36833181777E+02 -0.10752729201E+03 -0.19588612437E+03  0.22647334397E+03  0.00000000000E+00 0.  1.
         12    1    6    6    0    0  0.44508490922E+02 -0.61624008182E+02 -0.72303972300E+02  0.10491133666E+03  0.00000000000E+00 0. -1.
         -5    1    3    3    0  503  0.77904402643E+02  0.75332669397E+02 -0.24189174204E+03  0.26509962636E+03  0.47000000000E+01 0.  1.
         13    1    4    4    0    0  0.54445466296E+01  0.48734283165E+02 -0.24951363792E+02  0.55020396206E+02  0.00000000000E+00 0. -1.
        -14    1    4    4    0    0 -0.34913622307E+02  0.12338420384E+03 -0.23778720357E+03  0.27015805922E+03  0.00000000000E+00 0.  1.
</event>
<event>
12    1  0.8416569E-002  0.1816876E+03  0.7818608E-02  0.1166643E+00
         21   -1    0    0  501  502  0.00000000000E+00  0.00000000000E+00  0.88934174196E+02  0.88934174196E+02  0.00000000000E+00 0.  1.
         21   -1    0    0  502  503 -0.00000000000E+00 -0.00000000000E+00 -0.41238230356E+03  0.41238230356E+03  0.00000000000E+00 0.  1.
         -6    2    1    2    0  503 -0.15840807666E+02  0.51191060226E+02 -0.79573379034E+02  0.19834899445E+03  0.17360571740E+03 0.  0.
        -24    2    3    3    0    0 -0.45689083908E+02  0.44861228318E+01 -0.10415483457E+03  0.13753280640E+03  0.77197315922E+02 0.  0.
          6    2    1    2  501    0  0.15840807666E+02 -0.51191060226E+02 -0.24387475033E+03  0.30296748331E+03  0.17158947013E+03 0.  0.
         24    2    5    5    0    0 -0.45177116467E+02 -0.80337375674E+01 -0.18730718169E+03  0.20911802201E+03  0.80875546524E+02 0.  0.
          5    1    5    5  501    0  0.61017924133E+02 -0.43157322659E+02 -0.56567568649E+02  0.93849461306E+02  0.47000000000E+01 0. -1.
        -13    1    6    6    0    0 -0.53805038596E+01  0.29155748788E+02 -0.11398775124E+03  0.11778036739E+03  0.00000000000E+00 0.  1.
         14    1    6    6    0    0 -0.39796612608E+02 -0.37189486355E+02 -0.73319430441E+02  0.91337654615E+02  0.00000000000E+00 0. -1.
         -5    1    3    3    0  503  0.29848276242E+02  0.46704937394E+02  0.24581455541E+02  0.60816188044E+02  0.47000000000E+01 0.  1.
         13    1    4    4    0    0 -0.58136527139E+02  0.13843022396E+02 -0.10616672830E+03  0.12183127371E+03  0.00000000000E+00 0. -1.
        -14    1    4    4    0    0  0.12447443232E+02 -0.93568995646E+01  0.20118937242E+01  0.15701532690E+02  0.00000000000E+00 0.  1.
</event>
<event>
12    1  0.8416569E-002  0.1855327E+03  0.7818608E-02  0.1162666E+00
         21   -1    0    0  501  502  0.00000000000E+00  0.00000000000E+00  0.79027044994E+03  0.79027044994E+03  0.00000000000E+00 0.  1.
         21   -1    0    0  502  503 -0.00000000000E+00 -0.00000000000E+00 -0.70125342163E+02  0.70125342163E+02  0.00000000000E+00 0.  1.
         -6    2    1    2    0  503  0.52901767478E+02 -0.41929563966E+02  0.94421329323E+02  0.20774532281E+03  0.17229639109E+03 0.  0.
        -24    2    3    3    0    0  0.68186957558E+01  0.14702232504E+01 -0.14400042425E+02  0.81763689310E+02  0.80182812993E+02 0.  0.
          6    2    1    2  501    0 -0.52901767478E+02  0.41929563966E+02  0.62572377845E+03  0.65265046929E+03  0.17281696332E+03 0.  0.
         24    2    5    5    0    0 -0.52677551950E+02  0.75820728808E+02  0.27894258357E+03  0.30418533696E+03  0.78714972505E+02 0.  0.
          5    1    5    5  501    0 -0.22421552790E+00 -0.33891164842E+02  0.34678119489E+03  0.34846513234E+03  0.47000000000E+01 0. -1.
        -13    1    6    6    0    0 -0.18662465159E-01 -0.10454594418E+02  0.83510979434E+02  0.84162833714E+02  0.00000000000E+00 0.  1.
         14    1    6    6    0    0 -0.52658889485E+02  0.86275323226E+02  0.19543160413E+03  0.22002250324E+03  0.00000000000E+00 0. -1.
         -5    1    3    3    0  503  0.46083071723E+02 -0.43399787216E+02  0.10882137175E+03  0.12598163350E+03  0.47000000000E+01 0.  1.
         13    1    4    4    0    0 -0.12244060925E+02  0.11023803606E+02  0.29031253788E+02  0.33380457911E+02  0.00000000000E+00 0. -1.
        -14    1    4    4    0    0  0.19062756680E+02 -0.95535803553E+01 -0.43431296213E+02  0.48383231399E+02  0.00000000000E+00 0.  1.
</event>
<event>
12    1  0.8416569E-002  0.1885271E+03  0.7818608E-02  0.1159832E+00
         21   -1    0    0  501  502  0.00000000000E+00  0.00000000000E+00  0.17042666314E+03  0.17042666314E+03  0.00000000000E+00 0. -1.
         21   -1    0    0  502  503 -0.00000000000E+00 -0.00000000000E+00 -0.20949276076E+03  0.20949276076E+03  0.00000000000E+00 0. -1.
         -6    2    1    2    0  503 -0.64083562757E+02 -0.40553360099E+02 -0.33392367705E+02  0.19130701202E+03  0.17242982513E+03 0.  0.
        -24    2    3    3    0    0  0.31152192768E+02 -0.74278616939E+01 -0.61045179923E+01  0.86741891076E+02  0.80381952476E+02 0.  0.
          6    2    1    2  501    0  0.64083562757E+02  0.40553360099E+02 -0.56737299062E+01  0.18861241188E+03  0.17260119546E+03 0.  0.
         24    2    5    5    0    0  0.29530545342E+02  0.39181623951E+02  0.61797666120E+02  0.11265010574E+03  0.80398022503E+02 0.  0.
          5    1    5    5  501    0  0.34553017415E+02  0.13717361482E+01 -0.67471396026E+02  0.75962306141E+02  0.47000000000E+01 0. -1.
        -11    1    6    6    0    0 -0.27831451139E+02  0.14619005230E+02  0.25357251622E+02  0.40389295565E+02  0.00000000000E+00 0.  1.
         12    1    6    6    0    0  0.57361996481E+02  0.24562618721E+02  0.36440414498E+02  0.72260810177E+02  0.00000000000E+00 0. -1.
         -5    1    3    3    0  503 -0.95235755526E+02 -0.33125498405E+02 -0.27287849713E+02  0.10456512094E+03  0.47000000000E+01 0.  1.
         13    1    4    4    0    0 -0.15720721660E+02  0.22489337832E+02  0.94158691572E+01  0.29009825880E+02  0.00000000000E+00 0. -1.
        -14    1    4    4    0    0  0.46872914428E+02 -0.29917199525E+02 -0.15520387150E+02  0.57732065195E+02  0.00000000000E+00 0.  1.
</event>
<event>
12    1  0.8416569E-002  0.1847030E+03  0.7818608E-02  0.1163832E+00
         21   -1    0    0  501  502  0.00000000000E+00  0.00000000000E+00  0.20953193913E+03  0.20953193913E+03  0.00000000000E+00 0.  1.
         21   -1    0    0  502  503 -0.00000000000E+00 -0.00000000000E+00 -0.17721487215E+03  0.17721487215E+03  0.00000000000E+00 0.  1.
         -6    2    1    2    0  503  0.39331727355E+02 -0.46595276273E+02 -0.42369989551E+02  0.18950038636E+03  0.17434757202E+03 0.  0.
        -24    2    3    3    0    0 -0.32023366667E+02 -0.57861289295E+02 -0.55168587283E+02  0.11598598916E+03  0.77690101346E+02 0.  0.
          6    2    1    2  501    0 -0.39331727355E+02  0.46595276273E+02  0.74687056524E+02  0.19724642492E+03  0.17207524861E+03 0.  0.
         24    2    5    5    0    0 -0.70613318502E+02 -0.47864084921E+01  0.10913191332E+02  0.10945228300E+03  0.82774114627E+02 0.  0.
          5    1    5    5  501    0  0.31281591148E+02  0.51381684765E+02  0.63773865192E+02  0.87794141921E+02  0.47000000000E+01 0. -1.
        -13    1    6    6    0    0 -0.27312923997E+02 -0.18742310599E+02  0.42635030687E+02  0.53990886875E+02  0.00000000000E+00 0.  1.
         14    1    6    6    0    0 -0.43300394505E+02  0.13955902107E+02 -0.31721839355E+02  0.55461396123E+02  0.00000000000E+00 0. -1.
         -5    1    3    3    0  503  0.71355094022E+02  0.11266013023E+02  0.12798597732E+02  0.73514397203E+02  0.47000000000E+01 0.  1.
         13    1    4    4    0    0 -0.21175672261E+02  0.15057343009E+02 -0.41011447416E+01  0.26304981703E+02  0.00000000000E+00 0. -1.
        -14    1    4    4    0    0 -0.10847694406E+02 -0.72918632304E+02 -0.51067442541E+02  0.89681007458E+02  0.00000000000E+00 0.  1.
</event>
<event>
12    1  0.8416569E-002  0.1848944E+03  0.7818608E-02  0.1163264E+00
         21   -1    0    0  501  502  0.00000000000E+00  0.00000000000E+00  0.52529880545E+03  0.52529880545E+03  0.00000000000E+00 0. -1.
         21   -1    0    0  502  503 -0.00000000000E+00 -0.00000000000E+00 -0.81068648212E+02  0.81068648212E+02  0.00000000000E+00 0. -1.
         -6    2    1    2    0  503 -0.62513000304E+02 -0.25477321234E+02  0.86498124429E+02  0.20367880487E+03  0.17159883718E+03 0.  0.
        -24    2    3    3    0    0 -0.89173802756E+02 -0.29369353695E+02  0.58297513920E+01  0.11850003573E+03  0.72067651774E+02 0.  0.
          6    2    1    2  501    0  0.62513000304E+02  0.25477321234E+02  0.35773203281E+03  0.40268864879E+03  0.17213068135E+03 0.  0.
         24    2    5    5    0    0 -0.25757713428E+02 -0.94986347259E+00  0.11112014042E+03  0.13938344477E+03  0.80098046344E+02 0.  0.
          5    1    5    5  501    0  0.88270713733E+02  0.26427184707E+02  0.24661189239E+03  0.26330520402E+03  0.47000000000E+01 0. -1.
        -13    1    6    6    0    0 -0.47875035267E+01 -0.29177298101E+02  0.97142884875E+02  0.10154297118E+03  0.00000000000E+00 0.  1.
         14    1    6    6    0    0 -0.20970209902E+02  0.28227434629E+02  0.13977255544E+02  0.37840473591E+02  0.00000000000E+00 0. -1.
         -5    1    3    3    0  503  0.26660802452E+02  0.38920324613E+01  0.80668373037E+02  0.85178769142E+02  0.47000000000E+01 0.  1.
         13    1    4    4    0    0 -0.52333353541E+02 -0.41621847847E+02  0.29439325581E+02  0.73060468119E+02  0.00000000000E+00 0. -1.
        -14    1    4    4    0    0 -0.36840449214E+02  0.12252494151E+02 -0.23609574189E+02  0.45439567611E+02  0.00000000000E+00 0.  1.
</event>
<event>
12    1  0.8416569E-002  0.2049454E+03  0.7818608E-02  0.1145889E+00
         21   -1    0    0  503  502  0.00000000000E+00  0.00000000000E+00  0.17308849843E+04  0.17308849843E+04  0.00000000000E+00 0. -1.
         21   -1    0    0  501  503 -0.00000000000E+00 -0.00000000000E+00 -0.36608678979E+02  0.36608678979E+02  0.00000000000E+00 0. -1.
          6    2    1    2  501    0  0.88786547622E+02 -0.66367522018E+02  0.33264808547E+03  0.39071391371E+03  0.17238014556E+03 0.  0.
         24    2    3    3    0    0  0.17649247934E+02 -0.34218602785E+02  0.28837219194E+03  0.30084449086E+03  0.76592936148E+02 0.  0.
         -6    2    1    2    0  502 -0.88786547622E+02  0.66367522018E+02  0.13616282199E+04  0.13767797496E+04  0.17088993741E+03 0.  0.
        -24    2    5    5    0    0 -0.72136332624E+02  0.49024931040E+02  0.46470896977E+03  0.47952603612E+03  0.79898049968E+02 0.  0.
          5    1    3    3  501    0  0.71137299689E+02 -0.32148919233E+02  0.44275893523E+02  0.89869422843E+02  0.47000000000E+01 0. -1.
        -13    1    4    4    0    0 -0.67841801181E+01  0.16254903570E+02  0.19887355715E+02  0.26566029196E+02  0.00000000000E+00 0.  1.
         14    1    4    4    0    0  0.24433428052E+02 -0.50473506355E+02  0.26848483623E+03  0.27427846167E+03  0.00000000000E+00 0. -1.
         -5    1    5    5    0  502 -0.16650214998E+02  0.17342590978E+02  0.89691925014E+03  0.89725371350E+03  0.47000000000E+01 0.  1.
         13    1    6    6    0    0 -0.15563922096E+02  0.53241883105E+02  0.15411162210E+03  0.16379049378E+03  0.00000000000E+00 0. -1.
        -14    1    6    6    0    0 -0.56572410528E+02 -0.42169520652E+01  0.31059734767E+03  0.31573554234E+03  0.00000000000E+00 0.  1.
</event>
<event>
12    1  0.8416569E-002  0.1834863E+03  0.7818608E-02  0.1164636E+00
         21   -1    0    0  501  502  0.00000000000E+00  0.00000000000E+00  0.10828003595E+03  0.10828003595E+03  0.00000000000E+00 0. -1.
         21   -1    0    0  502  503 -0.00000000000E+00 -0.00000000000E+00 -0.35765567869E+03  0.35765567869E+03  0.00000000000E+00 0.  1.
         -6    2    1    2    0  503 -0.62749770762E+02 -0.13250018105E+01 -0.20974882691E+03  0.27821912348E+03  0.17167417080E+03 0.  0.
        -24    2    3    3    0    0 -0.63724582380E+02  0.57632326328E+02 -0.16530794727E+03  0.20423264781E+03  0.83677652717E+02 0.  0.
          6    2    1    2  501    0  0.62749770762E+02  0.13250018105E+01 -0.39626815829E+02  0.18771659116E+03  0.17241793614E+03 0.  0.
         24    2    5    5    0    0  0.43566766682E+02 -0.10917706063E+02 -0.92413059824E+02  0.13004208122E+03  0.79708906635E+02 0.  0.
          5    1    5    5  501    0  0.19183004080E+02  0.12242707874E+02  0.52786243995E+02  0.57674509939E+02  0.47000000000E+01 0. -1.
        -11    1    6    6    0    0  0.49185099046E+02  0.24304914934E+02 -0.64990814410E+02  0.85051212901E+02  0.00000000000E+00 0.  1.
         12    1    6    6    0    0 -0.56183323643E+01 -0.35222620997E+02 -0.27422245413E+02  0.44990868318E+02  0.00000000000E+00 0. -1.
         -5    1    3    3    0  503  0.97481161803E+00 -0.58957328138E+02 -0.44440879640E+02  0.73986475670E+02  0.47000000000E+01 0.  1.
         11    1    4    4    0    0 -0.84843121397E+01  0.63585696182E+02 -0.82326031850E+02  0.10436809777E+03  0.00000000000E+00 0. -1.
        -12    1    4    4    0    0 -0.55240270240E+02 -0.59533698545E+01 -0.82981915423E+02  0.99864550047E+02  0.00000000000E+00 0.  1.
</event>
<event>
12    1  0.8416569E-002  0.1916000E+03  0.7818608E-02  0.1157113E+00
         21   -1    0    0  503  502  0.00000000000E+00  0.00000000000E+00  0.23331360130E+04  0.23331360130E+04  0.00000000000E+00 0. -1.
         21   -1    0    0  501  503 -0.00000000000E+00 -0.00000000000E+00 -0.23318635205E+02  0.23318635205E+02  0.00000000000E+00 0. -1.
          6    2    1    2  501    0 -0.31061805715E+02 -0.82869834257E+02  0.48075460246E+03  0.51738390520E+03  0.16949593616E+03 0.  0.
         24    2    3    3    0    0 -0.67073538271E+02 -0.92950162879E+02  0.26261627991E+03  0.29601345625E+03  0.74283669067E+02 0.  0.
         -6    2    1    2    0  502  0.31061805715E+02  0.82869834257E+02  0.18290627754E+04  0.18390707430E+04  0.16993621286E+03 0.  0.
        -24    2    5    5    0    0  0.12924668657E+02  0.69225419652E+02  0.17903064427E+04  0.17939124757E+04  0.89250242216E+02 0.  0.
          5    1    3    3  501    0  0.36011732556E+02  0.10080328622E+02  0.21813832255E+03  0.22137044896E+03  0.47000000000E+01 0. -1.
        -11    1    4    4    0    0  0.75939396243E+01  0.50018985677E+01  0.45458125300E+02  0.46358689198E+02  0.00000000000E+00 0.  1.
         12    1    4    4    0    0 -0.74667477895E+02 -0.97952061447E+02  0.21715815461E+03  0.24965476705E+03  0.00000000000E+00 0. -1.
         -5    1    5    5    0  502  0.18137137057E+02  0.13644414604E+02  0.38756332619E+02  0.45158267334E+02  0.47000000000E+01 0.  1.
         11    1    6    6    0    0 -0.22335022987E+02  0.65544623961E+02  0.80641157309E+03  0.80937913007E+03  0.00000000000E+00 0. -1.
        -12    1    6    6    0    0  0.35259691645E+02  0.36807956918E+01  0.98389486966E+03  0.98453334563E+03  0.00000000000E+00 0.  1.
</event>
<event>
12    1  0.8416569E-002  0.2283383E+03  0.7818608E-02  0.1127944E+00
         21   -1    0    0  501  502  0.00000000000E+00  0.00000000000E+00  0.59371400561E+02  0.59371400561E+02  0.00000000000E+00 0. -1.
         21   -1    0    0  502  503 -0.00000000000E+00 -0.00000000000E+00 -0.10682914135E+04  0.10682914135E+04  0.00000000000E+00 0.  1.
         -6    2    1    2    0  503 -0.46857336225E+02 -0.14384623807E+03 -0.74472043423E+03  0.77893959502E+03  0.17102928803E+03 0.  0.
        -24    2    3    3    0    0 -0.82442346345E+02 -0.14732345303E+03 -0.53662253287E+03  0.56774013829E+03  0.76577944396E+02 0.  0.
          6    2    1    2  501    0  0.46857336225E+02  0.14384623807E+03 -0.26419957868E+03  0.34872321901E+03  0.17005621405E+03 0.  0.
         24    2    5    5    0    0 -0.33096131005E+02  0.86705048345E+02 -0.18424600904E+03  0.22194650276E+03  0.81856819780E+02 0.  0.
          5    1    5    5  501    0  0.79953467230E+02  0.57141189730E+02 -0.79953569640E+02  0.12677671625E+03  0.47000000000E+01 0. -1.
        -13    1    6    6    0    0 -0.24535841788E+02  0.10168617829E+03 -0.16984120234E+03  0.19946959768E+03  0.00000000000E+00 0.  1.
         14    1    6    6    0    0 -0.85602892164E+01 -0.14981129943E+02 -0.14404806700E+02  0.22476905079E+02  0.00000000000E+00 0. -1.
         -5    1    3    3    0  503  0.35585010120E+02  0.34772149509E+01 -0.20809790136E+03  0.21119945672E+03  0.47000000000E+01 0.  1.
         13    1    4    4    0    0 -0.21086984469E+02  0.30766578003E+01 -0.41465006521E+02  0.46620526627E+02  0.00000000000E+00 0. -1.
        -14    1    4    4    0    0 -0.61355361876E+02 -0.15040011083E+03 -0.49515752634E+03  0.52111961167E+03  0.00000000000E+00 0.  1.
</event>
<event>
12    1  0.8416569E-002  0.1776383E+03  0.7818608E-02  0.1170199E+00
         21   -1    0    0  503  502  0.00000000000E+00  0.00000000000E+00  0.10756319138E+04  0.10756319138E+04  0.00000000000E+00 0. -1.
         21   -1    0    0  501  503 -0.00000000000E+00 -0.00000000000E+00 -0.10917329854E+03  0.10917329854E+03  0.00000000000E+00 0. -1.
          6    2    1    2  501    0 -0.19163979231E+02  0.40047160937E+02 -0.23689869518E+02  0.17884825940E+03  0.17162300770E+03 0.  0.
         24    2    3    3    0    0  0.16609649684E+02  0.76365287873E+02 -0.49292469872E+02  0.12160891965E+03  0.79066074249E+02 0.  0.
         -6    2    1    2    0  502  0.19163979231E+02 -0.40047160937E+02  0.99014848477E+03  0.10059569529E+04  0.17200097697E+03 0.  0.
        -24    2    5    5    0    0 -0.47474067714E+00 -0.32510585981E+02  0.97689767097E+03  0.98065570103E+03  0.79368638873E+02 0.  0.
          5    1    3    3  501    0 -0.35773628915E+02 -0.36318126937E+02  0.25602600353E+02  0.57239339748E+02  0.47000000000E+01 0. -1.
        -13    1    4    4    0    0  0.25924481475E+01  0.25635710214E+02  0.21387331822E+02  0.33486241772E+02  0.00000000000E+00 0.  1.
         14    1    4    4    0    0  0.14017201537E+02  0.50729577659E+02 -0.70679801693E+02  0.88122677875E+02  0.00000000000E+00 0. -1.
         -5    1    5    5    0  502  0.19638719908E+02 -0.75365749563E+01  0.13250813794E+02  0.25301251904E+02  0.47000000000E+01 0.  1.
         13    1    6    6    0    0  0.27616039430E+02 -0.38194276225E+02  0.35726213646E+03  0.36035771467E+03  0.00000000000E+00 0. -1.
        -14    1    6    6    0    0 -0.28090780107E+02  0.56836902449E+01  0.61963553451E+03  0.62029798637E+03  0.00000000000E+00 0.  1.
</event>
<event>
12    1  0.8416569E-002  0.2483888E+03  0.7818608E-02  0.1114355E+00
         21   -1    0    0  501  502  0.00000000000E+00  0.00000000000E+00  0.12375435205E+04  0.12375435205E+04  0.00000000000E+00 0. -1.
         21   -1    0    0  502  503 -0.00000000000E+00 -0.00000000000E+00 -0.16700728706E+03  0.16700728706E+03  0.00000000000E+00 0. -1.
         -6    2    1    2    0  503  0.24806067373E+02  0.17742872613E+03 -0.52951352137E+02  0.25397018647E+03  0.17204858641E+03 0.  0.
        -24    2    3    3    0    0 -0.19810128757E+02  0.11185674458E+03 -0.91244055768E+02  0.16577318611E+03  0.79062627132E+02 0.  0.
          6    2    1    2  501    0 -0.24806067373E+02 -0.17742872613E+03  0.11234875855E+04  0.11505806210E+04  0.17179964153E+03 0.  0.
         24    2    5    5    0    0 -0.30037448766E+02 -0.73001823704E+02  0.85695798619E+03  0.86423736090E+03  0.79358120476E+02 0.  0.
          5    1    5    5  501    0  0.52313813925E+01 -0.10442690243E+03  0.26652959934E+03  0.28634326014E+03  0.47000000000E+01 0. -1.
        -13    1    6    6    0    0  0.17030463570E+02 -0.25105133019E+02  0.50625048603E+03  0.50715861325E+03  0.00000000000E+00 0.  1.
         14    1    6    6    0    0 -0.47067912335E+02 -0.47896690684E+02  0.35070750017E+03  0.35707874765E+03  0.00000000000E+00 0. -1.
         -5    1    3    3    0  503  0.44616196130E+02  0.65571981551E+02  0.38292703630E+02  0.88197000363E+02  0.47000000000E+01 0.  1.
         11    1    4    4    0    0 -0.20907532727E+02  0.12330185254E+03 -0.90264207868E+02  0.15423390998E+03  0.00000000000E+00 0. -1.
        -12    1    4    4    0    0  0.10974039695E+01 -0.11445107959E+02 -0.97984789927E+00  0.11539276129E+02  0.00000000000E+00 0.  1.
</event>
<event>
12    1  0.8416569E-002  0.1880988E+03  0.7818608E-02  0.1160264E+00
         21   -1    0    0  503  502  0.00000000000E+00  0.00000000000E+00  0.42902933783E+03  0.42902933783E+03  0.00000000000E+00 0.  1.
         21   -1    0    0  501  503 -0.00000000000E+00 -0.00000000000E+00 -0.95049577909E+02  0.95049577909E+02  0.00000000000E+00 0.  1.
          6    2    1    2  501    0  0.73810678774E+02  0.16291800031E+02  0.26301019946E+03  0.32335048024E+03  0.17224322628E+03 0.  0.
         24    2    3    3    0    0  0.36002754772E+02  0.17817533843E+02  0.42812957450E+02  0.99876360099E+02  0.80800217312E+02 0.  0.
         -6    2    1    2    0  502 -0.73810678774E+02 -0.16291800031E+02  0.70969560457E+02  0.20072843550E+03  0.17187724474E+03 0.  0.
        -24    2    5    5    0    0 -0.69157344693E+01 -0.62044196758E+02  0.65783617281E+02  0.11938226542E+03  0.77635888996E+02 0.  0.
          5    1    3    3  501    0  0.37807924002E+02 -0.15257338116E+01  0.22019724201E+03  0.22347412014E+03  0.47000000000E+01 0. -1.
        -11    1    4    4    0    0  0.33632101041E+02  0.91440482939E+01  0.66203361292E+02  0.74817223191E+02  0.00000000000E+00 0.  1.
         12    1    4    4    0    0  0.23706537312E+01  0.86734855488E+01 -0.23390403842E+02  0.25059136908E+02  0.00000000000E+00 0. -1.
         -5    1    5    5    0  502 -0.66894944305E+02  0.45752396727E+02  0.51859431759E+01  0.81346170079E+02  0.47000000000E+01 0.  1.
         11    1    6    6    0    0 -0.13391951237E+02 -0.53239858577E+02  0.22807459143E+01  0.54945688649E+02  0.00000000000E+00 0. -1.
        -12    1    6    6    0    0  0.64762167678E+01 -0.88043381814E+01  0.63502871367E+02  0.64436576774E+02  0.00000000000E+00 0.  1.
</event>
<event>
12    1  0.8416569E-002  0.2060486E+03  0.7818608E-02  0.1145319E+00
         21   -1    0    0  503  502  0.00000000000E+00  0.00000000000E+00  0.21888054459E+03  0.21888054459E+03  0.00000000000E+00 0.  1.
         21   -1    0    0  501  503 -0.00000000000E+00 -0.00000000000E+00 -0.19356995169E+03  0.19356995169E+03  0.00000000000E+00 0. -1.
          6    2    1    2  501    0 -0.10886812891E+03  0.48368303047E+01 -0.98528020469E+01  0.20342304172E+03  0.17148816803E+03 0.  0.
         24    2    3    3    0    0 -0.32217343876E+02 -0.19911372736E+02  0.50561097924E+02  0.10262747778E+03  0.80879877357E+02 0.  0.
         -6    2    1    2    0  502  0.10886812891E+03 -0.48368303047E+01  0.35163394948E+02  0.20902745456E+03  0.17487237631E+03 0.  0.
        -24    2    5    5    0    0 -0.15289272282E+02  0.10351790464E+01  0.19533959638E+01  0.80285329376E+02  0.78785055148E+02 0.  0.
          5    1    3    3  501    0 -0.76650785034E+02  0.24748203041E+02 -0.60413899970E+02  0.10079556394E+03  0.47000000000E+01 0. -1.
        -11    1    4    4    0    0  0.16513879663E+02  0.39371638744E+01  0.44992182620E+02  0.48088522308E+02  0.00000000000E+00 0.  1.
         12    1    4    4    0    0 -0.48731223539E+02 -0.23848536611E+02  0.55689153038E+01  0.54538955470E+02  0.00000000000E+00 0. -1.
         -5    1    5    5    0  502  0.12415740119E+03 -0.58720093511E+01  0.33209998985E+02  0.12874212519E+03  0.47000000000E+01 0.  1.
         13    1    6    6    0    0  0.18026084555E+02  0.11857585330E+02  0.28917611158E+02  0.36080053899E+02  0.00000000000E+00 0. -1.
        -14    1    6    6    0    0 -0.33315356837E+02 -0.10822406284E+02 -0.26964215195E+02  0.44205275477E+02  0.00000000000E+00 0.  1.
</event>
<event>
12    1  0.8416569E-002  0.2411508E+03  0.7818608E-02  0.1119171E+00
         21   -1    0    0  503  502  0.00000000000E+00  0.00000000000E+00  0.70910346682E+03  0.70910346682E+03  0.00000000000E+00 0.  1.
         21   -1    0    0  501  503 -0.00000000000E+00 -0.00000000000E+00 -0.67383935427E+03  0.67383935427E+03  0.00000000000E+00 0. -1.
          6    2    1    2  501    0  0.16130708749E+03  0.45441343682E+02 -0.63055270851E+03  0.67509289019E+03  0.17340357547E+03 0.  0.
         24    2    3    3    0    0  0.18555682750E+03  0.61028352781E+02 -0.53958892031E+03  0.57955491080E+03  0.81067229085E+02 0.  0.
         -6    2    1    2    0  502 -0.16130708749E+03 -0.45441343682E+02  0.66581682106E+03  0.70784993090E+03  0.17220509075E+03 0.  0.
        -24    2    5    5    0    0 -0.18148223039E+02 -0.46621667752E+02  0.17240791639E+03  0.19406953925E+03  0.73726240427E+02 0.  0.
          5    1    3    3  501    0 -0.24249740010E+02 -0.15587009099E+02 -0.90963788194E+02  0.95537979389E+02  0.47000000000E+01 0. -1.
        -11    1    4    4    0    0  0.15745715210E+02  0.28710723813E+01 -0.68844862844E+01  0.17423167207E+02  0.00000000000E+00 0.  1.
         12    1    4    4    0    0  0.16981111229E+03  0.58157280399E+02 -0.53270443403E+03  0.56213174359E+03  0.00000000000E+00 0. -1.
         -5    1    5    5    0  502 -0.14315886445E+03  0.11803240702E+01  0.49340890467E+03  0.51378039165E+03  0.47000000000E+01 0.  1.
         13    1    6    6    0    0  0.12074741651E+02  0.15495187393E+02  0.45972413757E+02  0.49993630043E+02  0.00000000000E+00 0. -1.
        -14    1    6    6    0    0 -0.30222964690E+02 -0.62116855145E+02  0.12643550263E+03  0.14407590920E+03  0.00000000000E+00 0.  1.
</event>
<event>
12    1  0.8416569E-002  0.2771633E+03  0.7818608E-02  0.1097556E+00
         21   -1    0    0  501  502  0.00000000000E+00  0.00000000000E+00  0.49098876820E+03  0.49098876820E+03  0.00000000000E+00 0.  1.
         21   -1    0    0  502  503 -0.00000000000E+00 -0.00000000000E+00 -0.19201032960E+03  0.19201032960E+03  0.00000000000E+00 0.  1.
         -6    2    1    2    0  503  0.93480458010E+02 -0.19337094197E+03 -0.49143968941E+00  0.27495287049E+03  0.17166223303E+03 0.  0.
        -24    2    3    3    0    0  0.90768907481E+02 -0.59180135353E+02 -0.28360401412E+02  0.13779130840E+03  0.80254902140E+02 0.  0.
          6    2    1    2  501    0 -0.93480458010E+02  0.19337094197E+03  0.29946987829E+03  0.40804622731E+03  0.17518161544E+03 0.  0.
         24    2    5    5    0    0 -0.10961363997E+02  0.10035401399E+03  0.67341798176E+02  0.14466990843E+03  0.78761570572E+02 0.  0.
          5    1    5    5  501    0 -0.82519094013E+02  0.93016927981E+02  0.23212808011E+03  0.26337631888E+03  0.47000000000E+01 0. -1.
        -13    1    6    6    0    0 -0.32814290382E+02  0.88825777570E+01  0.17908638889E+02  0.38423914269E+02  0.00000000000E+00 0.  1.
         14    1    6    6    0    0  0.21852926385E+02  0.91471436236E+02  0.49433159287E+02  0.10624599416E+03  0.00000000000E+00 0. -1.
         -5    1    3    3    0  503  0.27115505290E+01 -0.13419080662E+03  0.27868961722E+02  0.13716156209E+03  0.47000000000E+01 0.  1.
         11    1    4    4    0    0  0.99396525318E-01  0.14842122847E+02 -0.13016991295E+02  0.19741847752E+02  0.00000000000E+00 0. -1.
        -12    1    4    4    0    0  0.90669510956E+02 -0.74022258200E+02 -0.15343410117E+02  0.11804946065E+03  0.00000000000E+00 0.  1.
</event>
<event>
12    1  0.8416569E-002  0.2448811E+03  0.7818608E-02  0.1116922E+00
         21   -1    0    0  503  502  0.00000000000E+00  0.00000000000E+00  0.59493943847E+02  0.59493943847E+02  0.00000000000E+00 0.  1.
         21   -1    0    0  501  503 -0.00000000000E+00 -0.00000000000E+00 -0.12281273969E+04  0.12281273969E+04  0.00000000000E+00 0. -1.
          6    2    1    2  501    0  0.13365694679E+03  0.11188467465E+03 -0.86011816107E+03  0.89373249552E+03  0.16903302253E+03 0.  0.
         24    2    3    3    0    0  0.68912216982E+02  0.88987407857E+02 -0.75945397617E+03  0.77178360055E+03  0.78815808969E+02 0.  0.
         -6    2    1    2    0  502 -0.13365694679E+03 -0.11188467465E+03 -0.30851529203E+03  0.39388884527E+03  0.17200109641E+03 0.  0.
        -24    2    5    5    0    0 -0.10685119836E+03 -0.14263560412E+03 -0.20522658617E+03  0.28273663175E+03  0.77845726349E+02 0.  0.
          5    1    3    3  501    0  0.64744729807E+02  0.22897266793E+02 -0.10066418489E+03  0.12194889497E+03  0.47000000000E+01 0. -1.
        -13    1    4    4    0    0  0.20603166526E+02  0.22120738326E+02 -0.57158643333E+02  0.64660096216E+02  0.00000000000E+00 0.  1.
         14    1    4    4    0    0  0.48309050456E+02  0.66866669531E+02 -0.70229533284E+03  0.70712350433E+03  0.00000000000E+00 0. -1.
         -5    1    5    5    0  502 -0.26805748425E+02  0.30750929465E+02 -0.10328870586E+03  0.11115221352E+03  0.47000000000E+01 0.  1.
         11    1    6    6    0    0 -0.24888433798E+02 -0.55156272679E+02 -0.12386762302E+03  0.13785803054E+03  0.00000000000E+00 0. -1.
        -12    1    6    6    0    0 -0.81962764566E+02 -0.87479331436E+02 -0.81358963151E+02  0.14487860121E+03  0.00000000000E+00 0.  1.
</event>
<event>
12    1  0.8416569E-002  0.1886295E+03  0.7818608E-02  0.1159723E+00
         21   -1    0    0  501  502  0.00000000000E+00  0.00000000000E+00  0.13679423257E+04  0.13679423257E+04  0.00000000000E+00 0.  1.
         21   -1    0    0  502  503 -0.00000000000E+00 -0.00000000000E+00 -0.28185325669E+02  0.28185325669E+02  0.00000000000E+00 0. -1.
         -6    2    1    2    0  503 -0.44883864997E+02 -0.64573470988E+02  0.86417668835E+03  0.88450500736E+03  0.17135771030E+03 0.  0.
        -24    2    3    3    0    0 -0.44686513605E+02 -0.10711615301E+03  0.56204431878E+03  0.57935590040E+03  0.79301250453E+02 0.  0.
          6    2    1    2  501    0  0.44883864997E+02  0.64573470988E+02  0.47558031164E+03  0.51162264396E+03  0.17145495764E+03 0.  0.
         24    2    5    5    0    0 -0.25806149466E+02  0.45525453959E+02  0.15488975074E+03  0.18264782586E+03  0.81430148571E+02 0.  0.
          5    1    5    5  501    0  0.70690014463E+02  0.19048017030E+02  0.32069056090E+03  0.32897481811E+03  0.47000000000E+01 0. -1.
        -13    1    6    6    0    0 -0.41153791142E+02 -0.17307441419E+01  0.10238809081E+03  0.11036281594E+03  0.00000000000E+00 0.  1.
         14    1    6    6    0    0  0.15347641676E+02  0.47256198100E+02  0.52501659929E+02  0.72285009921E+02  0.00000000000E+00 0. -1.
         -5    1    3    3    0  503 -0.19735139277E+00  0.42542682021E+02  0.30213236957E+03  0.30514910697E+03  0.47000000000E+01 0.  1.
         13    1    4    4    0    0 -0.53241465180E+02 -0.70008912157E+02  0.49035095924E+03  0.49817663998E+03  0.00000000000E+00 0. -1.
        -14    1    4    4    0    0  0.85549515752E+01 -0.37107240853E+02  0.71693359540E+02  0.81179260420E+02  0.00000000000E+00 0.  1.
</event>
<event>
12    1  0.8416569E-002  0.2074429E+03  0.7818608E-02  0.1143789E+00
         21   -1    0    0  501  502  0.00000000000E+00  0.00000000000E+00  0.34584496327E+03  0.34584496327E+03  0.00000000000E+00 0.  1.
         21   -1    0    0  502  503 -0.00000000000E+00 -0.00000000000E+00 -0.12696886210E+03  0.12696886210E+03  0.00000000000E+00 0. -1.
         -6    2    1    2    0  503  0.22813213738E+02 -0.11468302105E+03  0.72367882809E+02  0.21885078874E+03  0.17025251608E+03 0.  0.
        -24    2    3    3    0    0 -0.21593963867E+02 -0.13387009233E+03  0.44462805075E+02  0.16280683732E+03  0.78368516312E+02 0.  0.
          6    2    1    2  501    0 -0.22813213738E+02  0.11468302105E+03  0.14650821835E+03  0.25396303663E+03  0.17134738951E+03 0.  0.
         24    2    5    5    0    0 -0.16539236099E+02 -0.99685601473E+01  0.58084480164E+02  0.10093288612E+03  0.80254109816E+02 0.  0.
          5    1    5    5  501    0 -0.62739776387E+01  0.12465158119E+03  0.88423738191E+02  0.15303015051E+03  0.47000000000E+01 0. -1.
        -11    1    6    6    0    0 -0.39119199453E+02  0.20722679614E+02  0.34465926708E+02  0.56103844076E+02  0.00000000000E+00 0.  1.
         12    1    6    6    0    0  0.22579963354E+02 -0.30691239762E+02  0.23618553456E+02  0.44829042043E+02  0.00000000000E+00 0. -1.
         -5    1    3    3    0  503  0.44407177605E+02  0.19187071281E+02  0.27905077734E+02  0.56043951418E+02  0.47000000000E+01 0.  1.
         11    1    4    4    0    0 -0.18285114793E+02 -0.86035501681E+02 -0.11955026144E+02  0.88765847163E+02  0.00000000000E+00 0. -1.
        -12    1    4    4    0    0 -0.33088490735E+01 -0.47834590646E+02  0.56417831219E+02  0.74040990160E+02  0.00000000000E+00 0.  1.
</event>
<event>
12    1  0.8416569E-002  0.2535784E+03  0.7818608E-02  0.1111162E+00
         21   -1    0    0  503  502  0.00000000000E+00  0.00000000000E+00  0.43876723565E+03  0.43876723565E+03  0.00000000000E+00 0.  1.
         21   -1    0    0  501  503 -0.00000000000E+00 -0.00000000000E+00 -0.20971130400E+03  0.20971130400E+03  0.00000000000E+00 0.  1.
          6    2    1    2  501    0  0.14575279939E+03  0.11830289594E+03 -0.63825487331E+02  0.26148742828E+03  0.17047735509E+03 0.  0.
         24    2    3    3    0    0  0.89293760320E+02  0.12883759438E+03 -0.14235025516E+01  0.17654803419E+03  0.81207639168E+02 0.  0.
         -6    2    1    2    0  502 -0.14575279939E+03 -0.11830289594E+03  0.29288141898E+03  0.38699111138E+03  0.16953802223E+03 0.  0.
        -24    2    5    5    0    0 -0.82722441495E+02  0.84134273318E+00  0.16593725492E+03  0.20177478808E+03  0.79587576605E+02 0.  0.
          5    1    3    3  501    0  0.56459039072E+02 -0.10534698437E+02 -0.62401984779E+02  0.84939394090E+02  0.47000000000E+01 0. -1.
        -13    1    4    4    0    0  0.81687333900E+02  0.12450235184E+03 -0.25367555644E+02  0.15105353029E+03  0.00000000000E+00 0.  1.
         14    1    4    4    0    0  0.76064264202E+01  0.43352425410E+01  0.23944053092E+02  0.25494503903E+02  0.00000000000E+00 0. -1.
         -5    1    5    5    0  502 -0.63030357896E+02 -0.11914423867E+03  0.12694416406E+03  0.18521632330E+03  0.47000000000E+01 0.  1.
         13    1    6    6    0    0  0.11600919587E+02 -0.14557630158E+02  0.35337926959E+02  0.39940893992E+02  0.00000000000E+00 0. -1.
        -14    1    6    6    0    0 -0.94323361083E+02  0.15398972891E+02  0.13059932796E+03  0.16183389409E+03  0.00000000000E+00 0.  1.
</event>
<event>
12    1  0.8416569E-002  0.2212587E+03  0.7818608E-02  0.1132952E+00
         21   -1    0    0  503  502  0.00000000000E+00  0.00000000000E+00  0.94579110680E+03  0.94579110680E+03  0.00000000000E+00 0.  1.
         21   -1    0    0  501  503 -0.00000000000E+00 -0.00000000000E+00 -0.10290050261E+03  0.10290050261E+03  0.00000000000E+00 0. -1.
          6    2    1    2  501    0  0.12960063053E+03 -0.49689482519E+02  0.51768209975E+02  0.22721121643E+03  0.17227774435E+03 0.  0.
         24    2    3    3    0    0  0.48870241429E+02 -0.86085766005E+02  0.31507105611E+01  0.12607845010E+03  0.78017876128E+02 0.  0.
         -6    2    1    2    0  502 -0.12960063053E+03  0.49689482519E+02  0.79112239422E+03  0.82148039299E+03  0.17230793751E+03 0.  0.
        -24    2    5    5    0    0 -0.10510506736E+02  0.53518950713E+02  0.26296978796E+03  0.28003382323E+03  0.79316353509E+02 0.  0.
          5    1    3    3  501    0  0.80730389101E+02  0.36396283486E+02  0.48617499414E+02  0.10113276633E+03  0.47000000000E+01 0. -1.
        -13    1    4    4    0    0  0.30628291553E+02 -0.40900383798E+02  0.40076796887E+02  0.64939073653E+02  0.00000000000E+00 0.  1.
         14    1    4    4    0    0  0.18241949876E+02 -0.45185382208E+02 -0.36926086325E+02  0.61139376443E+02  0.00000000000E+00 0. -1.
         -5    1    5    5    0  502 -0.11909012379E+03 -0.38294681940E+01  0.52815260625E+03  0.54144656976E+03  0.47000000000E+01 0.  1.
         11    1    6    6    0    0  0.32983534075E+02  0.37413993964E+02  0.13532065445E+03  0.14421997083E+03  0.00000000000E+00 0. -1.
        -12    1    6    6    0    0 -0.43494040811E+02  0.16104956749E+02  0.12764913351E+03  0.13581385240E+03  0.00000000000E+00 0.  1.
</event>
<event>
12    1  0.8416569E-002  0.2657427E+03  0.7818608E-02  0.1104025E+00
         21   -1    0    0  501  502  0.00000000000E+00  0.00000000000E+00  0.41191989249E+03  0.41191989249E+03  0.00000000000E+00 0.  1.
         21   -1    0    0  502  503 -0.00000000000E+00 -0.00000000000E+00 -0.17418705887E+03  0.17418705887E+03  0.00000000000E+00 0.  1.
         -6    2    1    2    0  503  0.97764370723E+02 -0.17709617809E+03  0.74902820119E+02  0.27609711200E+03  0.17233181458E+03 0.  0.
        -24    2    3    3    0    0  0.40524460076E+02 -0.72411435590E+02 -0.28325135737E+02  0.11825730855E+03  0.79352566706E+02 0.  0.
          6    2    1    2  501    0 -0.97764370723E+02  0.17709617809E+03  0.16283001351E+03  0.31000983936E+03  0.16932678088E+03 0.  0.
         24    2    5    5    0    0 -0.11131675011E+03  0.13788239129E+03  0.18015526678E+03  0.26480317543E+03  0.79131718586E+02 0.  0.
          5    1    5    5  501    0  0.13552379391E+02  0.39213786803E+02 -0.17325253273E+02  0.45206663929E+02  0.47000000000E+01 0. -1.
        -13    1    6    6    0    0 -0.70517732605E+02  0.91667099998E+02  0.16469569300E+03  0.20124681147E+03  0.00000000000E+00 0.  1.
         14    1    6    6    0    0 -0.40799017509E+02  0.46215291290E+02  0.15459573783E+02  0.63556363964E+02  0.00000000000E+00 0. -1.
         -5    1    3    3    0  503  0.57239910647E+02 -0.10468474250E+03  0.10322795586E+03  0.15783980345E+03  0.47000000000E+01 0.  1.
         13    1    4    4    0    0  0.85394518727E+01  0.35439308032E+01  0.20483530596E+02  0.22473466789E+02  0.00000000000E+00 0. -1.
        -14    1    4    4    0    0  0.31985008203E+02 -0.75955366394E+02 -0.48808666333E+02  0.95783841763E+02  0.00000000000E+00 0.  1.
</event>
<event>
12    1  0.8416569E-002  0.1748752E+03  0.7818608E-02  0.1173262E+00
         21   -1    0    0  503  502  0.00000000000E+00  0.00000000000E+00  0.90977358623E+02  0.90977358623E+02  0.00000000000E+00 0. -1.
         21   -1    0    0  501  503 -0.00000000000E+00 -0.00000000000E+00 -0.51644656859E+03  0.51644656859E+03  0.00000000000E+00 0. -1.
          6    2    1    2  501    0 -0.33258656161E+01  0.30736740342E+02 -0.39307891516E+03  0.42957435336E+03  0.17049129870E+03 0.  0.
         24    2    3    3    0    0  0.25265439781E+02  0.56299907098E+02 -0.37234950331E+03  0.38572533108E+03  0.79572962981E+02 0.  0.
         -6    2    1    2    0  502  0.33258656161E+01 -0.30736740342E+02 -0.32390294813E+02  0.17784957386E+03  0.17212068770E+03 0.  0.
        -24    2    5    5    0    0  0.29830373596E+02 -0.72759885026E+01 -0.81037755893E+02  0.11750422367E+03  0.79355740197E+02 0.  0.
          5    1    3    3  501    0 -0.28591305397E+02 -0.25563166755E+02 -0.20729411848E+02  0.43849022274E+02  0.47000000000E+01 0. -1.
        -11    1    4    4    0    0  0.17524838439E+02 -0.14060863511E+02 -0.39599667749E+02  0.45529787291E+02  0.00000000000E+00 0.  1.
         12    1    4    4    0    0  0.77406013414E+01  0.70360770608E+02 -0.33274983556E+03  0.34019554379E+03  0.00000000000E+00 0. -1.
         -5    1    5    5    0  502 -0.26504507980E+02 -0.23460751840E+02  0.48647461080E+02  0.60345350191E+02  0.47000000000E+01 0.  1.
         11    1    6    6    0    0  0.49559810841E+02  0.14551539830E+02 -0.67818692264E+02  0.85248443871E+02  0.00000000000E+00 0. -1.
        -12    1    6    6    0    0 -0.19729437245E+02 -0.21827528333E+02 -0.13219063629E+02  0.32255779798E+02  0.00000000000E+00 0.  1.
</event>
<event>
12    1  0.8416569E-002  0.2795372E+03  0.7818608E-02  0.1095980E+00
         21   -1    0    0  503  502  0.00000000000E+00  0.00000000000E+00  0.62003474416E+02  0.62003474416E+02  0.00000000000E+00 0. -1.
         21   -1    0    0  501  503 -0.00000000000E+00 -0.00000000000E+00 -0.12607237138E+04  0.12607237138E+04  0.00000000000E+00 0. -1.
          6    2    1    2  501    0  0.14816754148E+03 -0.16318207659E+03 -0.62350114004E+03  0.68318200857E+03  0.17147004036E+03 0.  0.
         24    2    3    3    0    0  0.14079883064E+03 -0.14211418016E+03 -0.36521811712E+03  0.42389382124E+03  0.79252430284E+02 0.  0.
         -6    2    1    2    0  502 -0.14816754148E+03  0.16318207659E+03 -0.57521909936E+03  0.63954517966E+03  0.17192735118E+03 0.  0.
        -24    2    5    5    0    0 -0.13705794921E+03  0.19065577362E+03 -0.52740045899E+03  0.58309219536E+03  0.81919220522E+02 0.  0.
          5    1    3    3  501    0  0.73687108433E+01 -0.21067896424E+02 -0.25828302292E+03  0.25928818733E+03  0.47000000000E+01 0. -1.
        -13    1    4    4    0    0  0.66080795604E+02 -0.16015499461E+02 -0.10125023496E+03  0.12196219845E+03  0.00000000000E+00 0.  1.
         14    1    4    4    0    0  0.74718035035E+02 -0.12609868070E+03 -0.26396788216E+03  0.30193162280E+03  0.00000000000E+00 0. -1.
         -5    1    5    5    0  502 -0.11109592276E+02 -0.27473697031E+02 -0.47818640372E+02  0.56452984298E+02  0.47000000000E+01 0.  1.
         13    1    6    6    0    0 -0.10020802740E+03  0.13366024805E+03 -0.45075977668E+03  0.48071934321E+03  0.00000000000E+00 0. -1.
        -14    1    6    6    0    0 -0.36849921810E+02  0.56995525566E+02 -0.76640682307E+02  0.10237285215E+03  0.00000000000E+00 0.  1.
</event>
<event>
12    1  0.8416569E-002  0.2466981E+03  0.7818608E-02  0.1115527E+00
         21   -1    0    0  501  502  0.00000000000E+00  0.00000000000E+00  0.30833009309E+03  0.30833009309E+03  0.00000000000E+00 0.  1.
         21   -1    0    0  502  503 -0.00000000000E+00 -0.00000000000E+00 -0.17287885923E+04  0.17287885923E+04  0.00000000000E+00 0.  1.
         -6    2    1    2    0  503 -0.17039726498E+03 -0.41876675981E+02 -0.16691816244E+04  0.16873136219E+04  0.17341014814E+03 0.  0.
        -24    2    3    3    0    0 -0.14970081397E+03 -0.27624124700E+02 -0.82151228505E+03  0.83925886118E+03  0.79369865807E+02 0.  0.
          6    2    1    2  501    0  0.17039726498E+03  0.41876675981E+02  0.24872312524E+03  0.34980506344E+03  0.17237025693E+03 0.  0.
         24    2    5    5    0    0  0.49116297502E+02  0.60082439758E+02  0.66027168184E+02  0.12971320618E+03  0.80272153775E+02 0.  0.
          5    1    5    5  501    0  0.12128096748E+03 -0.18205763777E+02  0.18269595706E+03  0.22009185726E+03  0.47000000000E+01 0. -1.
        -13    1    6    6    0    0 -0.12030729930E+02 -0.30547427232E+01  0.33952280660E+02  0.36150066082E+02  0.00000000000E+00 0.  1.
         14    1    6    6    0    0  0.61147027431E+02  0.63137182482E+02  0.32074887524E+02  0.93563140098E+02  0.00000000000E+00 0. -1.
         -5    1    3    3    0  503 -0.20696451010E+02 -0.14252551281E+02 -0.84766933939E+03  0.84805476076E+03  0.47000000000E+01 0.  1.
         13    1    4    4    0    0 -0.52341839291E+02 -0.45436263947E+02 -0.25945046434E+03  0.26854918668E+03  0.00000000000E+00 0. -1.
        -14    1    4    4    0    0 -0.97358974679E+02  0.17812139246E+02 -0.56206182072E+03  0.57070967450E+03  0.00000000000E+00 0.  1.
</event>
<event>
12    1  0.8416569E-002  0.2021009E+03  0.7818608E-02  0.1148252E+00
         21   -1    0    0  503  502  0.00000000000E+00  0.00000000000E+00  0.42000181124E+03  0.42000181124E+03  0.00000000000E+00 0. -1.
         21   -1    0    0  501  503 -0.00000000000E+00 -0.00000000000E+00 -0.35722091419E+03  0.35722091419E+03  0.00000000000E+00 0. -1.
          6    2    1    2  501    0 -0.83809932722E+02  0.61934778620E+02 -0.30050233710E+03  0.36214142887E+03  0.17316101835E+03 0.  0.
         24    2    3    3    0    0 -0.19352435073E+01  0.90727733114E+02 -0.19611916596E+03  0.22630904916E+03  0.67214520369E+02 0.  0.
         -6    2    1    2    0  502  0.83809932722E+02 -0.61934778620E+02  0.36328323415E+03  0.41508129656E+03  0.17163261028E+03 0.  0.
        -24    2    5    5    0    0  0.88451525193E+02  0.55654184116E+01  0.29857276362E+03  0.32134039846E+03  0.79115803194E+02 0.  0.
          5    1    3    3  501    0 -0.81874689215E+02 -0.28792954494E+02 -0.10438317113E+03  0.13583237971E+03  0.47000000000E+01 0. -1.
        -11    1    4    4    0    0  0.30636745840E+02  0.44901995772E+02 -0.11943153346E+03  0.13122000840E+03  0.00000000000E+00 0.  1.
         12    1    4    4    0    0 -0.32571989347E+02  0.45825737341E+02 -0.76687632503E+02  0.95089040756E+02  0.00000000000E+00 0. -1.
         -5    1    5    5    0  502 -0.46415924708E+01 -0.67500197031E+02  0.64710470527E+02  0.93740898095E+02  0.47000000000E+01 0.  1.
         13    1    6    6    0    0  0.46454959386E+02 -0.49598587000E+01  0.47732504522E+02  0.66791132928E+02  0.00000000000E+00 0. -1.
        -14    1    6    6    0    0  0.41996565807E+02  0.10525277112E+02  0.25084025910E+03  0.25454926553E+03  0.00000000000E+00 0.  1.
</event>
<event>
12    1  0.8416569E-002  0.2090867E+03  0.7818608E-02  0.1142840E+00
         21   -1    0    0  503  502  0.00000000000E+00  0.00000000000E+00  0.21157212185E+03  0.21157212185E+03  0.00000000000E+00 0. -1.
         21   -1    0    0  501  503 -0.00000000000E+00 -0.00000000000E+00 -0.22960269695E+03  0.22960269695E+03  0.00000000000E+00 0. -1.
          6    2    1    2  501    0 -0.11814799649E+03 -0.12849544122E+02  0.64684881200E+02  0.21886384742E+03  0.17202671302E+03 0.  0.
         24    2    3    3    0    0 -0.12825381456E+03 -0.47841682326E+02  0.15482761087E+02  0.15746746382E+03  0.76278560262E+02 0.  0.
         -6    2    1    2    0  502  0.11814799649E+03  0.12849544122E+02 -0.82715456297E+02  0.22231097138E+03  0.16868983795E+03 0.  0.
        -24    2    5    5    0    0  0.12435380718E+03  0.35245144333E+01 -0.11427222757E+03  0.18849694947E+03  0.83646078238E+02 0.  0.
          5    1    3    3  501    0  0.10105818069E+02  0.34992138204E+02  0.49202120113E+02  0.61396383595E+02  0.47000000000E+01 0. -1.
        -11    1    4    4    0    0 -0.22640357425E+02 -0.13432476653E+02 -0.27771128705E+02  0.38265556352E+02  0.00000000000E+00 0.  1.
         12    1    4    4    0    0 -0.10561345713E+03 -0.34409205673E+02  0.43253889793E+02  0.11920190747E+03  0.00000000000E+00 0. -1.
         -5    1    5    5    0  502 -0.62058106918E+01  0.93250296889E+01  0.31556771269E+02  0.33814021913E+02  0.47000000000E+01 0.  1.
         13    1    6    6    0    0  0.50596090897E+02  0.34623167089E+02 -0.81540403860E+02  0.10201747681E+03  0.00000000000E+00 0. -1.
        -14    1    6    6    0    0  0.73757716283E+02 -0.31098652655E+02 -0.32731823706E+02  0.86479472659E+02  0.00000000000E+00 0.  1.
</event>
<event>
12    1  0.8416569E-002  0.3351171E+03  0.7818608E-02  0.1068988E+00
         21   -1    0    0  503  502  0.00000000000E+00  0.00000000000E+00  0.14452266609E+03  0.14452266609E+03  0.00000000000E+00 0. -1.
         21   -1    0    0  501  503 -0.00000000000E+00 -0.00000000000E+00 -0.90551133766E+03  0.90551133766E+03  0.00000000000E+00 0.  1.
          6    2    1    2  501    0  0.28142452656E+03 -0.67688363368E+02 -0.58017132823E+03  0.67000166943E+03  0.16888454121E+03 0.  0.
         24    2    3    3    0    0  0.96962635815E+02 -0.46603060456E+02 -0.14820560316E+03  0.19980250231E+03  0.79890807551E+02 0.  0.
         -6    2    1    2    0  502 -0.28142452656E+03  0.67688363368E+02 -0.18081734335E+03  0.38003233432E+03  0.16717710604E+03 0.  0.
        -24    2    5    5    0    0 -0.77594101192E+02 -0.10944142311E+02 -0.34335500205E+02  0.11695642583E+03  0.79744969606E+02 0.  0.
          5    1    3    3  501    0  0.18446189075E+03 -0.21085302912E+02 -0.43196572506E+03  0.47019916713E+03  0.47000000000E+01 0. -1.
        -13    1    4    4    0    0  0.33422585109E+02  0.22289035857E+02 -0.48180663165E+02  0.62731544041E+02  0.00000000000E+00 0.  1.
         14    1    4    4    0    0  0.63540050706E+02 -0.68892096313E+02 -0.10002494000E+03  0.13707095827E+03  0.00000000000E+00 0. -1.
         -5    1    5    5    0  502 -0.20383042537E+03  0.78632505679E+02 -0.14648184315E+03  0.26307590849E+03  0.47000000000E+01 0.  1.
         11    1    6    6    0    0 -0.59556174892E+02 -0.32639028182E+02 -0.50324360799E+02  0.84526832534E+02  0.00000000000E+00 0. -1.
        -12    1    6    6    0    0 -0.18037926300E+02  0.21694885871E+02  0.15988860594E+02  0.32429593295E+02  0.00000000000E+00 0.  1.
</event>
<event>
12    1  0.8416569E-002  0.1806218E+03  0.7818608E-02  0.1167928E+00
         21   -1    0    0  501  502  0.00000000000E+00  0.00000000000E+00  0.41365440133E+02  0.41365440133E+02  0.00000000000E+00 0. -1.
         21   -1    0    0  502  503 -0.00000000000E+00 -0.00000000000E+00 -0.77728958837E+03  0.77728958837E+03  0.00000000000E+00 0. -1.
         -6    2    1    2    0  503 -0.11962503796E+02  0.45384601019E+02 -0.38336888702E+03  0.42252442149E+03  0.17132518704E+03 0.  0.
        -24    2    3    3    0    0 -0.58207841202E+02  0.10204861369E+02 -0.32578958445E+03  0.34058718089E+03  0.79802772335E+02 0.  0.
          6    2    1    2  501    0  0.11962503796E+02 -0.45384601019E+02 -0.35255526121E+03  0.39613060701E+03  0.17441726432E+03 0.  0.
         24    2    5    5    0    0  0.74222379209E+02 -0.10543284432E+02 -0.18513784850E+03  0.21408421317E+03  0.77044824371E+02 0.  0.
          5    1    5    5  501    0 -0.62259875413E+02 -0.34841316587E+02 -0.16741741271E+03  0.18204639383E+03  0.47000000000E+01 0. -1.
        -13    1    6    6    0    0  0.24336809130E+02  0.73037451057E+01 -0.14605023480E+03  0.14824404223E+03  0.00000000000E+00 0.  1.
         14    1    6    6    0    0  0.49885570080E+02 -0.17847029538E+02 -0.39087613694E+02  0.65840170943E+02  0.00000000000E+00 0. -1.
         -5    1    3    3    0  503  0.46245337406E+02  0.35179739651E+02 -0.57579302569E+02  0.81937240605E+02  0.47000000000E+01 0.  1.
         13    1    4    4    0    0 -0.60728993091E+02  0.37110452965E+02 -0.25722677634E+03  0.26689100919E+03  0.00000000000E+00 0. -1.
        -14    1    4    4    0    0  0.25211518882E+01 -0.26905591596E+02 -0.68562808115E+02  0.73696171695E+02  0.00000000000E+00 0.  1.
</event>
<event>
12    1  0.8416569E-002  0.1772150E+03  0.7818608E-02  0.1170551E+00
         21   -1    0    0  501  502  0.00000000000E+00  0.00000000000E+00  0.68857292078E+03  0.68857292078E+03  0.00000000000E+00 0. -1.
         21   -1    0    0  502  503 -0.00000000000E+00 -0.00000000000E+00 -0.46495959573E+02  0.46495959573E+02  0.00000000000E+00 0. -1.
         -6    2    1    2    0  503 -0.88599988701E+01  0.40501653883E+02  0.26945988113E+03  0.32245688648E+03  0.17219446143E+03 0.  0.
        -24    2    3    3    0    0  0.49962933164E+02  0.40723740501E+02  0.22833782768E+03  0.25053123086E+03  0.80455057990E+02 0.  0.
          6    2    1    2  501    0  0.88599988701E+01 -0.40501653883E+02  0.37261708007E+03  0.41261199387E+03  0.17229708524E+03 0.  0.
         24    2    5    5    0    0 -0.27050683165E+02  0.23356740035E+02  0.28830645690E+03  0.30081824299E+03  0.78062317787E+02 0.  0.
          5    1    5    5  501    0  0.35910682035E+02 -0.63858393919E+02  0.84310623170E+02  0.11179375089E+03  0.47000000000E+01 0. -1.
        -11    1    6    6    0    0 -0.20288364442E+02  0.46768485890E+02  0.11481900183E+03  0.12562767285E+03  0.00000000000E+00 0.  1.
         12    1    6    6    0    0 -0.67623187228E+01 -0.23411745855E+02  0.17348745507E+03  0.17519057013E+03  0.00000000000E+00 0. -1.
         -5    1    3    3    0  503 -0.58822932034E+02 -0.22208661758E+00  0.41122053452E+02  0.71925655615E+02  0.47000000000E+01 0.  1.
         13    1    4    4    0    0 -0.73017800132E+01  0.36610442784E+00  0.12770519606E+03  0.12791429601E+03  0.00000000000E+00 0. -1.
        -14    1    4    4    0    0  0.57264713177E+02  0.40357636073E+02  0.10063263162E+03  0.12261693485E+03  0.00000000000E+00 0.  1.
</event>
<event>
12    1  0.8416569E-002  0.2538941E+03  0.7818608E-02  0.1111204E+00
         21   -1    0    0  503  502  0.00000000000E+00  0.00000000000E+00  0.20127184961E+04  0.20127184961E+04  0.00000000000E+00 0. -1.
         21   -1    0    0  501  503 -0.00000000000E+00 -0.00000000000E+00 -0.40399206413E+02  0.40399206413E+02  0.00000000000E+00 0.  1.
          6    2    1    2  501    0 -0.12455302231E+03  0.13937452158E+03  0.51464477515E+03  0.57386535989E+03  0.17182402061E+03 0.  0.
         24    2    3    3    0    0 -0.94577780768E+02  0.30381193897E+02  0.36340123539E+03  0.38498773044E+03  0.79291368718E+02 0.  0.
         -6    2    1    2    0  502  0.12455302231E+03 -0.13937452158E+03  0.14576745145E+04  0.14792523426E+04  0.16862321962E+03 0.  0.
        -24    2    5    5    0    0  0.72891623091E+02 -0.37795038911E+02  0.10265627037E+04  0.10333075312E+04  0.84568407474E+02 0.  0.
          5    1    3    3  501    0 -0.29975241543E+02  0.10899332769E+03  0.15124353977E+03  0.18887762945E+03  0.47000000000E+01 0. -1.
        -13    1    4    4    0    0 -0.18169844676E+02  0.41038234597E+02  0.85331076716E+02  0.96414068517E+02  0.00000000000E+00 0.  1.
         14    1    4    4    0    0 -0.76407936092E+02 -0.10657040700E+02  0.27807015867E+03  0.28857366192E+03  0.00000000000E+00 0. -1.
         -5    1    5    5    0  502  0.51661399220E+02 -0.10157948267E+03  0.43111181078E+03  0.44594481145E+03  0.47000000000E+01 0.  1.
         13    1    6    6    0    0  0.15344156245E+02 -0.52386972374E+02  0.36122818587E+03  0.36532949549E+03  0.00000000000E+00 0. -1.
        -14    1    6    6    0    0  0.57547466847E+02  0.14591933463E+02  0.66533451787E+03  0.66797803567E+03  0.00000000000E+00 0.  1.
</event>
<event>
12    1  0.8416569E-002  0.2179088E+03  0.7818608E-02  0.1135806E+00
         21   -1    0    0  501  502  0.00000000000E+00  0.00000000000E+00  0.23074769025E+04  0.23074769025E+04  0.00000000000E+00 0.  1.
         21   -1    0    0  502  503 -0.00000000000E+00 -0.00000000000E+00 -0.20539486732E+02  0.20539486732E+02  0.00000000000E+00 0.  1.
         -6    2    1    2    0  503 -0.81251322949E+02 -0.10278496181E+03  0.12434589845E+04  0.12624082119E+04  0.17411984738E+03 0.  0.
        -24    2    3    3    0    0  0.18714520574E+02 -0.43500295879E+02  0.74565704155E+03  0.75119719286E+03  0.77783609661E+02 0.  0.
          6    2    1    2  501    0  0.81251322949E+02  0.10278496181E+03  0.10434784313E+04  0.10656081774E+04  0.17177609093E+03 0.  0.
         24    2    5    5    0    0  0.10952767103E+03  0.34700771388E+02  0.61106968299E+03  0.62693469471E+03  0.80252724001E+02 0.  0.
          5    1    5    5  501    0 -0.28276348083E+02  0.68084190418E+02  0.43240874828E+03  0.43867348271E+03  0.47000000000E+01 0. -1.
        -13    1    6    6    0    0  0.72939694263E+01  0.36808146188E+02  0.14467758693E+03  0.14946453015E+03  0.00000000000E+00 0.  1.
         14    1    6    6    0    0  0.10223370161E+03 -0.21073748002E+01  0.46639209606E+03  0.47747016456E+03  0.00000000000E+00 0. -1.
         -5    1    3    3    0  503 -0.99965843523E+02 -0.59284665927E+02  0.49780194300E+03  0.51121101899E+03  0.47000000000E+01 0.  1.
         13    1    4    4    0    0  0.48352246000E+00  0.28606712661E+01  0.52412320728E+03  0.52413123704E+03  0.00000000000E+00 0. -1.
        -14    1    4    4    0    0  0.18230998114E+02 -0.46360967145E+02  0.22153383427E+03  0.22706595582E+03  0.00000000000E+00 0.  1.
</event>
<event>
12    1  0.8416569E-002  0.1837184E+03  0.7818608E-02  0.1164880E+00
         21   -1    0    0  501  502  0.00000000000E+00  0.00000000000E+00  0.63339790328E+03  0.63339790328E+03  0.00000000000E+00 0.  1.
         21   -1    0    0  502  503 -0.00000000000E+00 -0.00000000000E+00 -0.56485651316E+02  0.56485651316E+02  0.00000000000E+00 0.  1.
         -6    2    1    2    0  503  0.33606343558E+02 -0.47199405073E+02  0.19515179794E+03  0.26621683684E+03  0.17155177007E+03 0.  0.
        -24    2    3    3    0    0  0.67350584661E+02 -0.58718112464E+02  0.19818137814E+03  0.23012497095E+03  0.75483280436E+02 0.  0.
          6    2    1    2  501    0 -0.33606343558E+02  0.47199405073E+02  0.38176045402E+03  0.42366671775E+03  0.17434240249E+03 0.  0.
         24    2    5    5    0    0  0.29615179396E+02  0.71787651025E+02  0.27598228951E+03  0.29791834642E+03  0.80985130250E+02 0.  0.
          5    1    5    5  501    0 -0.63221522954E+02 -0.24588245952E+02  0.10577816451E+03  0.12574837133E+03  0.47000000000E+01 0. -1.
        -11    1    6    6    0    0 -0.22309690286E+02  0.37249553880E+02  0.67077691127E+02  0.79904118741E+02  0.00000000000E+00 0.  1.
         12    1    6    6    0    0  0.51924869682E+02  0.34538097145E+02  0.20890459838E+03  0.21801422768E+03  0.00000000000E+00 0. -1.
         -5    1    3    3    0  503 -0.33744241103E+02  0.11518707391E+02 -0.30295802052E+01  0.36091865895E+02  0.47000000000E+01 0.  1.
         11    1    4    4    0    0  0.15145468041E+01  0.13495554198E+02  0.66850497643E+01  0.15136503080E+02  0.00000000000E+00 0. -1.
        -12    1    4    4    0    0  0.65836037857E+02 -0.72213666662E+02  0.19149632838E+03  0.21498846787E+03  0.00000000000E+00 0.  1.
</event>
<event>
12    1  0.8416569E-002  0.2478212E+03  0.7818608E-02  0.1114966E+00
         21   -1    0    0  503  502  0.00000000000E+00  0.00000000000E+00  0.82794969156E+03  0.82794969156E+03  0.00000000000E+00 0. -1.
         21   -1    0    0  501  503 -0.00000000000E+00 -0.00000000000E+00 -0.17122830509E+03  0.17122830509E+03  0.00000000000E+00 0.  1.
          6    2    1    2  501    0  0.33474058048E+02  0.17482908926E+03 -0.48259797395E+02  0.25247644456E+03  0.17242280590E+03 0.  0.
         24    2    3    3    0    0  0.59635297732E+02  0.16854084134E+03 -0.78947788141E+02  0.21139365863E+03  0.80573827759E+02 0.  0.
         -6    2    1    2    0  502 -0.33474058048E+02 -0.17482908926E+03  0.70498118387E+03  0.74670155209E+03  0.16993826899E+03 0.  0.
        -24    2    5    5    0    0 -0.90353013399E+02 -0.13299046509E+03  0.51392947414E+03  0.54296512475E+03  0.69552077392E+02 0.  0.
          5    1    3    3  501    0 -0.26161239684E+02  0.62882479238E+01  0.30687990746E+02  0.41082785930E+02  0.47000000000E+01 0. -1.
        -13    1    4    4    0    0  0.43307960824E+02  0.15458440703E+03 -0.93187557522E+02  0.18562284139E+03  0.00000000000E+00 0.  1.
         14    1    4    4    0    0  0.16327336908E+02  0.13956434310E+02  0.14239769381E+02  0.25770817239E+02  0.00000000000E+00 0. -1.
         -5    1    5    5    0  502  0.56878955351E+02 -0.41838624173E+02  0.19105170973E+03  0.20373642734E+03  0.47000000000E+01 0.  1.
         11    1    6    6    0    0 -0.15853201971E+01 -0.57582286372E+02  0.19977768124E+03  0.20791670175E+03  0.00000000000E+00 0. -1.
        -12    1    6    6    0    0 -0.88767693202E+02 -0.75408178719E+02  0.31415179289E+03  0.33504842300E+03  0.00000000000E+00 0.  1.
</event>
<event>
12    1  0.8416569E-002  0.2090877E+03  0.7818608E-02  0.1142853E+00
         21   -1    0    0  503  502  0.00000000000E+00  0.00000000000E+00  0.41872630486E+02  0.41872630486E+02  0.00000000000E+00 0. -1.
         21   -1    0    0  501  503 -0.00000000000E+00 -0.00000000000E+00 -0.32010941952E+04  0.32010941952E+04  0.00000000000E+00 0. -1.
          6    2    1    2  501    0  0.11132507761E+03 -0.29376079118E+02 -0.29183790328E+04  0.29258595068E+04  0.17453208166E+03 0.  0.
         24    2    3    3    0    0  0.75424665324E+01  0.20209652943E+02 -0.17208855020E+04  0.17228456159E+04  0.79276646372E+02 0.  0.
         -6    2    1    2    0  502 -0.11132507761E+03  0.29376079118E+02 -0.24084253188E+03  0.31710731885E+03  0.17115986555E+03 0.  0.
        -24    2    5    5    0    0 -0.35880544355E+02  0.50476957943E+02 -0.47505279585E+02  0.10844848772E+03  0.75292669982E+02 0.  0.
          5    1    3    3  501    0  0.10378261108E+03 -0.49585732061E+02 -0.11974935309E+04  0.12030138909E+04  0.47000000000E+01 0. -1.
        -13    1    4    4    0    0 -0.17489941974E+02  0.94720617456E+01 -0.11351917629E+03  0.11524852020E+03  0.00000000000E+00 0.  1.
         14    1    4    4    0    0  0.25032408507E+02  0.10737591198E+02 -0.16073663257E+04  0.16075970957E+04  0.00000000000E+00 0. -1.
         -5    1    5    5    0  502 -0.75444533253E+02 -0.21100878825E+02 -0.19333725230E+03  0.20865883113E+03  0.47000000000E+01 0.  1.
         13    1    6    6    0    0 -0.29918474398E+02  0.21081003945E+02  0.14659208587E+02  0.39426085705E+02  0.00000000000E+00 0. -1.
        -14    1    6    6    0    0 -0.59620699572E+01  0.29395953998E+02 -0.62164488172E+02  0.69022402011E+02  0.00000000000E+00 0.  1.
</event>
<event>
12    1  0.8416569E-002  0.1847714E+03  0.7818608E-02  0.1164172E+00
         21   -1    0    0  501  502  0.00000000000E+00  0.00000000000E+00  0.61822448173E+03  0.61822448173E+03  0.00000000000E+00 0.  1.
         21   -1    0    0  502  503 -0.00000000000E+00 -0.00000000000E+00 -0.19316847214E+03  0.19316847214E+03  0.00000000000E+00 0.  1.
         -6    2    1    2    0  503 -0.58346759146E+01  0.59626357344E+02 -0.13234427844E+03  0.22416593889E+03  0.17072203780E+03 0.  0.
        -24    2    3    3    0    0 -0.12141730332E+02  0.67041001488E+01 -0.14748799136E+03  0.16856048697E+03  0.80421163865E+02 0.  0.
          6    2    1    2  501    0  0.58346759146E+01 -0.59626357344E+02  0.55740028803E+03  0.58722701499E+03  0.17478884435E+03 0.  0.
         24    2    5    5    0    0 -0.53754639679E+02  0.29093054437E+01  0.23942699050E+03  0.25769597913E+03  0.78637831453E+02 0.  0.
          5    1    5    5  501    0  0.59589315593E+02 -0.62535662788E+02  0.31797329752E+03  0.32953103585E+03  0.47000000000E+01 0. -1.
        -13    1    6    6    0    0 -0.16745121025E+02  0.39481835256E+02  0.11974084875E+03  0.12718917113E+03  0.00000000000E+00 0.  1.
         14    1    6    6    0    0 -0.37009518654E+02 -0.36572529813E+02  0.11968614176E+03  0.13050680801E+03  0.00000000000E+00 0. -1.
         -5    1    3    3    0  503  0.63070544170E+01  0.52922257195E+02  0.15143712923E+02  0.55605451919E+02  0.47000000000E+01 0.  1.
         13    1    4    4    0    0 -0.16726618416E+02  0.48530494201E+01  0.32705841291E+01  0.17720851358E+02  0.00000000000E+00 0. -1.
        -14    1    4    4    0    0  0.45848880848E+01  0.18510507287E+01 -0.15075857549E+03  0.15083963561E+03  0.00000000000E+00 0.  1.
</event>
<event>
12    1  0.8416569E-002  0.1988949E+03  0.7818608E-02  0.1150952E+00
         21   -1    0    0  503  502  0.00000000000E+00  0.00000000000E+00  0.43930175737E+02  0.43930175737E+02  0.00000000000E+00 0.  1.
         21   -1    0    0  501  503 -0.00000000000E+00 -0.00000000000E+00 -0.97226972658E+03  0.97226972658E+03  0.00000000000E+00 0. -1.
          6    2    1    2  501    0  0.93842654989E+02  0.34149386043E+02 -0.60915581679E+03  0.64080416947E+03  0.17200741266E+03 0.  0.
         24    2    3    3    0    0  0.12910527771E+03  0.31741343626E+02 -0.42902185146E+03  0.45717523194E+03  0.85286329753E+02 0.  0.
         -6    2    1    2    0  502 -0.93842654989E+02 -0.34149386043E+02 -0.31918373405E+03  0.37539573285E+03  0.17050242138E+03 0.  0.
        -24    2    5    5    0    0 -0.11817991286E+03  0.13113765716E+02 -0.22438361922E+03  0.26660575442E+03  0.81192099735E+02 0.  0.
          5    1    3    3  501    0 -0.35262622726E+02  0.24080424175E+01 -0.18013396533E+03  0.18362893753E+03  0.47000000000E+01 0. -1.
        -11    1    4    4    0    0  0.87037737778E+02 -0.91855750178E+01 -0.16572143459E+03  0.18741274361E+03  0.00000000000E+00 0.  1.
         12    1    4    4    0    0  0.42067539937E+02  0.40926918643E+02 -0.26330041687E+03  0.26976248833E+03  0.00000000000E+00 0. -1.
         -5    1    5    5    0  502  0.24337257875E+02 -0.47263151759E+02 -0.94800114830E+02  0.10878997843E+03  0.47000000000E+01 0.  1.
         11    1    6    6    0    0 -0.11148160853E+03 -0.69445211663E+01 -0.21725932298E+03  0.24429078746E+03  0.00000000000E+00 0. -1.
        -12    1    6    6    0    0 -0.66983043307E+01  0.20058286882E+02 -0.71242962413E+01  0.22314966962E+02  0.00000000000E+00 0.  1.
</event>
<event>
12    1  0.8416569E-002  0.1804260E+03  0.7818608E-02  0.1168705E+00
         21   -1    0    0  503  502  0.00000000000E+00  0.00000000000E+00  0.65640290656E+02  0.65640290656E+02  0.00000000000E+00 0.  1.
         21   -1    0    0  501  503 -0.00000000000E+00 -0.00000000000E+00 -0.10461086931E+04  0.10461086931E+04  0.00000000000E+00 0.  1.
          6    2    1    2  501    0 -0.31690182262E+02 -0.56793646961E+01 -0.89525586764E+03  0.91221275260E+03  0.17208287136E+03 0.  0.
         24    2    3    3    0    0 -0.29977105376E+02 -0.36972429623E+02 -0.32044145121E+03  0.33652542957E+03  0.91110118540E+02 0.  0.
         -6    2    1    2    0  502  0.31690182262E+02  0.56793646961E+01 -0.85212534750E+02  0.19953623111E+03  0.17753030336E+03 0.  0.
        -24    2    5    5    0    0 -0.20066151609E+02 -0.26820817063E+02 -0.10394271441E+03  0.13544341138E+03  0.80117558251E+02 0.  0.
          5    1    3    3  501    0 -0.17130768863E+01  0.31293064927E+02 -0.57481441644E+03  0.57568732302E+03  0.47000000000E+01 0. -1.
        -13    1    4    4    0    0  0.94685905251E+01 -0.57443947737E+02 -0.17316883887E+03  0.18269348126E+03  0.00000000000E+00 0.  1.
         14    1    4    4    0    0 -0.39445695901E+02  0.20471518114E+02 -0.14727261233E+03  0.15383194832E+03  0.00000000000E+00 0. -1.
         -5    1    5    5    0  502  0.51756333871E+02  0.32500181759E+02  0.18730179660E+02  0.64092819725E+02  0.47000000000E+01 0.  1.
         13    1    6    6    0    0  0.41669516387E+01 -0.50074507590E+02 -0.44265371093E+02  0.66964489652E+02  0.00000000000E+00 0. -1.
        -14    1    6    6    0    0 -0.24233103248E+02  0.23253690528E+02 -0.59677343317E+02  0.68478921732E+02  0.00000000000E+00 0.  1.
</event>
<event>
12    1  0.8416569E-002  0.1810790E+03  0.7818608E-02  0.1166890E+00
         21   -1    0    0  503  502  0.00000000000E+00  0.00000000000E+00  0.64850729199E+02  0.64850729199E+02  0.00000000000E+00 0. -1.
         21   -1    0    0  501  503 -0.00000000000E+00 -0.00000000000E+00 -0.51018320433E+03  0.51018320433E+03  0.00000000000E+00 0. -1.
          6    2    1    2  501    0 -0.18682564155E+02  0.52627579046E+02 -0.25364073450E+03  0.31133843972E+03  0.17169537434E+03 0.  0.
         24    2    3    3    0    0 -0.44999148467E+02  0.83805263072E+02 -0.23656405744E+03  0.26686020358E+03  0.78762741821E+02 0.  0.
         -6    2    1    2    0  502  0.18682564155E+02 -0.52627579046E+02 -0.19169174063E+03  0.26369549381E+03  0.17225240129E+03 0.  0.
        -24    2    5    5    0    0 -0.18338944902E+01 -0.42033258417E+02 -0.21420101519E+03  0.23110834686E+03  0.75886989007E+02 0.  0.
          5    1    3    3  501    0  0.26316584312E+02 -0.31177684025E+02 -0.17076677061E+02  0.44478236144E+02  0.47000000000E+01 0. -1.
        -13    1    4    4    0    0 -0.47572145586E+01  0.29316476194E+02 -0.16753417722E+03  0.17014637052E+03  0.00000000000E+00 0.  1.
         14    1    4    4    0    0 -0.40241933908E+02  0.54488786878E+02 -0.69029880224E+02  0.96713833053E+02  0.00000000000E+00 0. -1.
         -5    1    5    5    0  502  0.20516458645E+02 -0.10594320630E+02  0.22509274556E+02  0.32587146945E+02  0.47000000000E+01 0.  1.
         11    1    6    6    0    0  0.32596557378E+02 -0.80957826028E+01 -0.12739311417E+03  0.13174628187E+03  0.00000000000E+00 0. -1.
        -12    1    6    6    0    0 -0.34430451868E+02 -0.33937475814E+02 -0.86807901011E+02  0.99362064987E+02  0.00000000000E+00 0.  1.
</event>
<event>
12    1  0.8416569E-002  0.2036890E+03  0.7818608E-02  0.1150790E+00
         21   -1    0    0  503  502  0.00000000000E+00  0.00000000000E+00  0.44813500535E+02  0.44813500535E+02  0.00000000000E+00 0. -1.
         21   -1    0    0  501  503 -0.00000000000E+00 -0.00000000000E+00 -0.97713576519E+03  0.97713576519E+03  0.00000000000E+00 0. -1.
          6    2    1    2  501    0 -0.10308214610E+03  0.32001962403E+02 -0.67604987140E+03  0.70606842777E+03  0.17274009851E+03 0.  0.
         24    2    3    3    0    0 -0.76388543994E+02  0.40059042661E+02 -0.66546870276E+03  0.67587710343E+03  0.80754739998E+02 0.  0.
         -6    2    1    2    0  502  0.10308214610E+03 -0.32001962403E+02 -0.25627239326E+03  0.31588083796E+03  0.14985029129E+03 0.  0.
        -24    2    5    5    0    0  0.10304180691E+03 -0.61515027649E+02 -0.15164021106E+03  0.20706445041E+03  0.74021756366E+02 0.  0.
          5    1    3    3  501    0 -0.26693602107E+02 -0.80570802584E+01 -0.10581168637E+02  0.30191324341E+02  0.47000000000E+01 0. -1.
        -11    1    4    4    0    0  0.88449645639E+01 -0.11879550574E+02 -0.43540678983E+02  0.45990736526E+02  0.00000000000E+00 0.  1.
         12    1    4    4    0    0 -0.85233508557E+02  0.51938593235E+02 -0.62192802378E+03  0.62988636690E+03  0.00000000000E+00 0. -1.
         -5    1    5    5    0  502  0.40339194544E-01  0.29513065246E+02 -0.10463218220E+03  0.10881638755E+03  0.47000000000E+01 0.  1.
         11    1    6    6    0    0  0.31849388083E+02 -0.54486944279E+02 -0.40831388935E+02  0.75169228681E+02  0.00000000000E+00 0. -1.
        -12    1    6    6    0    0  0.71192418823E+02 -0.70280833691E+01 -0.11080882212E+03  0.13189522172E+03  0.00000000000E+00 0.  1.
</event>
<event>
12    1  0.8416569E-002  0.1814401E+03  0.7818608E-02  0.1168954E+00
         21   -1    0    0  501  502  0.00000000000E+00  0.00000000000E+00  0.65669214189E+03  0.65669214189E+03  0.00000000000E+00 0.  1.
         21   -1    0    0  502  503 -0.00000000000E+00 -0.00000000000E+00 -0.49023815722E+02  0.49023815722E+02  0.00000000000E+00 0.  1.
         -6    2    1    2    0  503  0.23906416840E+02  0.41210476806E+02  0.22978884309E+03  0.28653410625E+03  0.16440517471E+03 0.  0.
        -24    2    3    3    0    0 -0.35805052046E+02  0.61780545407E+02  0.13909752143E+03  0.17591949119E+03  0.80626976700E+02 0.  0.
          6    2    1    2  501    0 -0.23906416840E+02 -0.41210476806E+02  0.37787948308E+03  0.41918185137E+03  0.17507341493E+03 0.  0.
         24    2    5    5    0    0 -0.36146108547E+01 -0.82580696807E+02  0.15808344507E+03  0.19455852039E+03  0.77653109112E+02 0.  0.
          5    1    5    5  501    0 -0.20291805985E+02  0.41370220001E+02  0.21979603801E+03  0.22462333097E+03  0.47000000000E+01 0. -1.
        -11    1    6    6    0    0  0.22861620727E+02 -0.58239393057E+02  0.14197739178E+03  0.15515173342E+03  0.00000000000E+00 0.  1.
         12    1    6    6    0    0 -0.26476231582E+02 -0.24341303750E+02  0.16106053292E+02  0.39406786975E+02  0.00000000000E+00 0. -1.
         -5    1    3    3    0  503  0.59711468886E+02 -0.20570068601E+02  0.90691321664E+02  0.11061461506E+03  0.47000000000E+01 0.  1.
         13    1    4    4    0    0 -0.36822748467E+01  0.19285069055E+01 -0.10678925195E+02  0.11459394847E+02  0.00000000000E+00 0. -1.
        -14    1    4    4    0    0 -0.32122777200E+02  0.59852038501E+02  0.14977644662E+03  0.16446009635E+03  0.00000000000E+00 0.  1.
</event>
<event>
12    1  0.8416569E-002  0.2294308E+03  0.7818608E-02  0.1127709E+00
         21   -1    0    0  503  502  0.00000000000E+00  0.00000000000E+00  0.16901493791E+03  0.16901493791E+03  0.00000000000E+00 0. -1.
         21   -1    0    0  501  503 -0.00000000000E+00 -0.00000000000E+00 -0.33933588755E+03  0.33933588755E+03  0.00000000000E+00 0. -1.
          6    2    1    2  501    0 -0.96174922729E+02  0.11440329641E+03 -0.16501013503E+03  0.28260718208E+03  0.17407109096E+03 0.  0.
         24    2    3    3    0    0 -0.51875473712E+02 -0.51929338741E+01 -0.10155568800E+03  0.14007909246E+03  0.81182282823E+02 0.  0.
         -6    2    1    2    0  502  0.96174922729E+02 -0.11440329641E+03 -0.53108146106E+01  0.22574364338E+03  0.16909836717E+03 0.  0.
        -24    2    5    5    0    0  0.96370725728E+02 -0.12287657393E+03 -0.48142457763E+02  0.18182924453E+03  0.79738376775E+02 0.  0.
          5    1    3    3  501    0 -0.44299449017E+02  0.11959623029E+03 -0.63454447026E+02  0.14252808962E+03  0.47000000000E+01 0. -1.
        -11    1    4    4    0    0  0.15230699844E+02 -0.18210528849E+02 -0.98565988737E+01  0.25705060203E+02  0.00000000000E+00 0.  1.
         12    1    4    4    0    0 -0.67106173555E+02  0.13017594975E+02 -0.91699089131E+02  0.11437403226E+03  0.00000000000E+00 0. -1.
         -5    1    5    5    0  502 -0.19580299911E+00  0.84732775117E+01  0.42831643152E+02  0.43914398842E+02  0.47000000000E+01 0.  1.
         11    1    6    6    0    0  0.21513478035E+01  0.40388221080E+00  0.14378645385E+02  0.14544306835E+02  0.00000000000E+00 0. -1.
        -12    1    6    6    0    0  0.94219377925E+02 -0.12328045614E+03 -0.62521103147E+02  0.16728493770E+03  0.00000000000E+00 0.  1.
</event>
<event>
12    1  0.8416569E-002  0.2306348E+03  0.7818608E-02  0.1126329E+00
         21   -1    0    0  503  502  0.00000000000E+00  0.00000000000E+00  0.28154666077E+03  0.28154666077E+03  0.00000000000E+00 0.  1.
         21   -1    0    0  501  503 -0.00000000000E+00 -0.00000000000E+00 -0.18929920684E+03  0.18929920684E+03  0.00000000000E+00 0.  1.
          6    2    1    2  501    0  0.12451468541E+03  0.88105979005E+02  0.28927976791E+02  0.23167696343E+03  0.17196167342E+03 0.  0.
         24    2    3    3    0    0  0.30766352231E+02  0.85949915893E+02 -0.25009076737E+02  0.12339633577E+03  0.79165935172E+02 0.  0.
         -6    2    1    2    0  502 -0.12451468541E+03 -0.88105979005E+02  0.63319477132E+02  0.23916890418E+03  0.17299086138E+03 0.  0.
        -24    2    5    5    0    0 -0.60811808057E+02  0.20385715805E+02  0.40811655066E+02  0.11127364828E+03  0.81256262559E+02 0.  0.
          5    1    3    3  501    0  0.93748333183E+02  0.21560631120E+01  0.53937053527E+02  0.10828062766E+03  0.47000000000E+01 0. -1.
        -11    1    4    4    0    0  0.29952121227E+02 -0.45034189773E+01 -0.42220196595E+01  0.30581625177E+02  0.00000000000E+00 0.  1.
         12    1    4    4    0    0  0.81423100434E+00  0.90453334871E+02 -0.20787057077E+02  0.92814710597E+02  0.00000000000E+00 0. -1.
         -5    1    5    5    0  502 -0.63702877357E+02 -0.10849169481E+03  0.22507822066E+02  0.12789525590E+03  0.47000000000E+01 0.  1.
         11    1    6    6    0    0 -0.63309353371E+00 -0.25814594585E+02  0.19829591098E+02  0.32557745379E+02  0.00000000000E+00 0. -1.
        -12    1    6    6    0    0 -0.60178714524E+02  0.46200310390E+02  0.20982063968E+02  0.78715902905E+02  0.00000000000E+00 0.  1.
</event>
<event>
12    1  0.8416569E-002  0.2004076E+03  0.7818608E-02  0.1149849E+00
         21   -1    0    0  501  502  0.00000000000E+00  0.00000000000E+00  0.23319756957E+04  0.23319756957E+04  0.00000000000E+00 0.  1.
         21   -1    0    0  502  503 -0.00000000000E+00 -0.00000000000E+00 -0.19309582998E+02  0.19309582998E+02  0.00000000000E+00 0. -1.
         -6    2    1    2    0  503 -0.66853523654E+02  0.71461803437E+02  0.15539777143E+04  0.15665743138E+04  0.17243016301E+03 0.  0.
        -24    2    3    3    0    0  0.25835801362E+02  0.40546314324E+02  0.54961333731E+03  0.55745738786E+03  0.79827479548E+02 0.  0.
          6    2    1    2  501    0  0.66853523654E+02 -0.71461803437E+02  0.75868839843E+03  0.78471096494E+03  0.17489147950E+03 0.  0.
         24    2    5    5    0    0  0.85647777293E+02 -0.10720266347E+03  0.64872701261E+03  0.66747517937E+03  0.76474998374E+02 0.  0.
          5    1    5    5  501    0 -0.18794253639E+02  0.35740860029E+02  0.10996138582E+03  0.11723578557E+03  0.47000000000E+01 0. -1.
        -11    1    6    6    0    0 -0.13709659543E+02 -0.23295668595E+02  0.10888665146E+03  0.11219155853E+03  0.00000000000E+00 0.  1.
         12    1    6    6    0    0  0.99357436836E+02 -0.83906994871E+02  0.53984036115E+03  0.55528362084E+03  0.00000000000E+00 0. -1.
         -5    1    3    3    0  503 -0.92689325016E+02  0.30915489114E+02  0.10043643770E+04  0.10091169259E+04  0.47000000000E+01 0.  1.
         11    1    4    4    0    0  0.14140926540E+01 -0.11931194952E+02  0.12886804471E+02  0.17618819497E+02  0.00000000000E+00 0. -1.
        -12    1    4    4    0    0  0.24421708708E+02  0.52477509275E+02  0.53672653284E+03  0.53983856836E+03  0.00000000000E+00 0.  1.
</event>
<event>
12    1  0.8416569E-002  0.1779479E+03  0.7818608E-02  0.1169856E+00
         21   -1    0    0  503  502  0.00000000000E+00  0.00000000000E+00  0.41124506645E+03  0.41124506645E+03  0.00000000000E+00 0. -1.
         21   -1    0    0  501  503 -0.00000000000E+00 -0.00000000000E+00 -0.79563251774E+02  0.79563251774E+02  0.00000000000E+00 0. -1.
          6    2    1    2  501    0  0.26471948649E+01  0.48757527811E+02  0.12091296480E+03  0.21496604192E+03  0.17089806892E+03 0.  0.
         24    2    3    3    0    0  0.23989862949E+02 -0.10970627880E+02  0.12455747980E+03  0.15126098283E+03  0.81666706511E+02 0.  0.
         -6    2    1    2    0  502 -0.26471948649E+01 -0.48757527811E+02  0.21076884988E+03  0.27584227631E+03  0.17111735494E+03 0.  0.
        -24    2    5    5    0    0 -0.28364618056E+02 -0.64712668779E+01  0.21003848846E+03  0.22612168553E+03  0.78539297048E+02 0.  0.
          5    1    3    3  501    0 -0.21342668084E+02  0.59728155691E+02 -0.36445150017E+01  0.63705059084E+02  0.47000000000E+01 0. -1.
        -13    1    4    4    0    0 -0.91353072024E+01 -0.30862870115E+02  0.15823520161E+02  0.35865782854E+02  0.00000000000E+00 0.  1.
         14    1    4    4    0    0  0.33125170151E+02  0.19892242235E+02  0.10873395964E+03  0.11539519998E+03  0.00000000000E+00 0. -1.
         -5    1    5    5    0  502  0.25717423191E+02 -0.42286260933E+02  0.73036141516E+00  0.49720590776E+02  0.47000000000E+01 0.  1.
         13    1    6    6    0    0  0.24671812832E+02 -0.13404215259E+02  0.98460901348E+02  0.10238613397E+03  0.00000000000E+00 0. -1.
        -14    1    6    6    0    0 -0.53036430888E+02  0.69329483814E+01  0.11157758711E+03  0.12373555156E+03  0.00000000000E+00 0.  1.
</event>
<event>
12    1  0.8416569E-002  0.2727034E+03  0.7818608E-02  0.1099832E+00
         21   -1    0    0  503  502  0.00000000000E+00  0.00000000000E+00  0.65366669052E+02  0.65366669052E+02  0.00000000000E+00 0.  1.
         21   -1    0    0  501  503 -0.00000000000E+00 -0.00000000000E+00 -0.11364328743E+04  0.11364328743E+04  0.00000000000E+00 0. -1.
          6    2    1    2  501    0 -0.82921833260E+01 -0.21151819175E+03 -0.55596928730E+03  0.61896853387E+03  0.17091369680E+03 0.  0.
         24    2    3    3    0    0  0.25691623126E+02 -0.14627205181E+03 -0.23269297230E+03  0.28739407207E+03  0.79960994633E+02 0.  0.
         -6    2    1    2    0  502  0.82921833260E+01  0.21151819175E+03 -0.51509691799E+03  0.58283100953E+03  0.17192569615E+03 0.  0.
        -24    2    5    5    0    0  0.64247717164E+02  0.12257299146E+03 -0.37395725864E+03  0.40680611395E+03  0.80593273050E+02 0.  0.
          5    1    3    3  501    0 -0.33983806452E+02 -0.65246139935E+02 -0.32327631501E+03  0.33157446180E+03  0.47000000000E+01 0. -1.
        -13    1    4    4    0    0  0.53959329783E+02 -0.95058137493E+02 -0.13734047747E+03  0.17552796224E+03  0.00000000000E+00 0.  1.
         14    1    4    4    0    0 -0.28267706658E+02 -0.51213914320E+02 -0.95352494821E+02  0.11186610983E+03  0.00000000000E+00 0. -1.
         -5    1    5    5    0  502 -0.55955533838E+02  0.88945200284E+02 -0.14113965935E+03  0.17602489558E+03  0.47000000000E+01 0.  1.
         11    1    6    6    0    0  0.26690620030E+02  0.43472437016E+02 -0.24931570780E+03  0.25448097008E+03  0.00000000000E+00 0. -1.
        -12    1    6    6    0    0  0.37557097134E+02  0.79100554448E+02 -0.12464155084E+03  0.15232514387E+03  0.00000000000E+00 0.  1.
</event>
<event>
12    1  0.8416569E-002  0.2195702E+03  0.7818608E-02  0.1134354E+00
         21   -1    0    0  503  502  0.00000000000E+00  0.00000000000E+00  0.13035796999E+04  0.13035796999E+04  0.00000000000E+00 0.  1.
         21   -1    0    0  501  503 -0.00000000000E+00 -0.00000000000E+00 -0.37568780885E+02  0.37568780885E+02  0.00000000000E+00 0. -1.
          6    2    1    2  501    0  0.10773296085E+03  0.83288190619E+02  0.53900786720E+03  0.58171150923E+03  0.17121765540E+03 0.  0.
         24    2    3    3    0    0  0.83217582638E+02  0.12406109440E+03  0.39235925042E+03  0.42746709198E+03  0.80411517374E+02 0.  0.
         -6    2    1    2    0  502 -0.10773296085E+03 -0.83288190619E+02  0.72700305187E+03  0.75943697160E+03  0.17224332459E+03 0.  0.
        -24    2    5    5    0    0 -0.37898106635E+02 -0.14192268199E+02  0.54859104213E+03  0.55571144896E+03  0.78901178926E+02 0.  0.
          5    1    3    3  501    0  0.24515378214E+02 -0.40772903782E+02  0.14664861677E+03  0.15424441725E+03  0.47000000000E+01 0. -1.
        -13    1    4    4    0    0  0.76025033956E+02  0.45086922151E+02  0.17419062068E+03  0.19533307112E+03  0.00000000000E+00 0.  1.
         14    1    4    4    0    0  0.71925486825E+01  0.78974172251E+02  0.21816862974E+03  0.23213402086E+03  0.00000000000E+00 0. -1.
         -5    1    5    5    0  502 -0.69834854217E+02 -0.69095922420E+02  0.17841200974E+03  0.20372552264E+03  0.47000000000E+01 0.  1.
         13    1    6    6    0    0 -0.14384921155E+02 -0.40328417426E+02  0.16330783206E+03  0.16882759022E+03  0.00000000000E+00 0. -1.
        -14    1    6    6    0    0 -0.23513185481E+02  0.26136149227E+02  0.38528321007E+03  0.38688385874E+03  0.00000000000E+00 0.  1.
</event>
<event>
12    1  0.8416569E-002  0.2056365E+03  0.7818608E-02  0.1147133E+00
         21   -1    0    0  501  502  0.00000000000E+00  0.00000000000E+00  0.15746221931E+03  0.15746221931E+03  0.00000000000E+00 0. -1.
         21   -1    0    0  502  503 -0.00000000000E+00 -0.00000000000E+00 -0.75722202881E+03  0.75722202881E+03  0.00000000000E+00 0. -1.
         -6    2    1    2    0  503 -0.11283170250E+03  0.50162175973E+00 -0.66950925162E+03  0.69754057763E+03  0.15996554230E+03 0.  0.
        -24    2    3    3    0    0 -0.14449390902E+03 -0.26719783921E+01 -0.56950651683E+03  0.59249199827E+03  0.76311637990E+02 0.  0.
          6    2    1    2  501    0  0.11283170250E+03 -0.50162175973E+00  0.69749442119E+02  0.21714367049E+03  0.17191609653E+03 0.  0.
         24    2    5    5    0    0  0.10806457952E+02 -0.39883703227E+02  0.61213656023E+02  0.10734818557E+03  0.77903991839E+02 0.  0.
          5    1    5    5  501    0  0.10202524455E+03  0.39382081468E+02  0.85357860957E+01  0.10979548492E+03  0.47000000000E+01 0. -1.
        -11    1    6    6    0    0  0.85594879851E+01 -0.45523818713E+02  0.49236506412E+00  0.46324133323E+02  0.00000000000E+00 0.  1.
         12    1    6    6    0    0  0.22469699665E+01  0.56401154856E+01  0.60721290959E+02  0.61024052245E+02  0.00000000000E+00 0. -1.
         -5    1    3    3    0  503  0.31662206520E+02  0.31736001519E+01 -0.10000273479E+03  0.10504857936E+03  0.47000000000E+01 0.  1.
         11    1    4    4    0    0 -0.50285211024E+02 -0.28635121252E+02 -0.30657048269E+03  0.31198402759E+03  0.00000000000E+00 0. -1.
        -12    1    4    4    0    0 -0.94208697993E+02  0.25963142860E+02 -0.26293603414E+03  0.28050797068E+03  0.00000000000E+00 0.  1.
</event>
<event>
12    1  0.8416569E-002  0.2123520E+03  0.7818608E-02  0.1139911E+00
         21   -1    0    0  503  502  0.00000000000E+00  0.00000000000E+00  0.27878386101E+02  0.27878386101E+02  0.00000000000E+00 0. -1.
         21   -1    0    0  501  503 -0.00000000000E+00 -0.00000000000E+00 -0.16644254299E+04  0.16644254299E+04  0.00000000000E+00 0.  1.
          6    2    1    2  501    0 -0.12302560327E+03 -0.16004926619E+01 -0.97320188721E+03  0.99610003785E+03  0.17307660585E+03 0.  0.
         24    2    3    3    0    0 -0.98524578889E+02  0.62933013844E+02 -0.62112569862E+03  0.63729005160E+03  0.81693448373E+02 0.  0.
         -6    2    1    2    0  502  0.12302560327E+03  0.16004926619E+01 -0.66334515660E+03  0.69620377817E+03  0.17185762511E+03 0.  0.
        -24    2    5    5    0    0  0.15628169898E+03  0.12094278278E+02 -0.54530728194E+03  0.57303268864E+03  0.80225865641E+02 0.  0.
          5    1    3    3  501    0 -0.24501024385E+02 -0.64533506506E+02 -0.35207618859E+03  0.35880998625E+03  0.47000000000E+01 0. -1.
        -11    1    4    4    0    0 -0.29254124727E+02  0.66566471628E+02 -0.34568744149E+03  0.35325161877E+03  0.00000000000E+00 0.  1.
         12    1    4    4    0    0 -0.69270454163E+02 -0.36334577843E+01 -0.27543825713E+03  0.28403843283E+03  0.00000000000E+00 0. -1.
         -5    1    5    5    0  502 -0.33256095710E+02 -0.10493785616E+02 -0.11803787467E+03  0.12317108952E+03  0.47000000000E+01 0.  1.
         13    1    6    6    0    0  0.10582339381E+03  0.56973574639E+01 -0.22495744166E+03  0.24867026585E+03  0.00000000000E+00 0. -1.
        -14    1    6    6    0    0  0.50458305179E+02  0.63969208143E+01 -0.32034984028E+03  0.32436242280E+03  0.00000000000E+00 0.  1.
</event>
<event>
12    1  0.8416569E-002  0.2024247E+03  0.7818608E-02  0.1148321E+00
         21   -1    0    0  503  502  0.00000000000E+00  0.00000000000E+00  0.57976156964E+02  0.57976156964E+02  0.00000000000E+00 0.  1.
         21   -1    0    0  501  503 -0.00000000000E+00 -0.00000000000E+00 -0.73958631792E+03  0.73958631792E+03  0.00000000000E+00 0. -1.
          6    2    1    2  501    0 -0.15923486040E+02  0.10185835250E+03 -0.43927822915E+03  0.48367460797E+03  0.17420414006E+03 0.  0.
         24    2    3    3    0    0 -0.56472501522E+02  0.19484927728E+02 -0.29973069768E+03  0.31656623804E+03  0.82503855028E+02 0.  0.
         -6    2    1    2    0  502  0.15923486040E+02 -0.10185835250E+03 -0.24233193180E+03  0.31388786691E+03  0.17079855514E+03 0.  0.
        -24    2    5    5    0    0  0.80784139580E+01 -0.38296262999E+02 -0.31674805200E+02  0.93660258814E+02  0.78975225640E+02 0.  0.
          5    1    3    3  501    0  0.40549015482E+02  0.82373424769E+02 -0.13954753146E+03  0.16710836994E+03  0.47000000000E+01 0. -1.
        -11    1    4    4    0    0 -0.19530615676E+02 -0.15153627508E+02 -0.18665855097E+02  0.30975660152E+02  0.00000000000E+00 0.  1.
         12    1    4    4    0    0 -0.36941885846E+02  0.34638555237E+02 -0.28106484259E+03  0.28559057789E+03  0.00000000000E+00 0. -1.
         -5    1    5    5    0  502  0.78450720821E+01 -0.63562089498E+02 -0.21065712660E+03  0.22022760809E+03  0.47000000000E+01 0.  1.
         11    1    6    6    0    0 -0.30677000845E+02 -0.16050635238E+02 -0.34510415631E+02  0.48884251650E+02  0.00000000000E+00 0. -1.
        -12    1    6    6    0    0  0.38755414803E+02 -0.22245627761E+02  0.28356104306E+01  0.44776007164E+02  0.00000000000E+00 0.  1.
</event>
<event>
12    1  0.8416569E-002  0.2238165E+03  0.7818608E-02  0.1131408E+00
         21   -1    0    0  501  502  0.00000000000E+00  0.00000000000E+00  0.50926901665E+03  0.50926901665E+03  0.00000000000E+00 0.  1.
         21   -1    0    0  502  503 -0.00000000000E+00 -0.00000000000E+00 -0.10372836437E+03  0.10372836437E+03  0.00000000000E+00 0. -1.
         -6    2    1    2    0  503 -0.11196044359E+03 -0.83190749520E+02  0.12877316485E+03  0.25821764175E+03  0.17503708404E+03 0.  0.
        -24    2    3    3    0    0 -0.12200011674E+03 -0.11201673623E+02  0.99774905422E+02  0.17981986668E+03  0.85852470693E+02 0.  0.
          6    2    1    2  501    0  0.11196044359E+03  0.83190749520E+02  0.27676748743E+03  0.35477973928E+03  0.17266319691E+03 0.  0.
         24    2    5    5    0    0  0.73156718041E+02  0.33545498200E+02  0.59085406425E+02  0.12811267399E+03  0.80278055157E+02 0.  0.
          5    1    5    5  501    0  0.38803725547E+02  0.49645251320E+02  0.21768208101E+03  0.22666706529E+03  0.47000000000E+01 0. -1.
        -13    1    6    6    0    0  0.39470574593E+02  0.22433079850E+02  0.76222002726E+02  0.88718448081E+02  0.00000000000E+00 0.  1.
         14    1    6    6    0    0  0.33686143448E+02  0.11112418350E+02 -0.17136596301E+02  0.39394225907E+02  0.00000000000E+00 0. -1.
         -5    1    3    3    0  503  0.10039673152E+02 -0.71989075897E+02  0.28998259427E+02  0.78397775066E+02  0.47000000000E+01 0.  1.
         13    1    4    4    0    0 -0.10247211247E+03 -0.14201722856E+02  0.30605044727E+02  0.10788369445E+03  0.00000000000E+00 0. -1.
        -14    1    4    4    0    0 -0.19528004272E+02  0.30000492327E+01  0.69169860695E+02  0.71936172228E+02  0.00000000000E+00 0.  1.
</event>
<event>
12    1  0.8416569E-002  0.3462288E+03  0.7818608E-02  0.1064344E+00
         21   -1    0    0  503  502  0.00000000000E+00  0.00000000000E+00  0.14406642741E+04  0.14406642741E+04  0.00000000000E+00 0.  1.
         21   -1    0    0  501  503 -0.00000000000E+00 -0.00000000000E+00 -0.22487298619E+03  0.22487298619E+03  0.00000000000E+00 0.  1.
          6    2    1    2  501    0  0.29972830648E+03  0.18060350031E+02 -0.53467822310E+02  0.35033297082E+03  0.17236922136E+03 0.  0.
         24    2    3    3    0    0  0.17018804224E+03 -0.56418401595E+02 -0.25338999746E+02  0.19821102907E+03  0.80613530973E+02 0.  0.
         -6    2    1    2    0  502 -0.29972830648E+03 -0.18060350031E+02  0.12692591102E+04  0.13152042895E+04  0.16905738740E+03 0.  0.
        -24    2    5    5    0    0 -0.19241624222E+03  0.48936544915E+02  0.88732366669E+03  0.91283476268E+03  0.80654936583E+02 0.  0.
          5    1    3    3  501    0  0.12954026424E+03  0.74478751626E+02 -0.28128822564E+02  0.15212194175E+03  0.47000000000E+01 0. -1.
        -13    1    4    4    0    0  0.12354289257E+03 -0.21109612213E+00 -0.15746987983E+02  0.12454259712E+03  0.00000000000E+00 0.  1.
         14    1    4    4    0    0  0.46645149666E+02 -0.56207305473E+02 -0.95920117637E+01  0.73668431947E+02  0.00000000000E+00 0. -1.
         -5    1    5    5    0  502 -0.10731206427E+03 -0.66996894945E+02  0.38193544351E+03  0.40236952677E+03  0.47000000000E+01 0.  1.
         11    1    6    6    0    0 -0.74832377919E+02  0.46614721826E+02  0.25886126700E+03  0.27346292734E+03  0.00000000000E+00 0. -1.
        -12    1    6    6    0    0 -0.11758386430E+03  0.23218230885E+01  0.62846239969E+03  0.63937183534E+03  0.00000000000E+00 0.  1.
</event>
<event>
12    1  0.8416569E-002  0.2729322E+03  0.7818608E-02  0.1099687E+00
         21   -1    0    0  501  502  0.00000000000E+00  0.00000000000E+00  0.71901494569E+02  0.71901494569E+02  0.00000000000E+00 0. -1.
         21   -1    0    0  502  503 -0.00000000000E+00 -0.00000000000E+00 -0.17660583454E+04  0.17660583454E+04  0.00000000000E+00 0. -1.
         -6    2    1    2    0  503 -0.80411048387E+02  0.19594985041E+03 -0.14382506502E+04  0.14638208891E+04  0.17130201930E+03 0.  0.
        -24    2    3    3    0    0 -0.58507733360E+02  0.27352087072E+02 -0.55932372234E+03  0.56858930139E+03  0.79243143255E+02 0.  0.
          6    2    1    2  501    0  0.80411048387E+02 -0.19594985041E+03 -0.25590620064E+03  0.37413895093E+03  0.17213276998E+03 0.  0.
         24    2    5    5    0    0 -0.36655739139E+01 -0.32786172712E+02 -0.11456418125E+03  0.14242593752E+03  0.77921925676E+02 0.  0.
          5    1    5    5  501    0  0.84076622301E+02 -0.16316367770E+03 -0.14134201939E+03  0.23171301341E+03  0.47000000000E+01 0. -1.
        -11    1    6    6    0    0 -0.20147124908E+02 -0.45492618321E+02 -0.11055149522E+03  0.12123167103E+03  0.00000000000E+00 0.  1.
         12    1    6    6    0    0  0.16481550994E+02  0.12706445609E+02 -0.40126860243E+01  0.21194266496E+02  0.00000000000E+00 0. -1.
         -5    1    3    3    0  503 -0.21903315027E+02  0.16859776334E+03 -0.87892692787E+03  0.89523158767E+03  0.47000000000E+01 0.  1.
         11    1    4    4    0    0 -0.37956661995E+02  0.55224423960E+02 -0.39662862300E+03  0.40224956155E+03  0.00000000000E+00 0. -1.
        -12    1    4    4    0    0 -0.20551071365E+02 -0.27872336888E+02 -0.16269509934E+03  0.16633973983E+03  0.00000000000E+00 0.  1.
</event>
<event>
12    1  0.8416569E-002  0.1732633E+03  0.7818608E-02  0.1174808E+00
         21   -1    0    0  501  502  0.00000000000E+00  0.00000000000E+00  0.25582142246E+02  0.25582142246E+02  0.00000000000E+00 0. -1.
         21   -1    0    0  502  503 -0.00000000000E+00 -0.00000000000E+00 -0.13272898988E+04  0.13272898988E+04  0.00000000000E+00 0. -1.
         -6    2    1    2    0  503 -0.15526395628E+01 -0.99313029690E+01 -0.41223171442E+03  0.44667790903E+03  0.17171233668E+03 0.  0.
        -24    2    3    3    0    0  0.56601777457E+02 -0.39663011508E+02 -0.25934204040E+03  0.28035517115E+03  0.81017358512E+02 0.  0.
          6    2    1    2  501    0  0.15526395628E+01  0.99313029690E+01 -0.88947604210E+03  0.90619413198E+03  0.17297148294E+03 0.  0.
         24    2    5    5    0    0  0.15921763588E+02  0.54473588585E+02 -0.78827951619E+03  0.79459971551E+03  0.82360414218E+02 0.  0.
          5    1    5    5  501    0 -0.14369124025E+02 -0.44542285616E+02 -0.10119652591E+03  0.11159441648E+03  0.47000000000E+01 0. -1.
        -13    1    6    6    0    0  0.44444940425E+02  0.80022013259E+01 -0.38966306718E+03  0.39227119940E+03  0.00000000000E+00 0.  1.
         14    1    6    6    0    0 -0.28523176837E+02  0.46471387259E+02 -0.39861644901E+03  0.40232851610E+03  0.00000000000E+00 0. -1.
         -5    1    3    3    0  503 -0.58154417020E+02  0.29731708539E+02 -0.15288967403E+03  0.16632273788E+03  0.47000000000E+01 0.  1.
         13    1    4    4    0    0 -0.68666342496E+00  0.20484033021E+02 -0.82022560039E+02  0.84544470374E+02  0.00000000000E+00 0. -1.
        -14    1    4    4    0    0  0.57288440882E+02 -0.60147044528E+02 -0.17731948036E+03  0.19581070078E+03  0.00000000000E+00 0.  1.
</event>
<event>
12    1  0.8416569E-002  0.2344013E+03  0.7818608E-02  0.1123656E+00
         21   -1    0    0  503  502  0.00000000000E+00  0.00000000000E+00  0.32130933497E+03  0.32130933497E+03  0.00000000000E+00 0. -1.
         21   -1    0    0  501  503 -0.00000000000E+00 -0.00000000000E+00 -0.17068844086E+03  0.17068844086E+03  0.00000000000E+00 0. -1.
          6    2    1    2  501    0 -0.14971629184E+03  0.50230105257E+02  0.77325886326E+02  0.24682638417E+03  0.17322222638E+03 0.  0.
         24    2    3    3    0    0 -0.54384005609E+02  0.80745630686E+02  0.81399334452E+02  0.14653617992E+03  0.73277032111E+02 0.  0.
         -6    2    1    2    0  502  0.14971629184E+03 -0.50230105257E+02  0.73295007781E+02  0.24517139166E+03  0.17262335187E+03 0.  0.
        -24    2    5    5    0    0  0.74383608485E+02 -0.49564150550E+02  0.10865229018E+03  0.16181862269E+03  0.79940104192E+02 0.  0.
          5    1    3    3  501    0 -0.95332286226E+02 -0.30515525429E+02 -0.40734481263E+01  0.10029020425E+03  0.47000000000E+01 0. -1.
        -13    1    4    4    0    0 -0.58729158494E+02  0.25673205718E+02  0.58348965029E+02  0.86676578550E+02  0.00000000000E+00 0.  1.
         14    1    4    4    0    0  0.43451528847E+01  0.55072424968E+02  0.23050369423E+02  0.59859601369E+02  0.00000000000E+00 0. -1.
         -5    1    5    5    0  502  0.75332683350E+02 -0.66595470690E+00 -0.35357282397E+02  0.83352768970E+02  0.47000000000E+01 0.  1.
         13    1    6    6    0    0  0.59208694972E+02 -0.71061321484E+02  0.74883038995E+02  0.11900777496E+03  0.00000000000E+00 0. -1.
        -14    1    6    6    0    0  0.15174913513E+02  0.21497170934E+02  0.33769251183E+02  0.42810847734E+02  0.00000000000E+00 0.  1.
</event>
<event>
12    1  0.8416569E-002  0.1873828E+03  0.7818608E-02  0.1161832E+00
         21   -1    0    0  501  502  0.00000000000E+00  0.00000000000E+00  0.72075082557E+02  0.72075082557E+02  0.00000000000E+00 0.  1.
         21   -1    0    0  502  503 -0.00000000000E+00 -0.00000000000E+00 -0.47958199017E+03  0.47958199017E+03  0.00000000000E+00 0.  1.
         -6    2    1    2    0  503  0.27723311246E+02 -0.68721655869E+02 -0.22934273132E+03  0.29615943448E+03  0.17210774025E+03 0.  0.
        -24    2    3    3    0    0  0.77522357815E+02 -0.36136921111E+02 -0.19490296244E+03  0.22723993319E+03  0.79594154548E+02 0.  0.
          6    2    1    2  501    0 -0.27723311246E+02  0.68721655869E+02 -0.17816417630E+03  0.25549763825E+03  0.16746737432E+03 0.  0.
         24    2    5    5    0    0  0.16503929727E+02 -0.10284526812E+02 -0.13239986273E+03  0.15393736973E+03  0.76084419945E+02 0.  0.
          5    1    5    5  501    0 -0.44227240973E+02  0.79006182681E+02 -0.45764313562E+02  0.10156026852E+03  0.47000000000E+01 0. -1.
        -11    1    6    6    0    0  0.27505932504E+02 -0.16717235549E+02 -0.13673750785E+03  0.14047486729E+03  0.00000000000E+00 0.  1.
         12    1    6    6    0    0 -0.11002002778E+02  0.64327087374E+01  0.43376451124E+01  0.13462502440E+02  0.00000000000E+00 0. -1.
         -5    1    3    3    0  503 -0.49799046569E+02 -0.32584734758E+02 -0.34439768877E+02  0.68919501295E+02  0.47000000000E+01 0.  1.
         13    1    4    4    0    0  0.23396809138E+02 -0.42392033022E+02 -0.14672780526E+03  0.15451065975E+03  0.00000000000E+00 0. -1.
        -14    1    4    4    0    0  0.54125548677E+02  0.62551119111E+01 -0.48175157182E+02  0.72729273433E+02  0.00000000000E+00 0.  1.
</event>
<event>
12    1  0.8416569E-002  0.2623908E+03  0.7818608E-02  0.1106324E+00
         21   -1    0    0  501  502  0.00000000000E+00  0.00000000000E+00  0.75200930647E+03  0.75200930647E+03  0.00000000000E+00 0. -1.
         21   -1    0    0  502  503 -0.00000000000E+00 -0.00000000000E+00 -0.28479641944E+03  0.28479641944E+03  0.00000000000E+00 0. -1.
         -6    2    1    2    0  503  0.19676732306E+03 -0.89847915331E+01 -0.19439542498E+03  0.32655552240E+03  0.17335172930E+03 0.  0.
        -24    2    3    3    0    0  0.64321170857E+02 -0.52653727023E+02 -0.51194997933E+02  0.12661200170E+03  0.80622845225E+02 0.  0.
          6    2    1    2  501    0 -0.19676732306E+03  0.89847915331E+01  0.66160831201E+03  0.71025020352E+03  0.16712775702E+03 0.  0.
         24    2    5    5    0    0 -0.37310374526E+02 -0.22519472931E+02  0.17634449967E+03  0.19846695380E+03  0.79953476977E+02 0.  0.
          5    1    5    5  501    0 -0.15945694854E+03  0.31504264464E+02  0.48526381235E+03  0.51178324971E+03  0.47000000000E+01 0. -1.
        -11    1    6    6    0    0  0.23814546585E+02 -0.17249657293E+02  0.64901843112E+02  0.71252596761E+02  0.00000000000E+00 0.  1.
         12    1    6    6    0    0 -0.61124921111E+02 -0.52698156379E+01  0.11144265655E+03  0.12721435704E+03  0.00000000000E+00 0. -1.
         -5    1    3    3    0  503  0.13244615220E+03  0.43668935490E+02 -0.14320042705E+03  0.19994352070E+03  0.47000000000E+01 0.  1.
         11    1    4    4    0    0  0.32455940940E+02 -0.49000081736E+02 -0.68425924922E+02  0.90202568221E+02  0.00000000000E+00 0. -1.
        -12    1    4    4    0    0  0.31865229918E+02 -0.36536452872E+01  0.17230926989E+02  0.36409433482E+02  0.00000000000E+00 0.  1.
</event>
<event>
12    1  0.8416569E-002  0.2284761E+03  0.7818608E-02  0.1128848E+00
         21   -1    0    0  501  502  0.00000000000E+00  0.00000000000E+00  0.58876092047E+03  0.58876092047E+03  0.00000000000E+00 0. -1.
         21   -1    0    0  502  503 -0.00000000000E+00 -0.00000000000E+00 -0.10270990054E+03  0.10270990054E+03  0.00000000000E+00 0. -1.
         -6    2    1    2    0  503  0.63681192886E+02 -0.12461669968E+03  0.10176617131E+03  0.24439566488E+03  0.17259279019E+03 0.  0.
        -24    2    3    3    0    0 -0.23088827379E+01 -0.12935750355E+03  0.23785911690E+02  0.14202293320E+03  0.53535495665E+02 0.  0.
          6    2    1    2  501    0 -0.63681192886E+02  0.12461669968E+03  0.38428484862E+03  0.44707515612E+03  0.18060103592E+03 0.  0.
         24    2    5    5    0    0  0.12568624797E+02  0.59466290621E+02  0.30325389105E+03  0.31805300073E+03  0.74165886954E+02 0.  0.
          5    1    5    5  501    0 -0.76249817683E+02  0.65150409057E+02  0.81030957577E+02  0.12902215540E+03  0.47000000000E+01 0. -1.
        -11    1    6    6    0    0  0.31076212759E+02  0.11315330451E+02  0.52503819734E+02  0.62051742839E+02  0.00000000000E+00 0.  1.
         12    1    6    6    0    0 -0.18507587963E+02  0.48150960170E+02  0.25075007131E+03  0.25600125789E+03  0.00000000000E+00 0. -1.
         -5    1    3    3    0  503  0.65990075624E+02  0.47408038696E+01  0.77980259616E+02  0.10237273168E+03  0.47000000000E+01 0.  1.
         13    1    4    4    0    0  0.23596677345E+02 -0.80459997335E+02  0.67313973555E+01  0.84118523901E+02  0.00000000000E+00 0. -1.
        -14    1    4    4    0    0 -0.25905560083E+02 -0.48897506212E+02  0.17054514335E+02  0.57904409298E+02  0.00000000000E+00 0.  1.
</event>
<event>
12    1  0.8416569E-002  0.2154918E+03  0.7818608E-02  0.1138872E+00
         21   -1    0    0  503  502  0.00000000000E+00  0.00000000000E+00  0.18446921005E+04  0.18446921005E+04  0.00000000000E+00 0.  1.
         21   -1    0    0  501  503 -0.00000000000E+00 -0.00000000000E+00 -0.29391784958E+02  0.29391784958E+02  0.00000000000E+00 0. -1.
          6    2    1    2  501    0 -0.47110964257E+02  0.10657439609E+03  0.52958856291E+03  0.57175237910E+03  0.18127104619E+03 0.  0.
         24    2    3    3    0    0 -0.66583955433E+02  0.53129308400E+02  0.48500562174E+03  0.49932791205E+03  0.82714956958E+02 0.  0.
         -6    2    1    2    0  502  0.47110964257E+02 -0.10657439609E+03  0.12857117527E+04  0.13023315064E+04  0.17156659564E+03 0.  0.
        -24    2    5    5    0    0 -0.10708187492E+02 -0.12058269273E+03  0.10020208960E+04  0.10124317326E+04  0.79481356969E+02 0.  0.
          5    1    3    3  501    0  0.19472991175E+02  0.53445087693E+02  0.44582941174E+02  0.72424467050E+02  0.47000000000E+01 0. -1.
        -11    1    4    4    0    0 -0.13809646485E+02  0.26244797376E+02  0.35760939487E+03  0.35883697555E+03  0.00000000000E+00 0.  1.
         12    1    4    4    0    0 -0.52774308948E+02  0.26884511024E+02  0.12739622687E+03  0.14049093650E+03  0.00000000000E+00 0. -1.
         -5    1    5    5    0  502  0.57819151749E+02  0.14008296633E+02  0.28369085663E+03  0.28989977374E+03  0.47000000000E+01 0.  1.
         13    1    6    6    0    0 -0.30439173197E+02 -0.11953700168E+02  0.16992477802E+03  0.17304295535E+03  0.00000000000E+00 0. -1.
        -14    1    6    6    0    0  0.19730985705E+02 -0.10862899256E+03  0.83209611802E+03  0.83938877730E+03  0.00000000000E+00 0.  1.
</event>
<event>
12    1  0.8416569E-002  0.2310874E+03  0.7818608E-02  0.1126079E+00
         21   -1    0    0  501  502  0.00000000000E+00  0.00000000000E+00  0.57722633277E+03  0.57722633277E+03  0.00000000000E+00 0.  1.
         21   -1    0    0  502  503 -0.00000000000E+00 -0.00000000000E+00 -0.10921698222E+03  0.10921698222E+03  0.00000000000E+00 0. -1.
         -6    2    1    2    0  503 -0.15194340066E+03 -0.30360542555E+02  0.98431063202E+02  0.25117734256E+03  0.17144335410E+03 0.  0.
        -24    2    3    3    0    0 -0.16677039418E+03 -0.51897803907E+02  0.54491984000E+02  0.19983120303E+03  0.80357868054E+02 0.  0.
          6    2    1    2  501    0  0.15194340066E+03  0.30360542555E+02  0.36957828735E+03  0.43526597243E+03  0.16988171394E+03 0.  0.
         24    2    5    5    0    0  0.38730472057E+02 -0.34170009133E+02  0.13875925149E+03  0.17016056581E+03  0.83862084963E+02 0.  0.
          5    1    5    5  501    0  0.11321292860E+03  0.64530551688E+02  0.23081903586E+03  0.26510540662E+03  0.47000000000E+01 0. -1.
        -13    1    6    6    0    0  0.64221508021E+02 -0.16688749138E+02  0.81544915259E+02  0.10513082157E+03  0.00000000000E+00 0.  1.
         14    1    6    6    0    0 -0.25491035965E+02 -0.17481259995E+02  0.57214336230E+02  0.65029744239E+02  0.00000000000E+00 0. -1.
         -5    1    3    3    0  503  0.14826993523E+02  0.21537261352E+02  0.43939079201E+02  0.51346139529E+02  0.47000000000E+01 0.  1.
         13    1    4    4    0    0 -0.36735824661E+02  0.19230341899E+02 -0.12383532625E+01  0.41483254234E+02  0.00000000000E+00 0. -1.
        -14    1    4    4    0    0 -0.13003456952E+03 -0.71128145806E+02  0.55730337263E+02  0.15834794880E+03  0.00000000000E+00 0.  1.
</event>
<event>
12    1  0.8416569E-002  0.1832153E+03  0.7818608E-02  0.1165006E+00
         21   -1    0    0  503  502  0.00000000000E+00  0.00000000000E+00  0.25843374965E+03  0.25843374965E+03  0.00000000000E+00 0.  1.
         21   -1    0    0  501  503 -0.00000000000E+00 -0.00000000000E+00 -0.33401604524E+03  0.33401604524E+03  0.00000000000E+00 0.  1.
          6    2    1    2  501    0  0.29089703383E+01  0.56712781621E+02 -0.26988215018E+03  0.32619657433E+03  0.17419250388E+03 0.  0.
         24    2    3    3    0    0 -0.31267747749E+01  0.66642039106E+02 -0.28686768108E+03  0.30508689330E+03  0.79586480764E+02 0.  0.
         -6    2    1    2    0  502 -0.29089703383E+01 -0.56712781621E+02  0.19429985459E+03  0.26625322056E+03  0.17295531866E+03 0.  0.
        -24    2    5    5    0    0 -0.33452311734E+02 -0.78796667636E+02  0.68827775822E+02  0.13515811662E+03  0.78755836433E+02 0.  0.
          5    1    3    3  501    0  0.60357451132E+01 -0.99292574846E+01  0.16985530894E+02  0.21109681026E+02  0.47000000000E+01 0. -1.
        -11    1    4    4    0    0  0.13995509209E+01  0.82158825099E+02 -0.19188592903E+03  0.20873964895E+03  0.00000000000E+00 0.  1.
         12    1    4    4    0    0 -0.45263256958E+01 -0.15516785993E+02 -0.94981752046E+02  0.96347244348E+02  0.00000000000E+00 0. -1.
         -5    1    5    5    0  502  0.30543341396E+02  0.22083886015E+02  0.12547207877E+03  0.13109510394E+03  0.47000000000E+01 0.  1.
         13    1    6    6    0    0 -0.10730537911E+02  0.12301211324E+02  0.28775654560E+02  0.33083266756E+02  0.00000000000E+00 0. -1.
        -14    1    6    6    0    0 -0.22721773824E+02 -0.91097878960E+02  0.40052121262E+02  0.10207484986E+03  0.00000000000E+00 0.  1.
</event>
<event>
12    1  0.8416569E-002  0.3296059E+03  0.7818608E-02  0.1071341E+00
         21   -1    0    0  501  502  0.00000000000E+00  0.00000000000E+00  0.25767776595E+03  0.25767776595E+03  0.00000000000E+00 0.  1.
         21   -1    0    0  502  503 -0.00000000000E+00 -0.00000000000E+00 -0.13076673555E+04  0.13076673555E+04  0.00000000000E+00 0. -1.
         -6    2    1    2    0  503 -0.12352213575E+03 -0.25242379473E+03 -0.11694463777E+04  0.12150081824E+04  0.17223403486E+03 0.  0.
        -24    2    3    3    0    0 -0.31019435172E+02 -0.53232615368E+02 -0.50998392448E+03  0.51992063915E+03  0.80236843682E+02 0.  0.
          6    2    1    2  501    0  0.12352213575E+03  0.25242379473E+03  0.11945678815E+03  0.35033693908E+03  0.17172814705E+03 0.  0.
         24    2    5    5    0    0  0.15313779865E+03  0.21446158512E+03  0.12309402680E+03  0.30182367953E+03  0.80625288972E+02 0.  0.
          5    1    5    5  501    0 -0.29615662906E+02  0.37962209608E+02 -0.36372386578E+01  0.48513259556E+02  0.47000000000E+01 0. -1.
        -11    1    6    6    0    0  0.26225546752E+02  0.10270553310E+03  0.56118121284E+02  0.11993935704E+03  0.00000000000E+00 0.  1.
         12    1    6    6    0    0  0.12691225190E+03  0.11175605202E+03  0.66975905519E+02  0.18188432248E+03  0.00000000000E+00 0. -1.
         -5    1    3    3    0  503 -0.92502700576E+02 -0.19919117936E+03 -0.65946245322E+03  0.69508754323E+03  0.47000000000E+01 0.  1.
         11    1    4    4    0    0 -0.29103782185E+02 -0.73067753678E+02 -0.44677105627E+03  0.45364116159E+03  0.00000000000E+00 0. -1.
        -12    1    4    4    0    0 -0.19156529864E+01  0.19835138310E+02 -0.63212868211E+02  0.66279477560E+02  0.00000000000E+00 0.  1.
</event>
<event>
12    1  0.8416569E-002  0.1993574E+03  0.7818608E-02  0.1150425E+00
         21   -1    0    0  503  502  0.00000000000E+00  0.00000000000E+00  0.11688236460E+04  0.11688236460E+04  0.00000000000E+00 0. -1.
         21   -1    0    0  501  503 -0.00000000000E+00 -0.00000000000E+00 -0.39982087620E+02  0.39982087620E+02  0.00000000000E+00 0. -1.
          6    2    1    2  501    0  0.92285581081E+02 -0.43220795601E+02  0.79957510017E+03  0.82389044634E+03  0.17055925981E+03 0.  0.
         24    2    3    3    0    0  0.25650327971E+02 -0.86708446559E+02  0.48260850790E+03  0.49705510040E+03  0.77307870883E+02 0.  0.
         -6    2    1    2    0  502 -0.92285581081E+02  0.43220795601E+02  0.32926645817E+03  0.38491528724E+03  0.17134384211E+03 0.  0.
        -24    2    5    5    0    0 -0.37301872023E+01  0.31812723785E+02  0.25196500163E+03  0.26672134886E+03  0.81412236171E+02 0.  0.
          5    1    3    3  501    0  0.66635253110E+02  0.43487650958E+02  0.31696659227E+03  0.32683534595E+03  0.47000000000E+01 0. -1.
        -13    1    4    4    0    0  0.11334180635E+02  0.13551407766E+02  0.68323928660E+02  0.70570982214E+02  0.00000000000E+00 0.  1.
         14    1    4    4    0    0  0.14316147336E+02 -0.10025985432E+03  0.41428457924E+03  0.42648411818E+03  0.00000000000E+00 0. -1.
         -5    1    5    5    0  502 -0.88555393879E+02  0.11408071816E+02  0.77301456537E+02  0.11819393838E+03  0.47000000000E+01 0.  1.
         13    1    6    6    0    0 -0.23697140671E+01  0.46972910998E+02  0.71293398468E+02  0.85409710089E+02  0.00000000000E+00 0. -1.
        -14    1    6    6    0    0 -0.13604731352E+01 -0.15160187213E+02  0.18067160317E+03  0.18131163877E+03  0.00000000000E+00 0.  1.
</event>
<event>
12    1  0.8416569E-002  0.2082641E+03  0.7818608E-02  0.1147187E+00
         21   -1    0    0  501  502  0.00000000000E+00  0.00000000000E+00  0.50250095164E+03  0.50250095164E+03  0.00000000000E+00 0.  1.
         21   -1    0    0  502  503 -0.00000000000E+00 -0.00000000000E+00 -0.81705692615E+02  0.81705692615E+02  0.00000000000E+00 0.  1.
         -6    2    1    2    0  503 -0.73611416066E+02 -0.75127756012E+02  0.26064312074E+03  0.32148504426E+03  0.15606081185E+03 0.  0.
        -24    2    3    3    0    0 -0.89683810987E+02 -0.11869496840E+02  0.18902678938E+03  0.22447515740E+03  0.80460538633E+02 0.  0.
          6    2    1    2  501    0  0.73611416066E+02  0.75127756012E+02  0.16015213828E+03  0.26272159999E+03  0.17975291766E+03 0.  0.
         24    2    5    5    0    0  0.78282387385E+02  0.11873169491E+03  0.11061985282E+03  0.19639921491E+03  0.78170021287E+02 0.  0.
          5    1    5    5  501    0 -0.46709713194E+01 -0.43603938895E+02  0.49532285454E+02  0.66322385078E+02  0.47000000000E+01 0.  1.
        -11    1    6    6    0    0  0.65719025112E+02  0.11584027134E+03  0.63499431535E+02  0.14754706547E+03  0.00000000000E+00 0.  1.
         12    1    6    6    0    0  0.12563362273E+02  0.28914235704E+01  0.47120421290E+02  0.48852149435E+02  0.00000000000E+00 0. -1.
         -5    1    3    3    0  503  0.16072394921E+02 -0.63258259172E+02  0.71616331367E+02  0.97009886870E+02  0.47000000000E+01 0.  1.
         13    1    4    4    0    0 -0.41923039750E+01  0.18836062001E+02  0.81312713487E+02  0.83571107561E+02  0.00000000000E+00 0. -1.
        -14    1    4    4    0    0 -0.85491507012E+02 -0.30705558842E+02  0.10771407589E+03  0.14090404983E+03  0.00000000000E+00 0.  1.
</event>
<event>
12    1  0.8416569E-002  0.1791893E+03  0.7818608E-02  0.1169151E+00
         21   -1    0    0  503  502  0.00000000000E+00  0.00000000000E+00  0.16004717940E+04  0.16004717940E+04  0.00000000000E+00 0. -1.
         21   -1    0    0  501  503 -0.00000000000E+00 -0.00000000000E+00 -0.27281156428E+02  0.27281156428E+02  0.00000000000E+00 0. -1.
          6    2    1    2  501    0 -0.27065453978E+02  0.28070457224E+02  0.36426505889E+03  0.40595300916E+03  0.17489517761E+03 0.  0.
         24    2    3    3    0    0  0.13462857397E+02  0.48604485008E+02  0.34192922554E+03  0.35510844435E+03  0.81503174620E+02 0.  0.
         -6    2    1    2    0  502  0.27065453978E+02 -0.28070457224E+02  0.12089255787E+04  0.12217999413E+04  0.17255014437E+03 0.  0.
        -24    2    5    5    0    0  0.46941074001E+02 -0.80643727600E+02  0.74421843729E+03  0.75368264156E+03  0.73956517966E+02 0.  0.
          5    1    3    3  501    0 -0.40528311375E+02 -0.20534027784E+02  0.22335833347E+02  0.50844564815E+02  0.47000000000E+01 0. -1.
        -11    1    4    4    0    0 -0.27480997222E+02  0.18078874585E+00  0.57963145060E+02  0.64147985769E+02  0.00000000000E+00 0.  1.
         12    1    4    4    0    0  0.40943854619E+02  0.48423696262E+02  0.28396608048E+03  0.29096045858E+03  0.00000000000E+00 0. -1.
         -5    1    5    5    0  502 -0.19875620023E+02  0.52573270376E+02  0.46470714141E+03  0.46811729973E+03  0.47000000000E+01 0.  1.
         13    1    6    6    0    0  0.86482754770E+01  0.12333258219E+02  0.17532913113E+03  0.17597501570E+03  0.00000000000E+00 0. -1.
        -14    1    6    6    0    0  0.38292798524E+02 -0.92976985818E+02  0.56888930617E+03  0.57770762586E+03  0.00000000000E+00 0.  1.
</event>
<event>
12    1  0.8416569E-002  0.2135811E+03  0.7818608E-02  0.1138808E+00
         21   -1    0    0  503  502  0.00000000000E+00  0.00000000000E+00  0.10000637731E+04  0.10000637731E+04  0.00000000000E+00 0.  1.
         21   -1    0    0  501  503 -0.00000000000E+00 -0.00000000000E+00 -0.11097951479E+03  0.11097951479E+03  0.00000000000E+00 0. -1.
          6    2    1    2  501    0  0.12362243898E+03 -0.25779018347E+02  0.17934477928E+02  0.21409354578E+03  0.17195155027E+03 0.  0.
         24    2    3    3    0    0  0.12574503725E+03  0.22839009042E+02 -0.20981517087E+02  0.15160544549E+03  0.78807057530E+02 0.  0.
         -6    2    1    2    0  502 -0.12362243898E+03  0.25779018347E+02  0.87114978037E+03  0.89694974211E+03  0.17224933907E+03 0.  0.
        -24    2    5    5    0    0 -0.75104707623E+02  0.62264578558E+02  0.25206561915E+03  0.27487864083E+03  0.50035946861E+02 0.  0.
          5    1    3    3  501    0 -0.21225982613E+01 -0.48618027388E+02  0.38915995016E+02  0.62488100296E+02  0.47000000000E+01 0. -1.
        -11    1    4    4    0    0  0.45689036697E+02  0.13432617691E+02  0.29948696184E+02  0.56256979082E+02  0.00000000000E+00 0.  1.
         12    1    4    4    0    0  0.80056000549E+02  0.94063913505E+01 -0.50930213272E+02  0.95348466406E+02  0.00000000000E+00 0. -1.
         -5    1    5    5    0  502 -0.48517731362E+02 -0.36485560211E+02  0.61908416123E+03  0.62207110128E+03  0.47000000000E+01 0.  1.
         11    1    6    6    0    0 -0.17988854641E+02  0.23513674163E+02  0.29250902910E+02  0.41618590617E+02  0.00000000000E+00 0. -1.
        -12    1    6    6    0    0 -0.57115852982E+02  0.38750904395E+02  0.22281471624E+03  0.23326005021E+03  0.00000000000E+00 0.  1.
</event>
<event>
12    1  0.8416569E-002  0.2133656E+03  0.7818608E-02  0.1138961E+00
         21   -1    0    0  503  502  0.00000000000E+00  0.00000000000E+00  0.12884461913E+03  0.12884461913E+03  0.00000000000E+00 0.  1.
         21   -1    0    0  501  503 -0.00000000000E+00 -0.00000000000E+00 -0.35425025280E+03  0.35425025280E+03  0.00000000000E+00 0. -1.
          6    2    1    2  501    0 -0.94890114399E+01  0.12564287883E+03 -0.98626587290E+02  0.23490584782E+03  0.17198075264E+03 0.  0.
         24    2    3    3    0    0  0.60890360418E+01  0.18960935309E+02 -0.95356950749E+02  0.12694060730E+03  0.81390271521E+02 0.  0.
         -6    2    1    2    0  502  0.94890114399E+01 -0.12564287883E+03 -0.12677904638E+03  0.24818902411E+03  0.17218795181E+03 0.  0.
        -24    2    5    5    0    0 -0.40642068186E+02 -0.64830405413E+01 -0.49007071778E+02  0.97249426131E+02  0.73225339040E+02 0.  0.
          5    1    3    3  501    0 -0.15578047482E+02  0.10668194352E+03 -0.32696365405E+01  0.10796524051E+03  0.47000000000E+01 0. -1.
        -13    1    4    4    0    0  0.23248825041E+02  0.42831727555E+02 -0.35629101281E+02  0.60369674583E+02  0.00000000000E+00 0.  1.
         14    1    4    4    0    0 -0.17159788999E+02 -0.23870792246E+02 -0.59727849468E+02  0.66570932718E+02  0.00000000000E+00 0. -1.
         -5    1    5    5    0  502  0.50131079625E+02 -0.11915983829E+03 -0.77771974600E+02  0.15093959798E+03  0.47000000000E+01 0.  1.
         13    1    6    6    0    0 -0.41064547465E+02 -0.30265586656E+02 -0.10645225813E+02  0.52111645788E+02  0.00000000000E+00 0. -1.
        -14    1    6    6    0    0  0.42247927935E+00  0.23782546114E+02 -0.38361845965E+02  0.45137780343E+02  0.00000000000E+00 0.  1.
</event>
<event>
12    1  0.8416569E-002  0.1732725E+03  0.7818608E-02  0.1174778E+00
         21   -1    0    0  503  502  0.00000000000E+00  0.00000000000E+00  0.65753674865E+03  0.65753674865E+03  0.00000000000E+00 0.  1.
         21   -1    0    0  501  503 -0.00000000000E+00 -0.00000000000E+00 -0.10134806360E+03  0.10134806360E+03  0.00000000000E+00 0.  1.
          6    2    1    2  501    0  0.15466439138E+02 -0.17055404918E+01 -0.43784152162E+01  0.17214906871E+03  0.17138848191E+03 0.  0.
         24    2    3    3    0    0  0.63487798239E+02  0.27718143822E+02 -0.31781834665E+02  0.10934109529E+03  0.78398941838E+02 0.  0.
         -6    2    1    2    0  502 -0.15466439138E+02  0.17055404918E+01  0.56056710026E+03  0.58673574353E+03  0.17257241738E+03 0.  0.
        -24    2    5    5    0    0 -0.32900734279E+02  0.73232282871E+02  0.30834047053E+03  0.32394230323E+03  0.58475161260E+02 0.  0.
          5    1    3    3  501    0 -0.48021359101E+02 -0.29423684314E+02  0.27403419449E+02  0.62807973427E+02  0.47000000000E+01 0. -1.
        -11    1    4    4    0    0  0.34753954455E+02 -0.19155433952E+02 -0.36816289091E+02  0.54131387776E+02  0.00000000000E+00 0.  1.
         12    1    4    4    0    0  0.28733843784E+02  0.46873577774E+02  0.50344544259E+01  0.55209707509E+02  0.00000000000E+00 0. -1.
         -5    1    5    5    0  502  0.17434295140E+02 -0.71526742379E+02  0.25222662973E+03  0.26279344030E+03  0.47000000000E+01 0.  1.
         13    1    6    6    0    0  0.10929912300E+02  0.20535725505E+01  0.13551184146E+02  0.17530394601E+02  0.00000000000E+00 0. -1.
        -14    1    6    6    0    0 -0.43830646579E+02  0.71178710320E+02  0.29478928639E+03  0.30641190863E+03  0.00000000000E+00 0.  1.
</event>
<event>
12    1  0.8416569E-002  0.1778520E+03  0.7818608E-02  0.1170423E+00
         21   -1    0    0  501  502  0.00000000000E+00  0.00000000000E+00  0.80930369139E+02  0.80930369139E+02  0.00000000000E+00 0. -1.
         21   -1    0    0  502  503 -0.00000000000E+00 -0.00000000000E+00 -0.53602847723E+03  0.53602847723E+03  0.00000000000E+00 0. -1.
         -6    2    1    2    0  503  0.33407809510E+02 -0.15396342340E+02 -0.39162210749E+03  0.43011534337E+03  0.17400633446E+03 0.  0.
        -24    2    3    3    0    0  0.65119848698E+02 -0.29742802100E+02 -0.14268810478E+03  0.17871585641E+03  0.80338241930E+02 0.  0.
          6    2    1    2  501    0 -0.33407809510E+02  0.15396342340E+02 -0.63476000606E+02  0.18684350300E+03  0.17183760609E+03 0.  0.
         24    2    5    5    0    0  0.47867750121E+02  0.16556671385E+02 -0.41779083502E+02  0.10258254426E+03  0.78817775277E+02 0.  0.
          5    1    5    5  501    0 -0.81275559631E+02 -0.11603290459E+01 -0.21696917103E+02  0.84260958745E+02  0.47000000000E+01 0. -1.
        -11    1    6    6    0    0  0.13302907953E+01  0.44569984901E+01 -0.53001848447E+02  0.53205549033E+02  0.00000000000E+00 0.  1.
         12    1    6    6    0    0  0.46537459325E+02  0.12099672895E+02  0.11222764944E+02  0.49376995227E+02  0.00000000000E+00 0. -1.
         -5    1    3    3    0  503 -0.31712039188E+02  0.14346459760E+02 -0.24893400271E+03  0.25139948696E+03  0.47000000000E+01 0.  1.
         13    1    4    4    0    0 -0.14513123238E+02 -0.18168849999E+02 -0.54929675569E+02  0.59649032804E+02  0.00000000000E+00 0. -1.
        -14    1    4    4    0    0  0.79632971935E+02 -0.11573952101E+02 -0.87758429208E+02  0.11906682361E+03  0.00000000000E+00 0.  1.
</event>
<event>
12    1  0.8416569E-002  0.2287546E+03  0.7818608E-02  0.1127605E+00
         21   -1    0    0  503  502  0.00000000000E+00  0.00000000000E+00  0.37768448174E+02  0.37768448174E+02  0.00000000000E+00 0. -1.
         21   -1    0    0  501  503 -0.00000000000E+00 -0.00000000000E+00 -0.14250769191E+04  0.14250769191E+04  0.00000000000E+00 0. -1.
          6    2    1    2  501    0 -0.14454417905E+03 -0.42558613360E+02 -0.56665630070E+03  0.61090718829E+03  0.17147587093E+03 0.  0.
         24    2    3    3    0    0 -0.45740322233E+02 -0.79353550768E+02 -0.27192144562E+03  0.29784681977E+03  0.79889250581E+02 0.  0.
         -6    2    1    2    0  502  0.14454417905E+03  0.42558613360E+02 -0.82065217021E+03  0.85193817898E+03  0.17211746295E+03 0.  0.
        -24    2    5    5    0    0  0.16131480781E+03  0.65002471097E+02 -0.77327042611E+03  0.79669236091E+03  0.80769905096E+02 0.  0.
          5    1    3    3  501    0 -0.98803856815E+02  0.36794937408E+02 -0.29473485508E+03  0.31306036852E+03  0.47000000000E+01 0. -1.
        -13    1    4    4    0    0 -0.32160441816E+02  0.67418371711E+01 -0.54979801416E+02  0.64050955886E+02  0.00000000000E+00 0.  1.
         14    1    4    4    0    0 -0.13579880417E+02 -0.86095387939E+02 -0.21694164421E+03  0.23379586388E+03  0.00000000000E+00 0. -1.
         -5    1    5    5    0  502 -0.16770628766E+02 -0.22443857736E+02 -0.47381744107E+02  0.55245818067E+02  0.47000000000E+01 0.  1.
         13    1    6    6    0    0  0.12282942800E+03  0.45057788576E+02 -0.69512345029E+03  0.70732869575E+03  0.00000000000E+00 0. -1.
        -14    1    6    6    0    0  0.38485379817E+02  0.19944682521E+02 -0.78146975816E+02  0.89363665154E+02  0.00000000000E+00 0.  1.
</event>
<event>
12    1  0.8416569E-002  0.1789334E+03  0.7818608E-02  0.1169178E+00
         21   -1    0    0  501  502  0.00000000000E+00  0.00000000000E+00  0.12074767866E+04  0.12074767866E+04  0.00000000000E+00 0.  1.
         21   -1    0    0  502  503 -0.00000000000E+00 -0.00000000000E+00 -0.26310913857E+02  0.26310913857E+02  0.00000000000E+00 0.  1.
         -6    2    1    2    0  503 -0.39051210921E+02 -0.21700998312E+02  0.58810077606E+03  0.61431746307E+03  0.17183565470E+03 0.  0.
        -24    2    3    3    0    0 -0.30547522950E+02 -0.48600635621E+02  0.18581527849E+03  0.21101656455E+03  0.81887116511E+02 0.  0.
          6    2    1    2  501    0  0.39051210921E+02  0.21700998312E+02  0.59306509665E+03  0.61947023735E+03  0.17326637210E+03 0.  0.
         24    2    5    5    0    0  0.42183011915E+02 -0.52226609871E+02  0.41295911833E+03  0.42470023747E+03  0.72993376554E+02 0.  0.
          5    1    5    5  501    0 -0.31318009936E+01  0.73927608183E+02  0.18010597832E+03  0.19476999988E+03  0.47000000000E+01 0. -1.
        -13    1    6    6    0    0  0.40094693877E+02 -0.45070418019E+02  0.15055750032E+03  0.16219274941E+03  0.00000000000E+00 0.  1.
         14    1    6    6    0    0  0.20883180372E+01 -0.71561918515E+01  0.26240161801E+03  0.26250748806E+03  0.00000000000E+00 0. -1.
         -5    1    3    3    0  503 -0.85036879712E+01  0.26899637309E+02  0.40228549757E+03  0.40330089852E+03  0.47000000000E+01 0.  1.
         11    1    4    4    0    0 -0.16015146521E+01  0.22774233307E+02  0.37754040445E+02  0.44120268832E+02  0.00000000000E+00 0. -1.
        -12    1    4    4    0    0 -0.28946008298E+02 -0.71374868928E+02  0.14806123805E+03  0.16689629571E+03  0.00000000000E+00 0.  1.
</event>
<event>
12    1  0.8416569E-002  0.1879511E+03  0.7818608E-02  0.1160600E+00
         21   -1    0    0  503  502  0.00000000000E+00  0.00000000000E+00  0.26502283883E+03  0.26502283883E+03  0.00000000000E+00 0.  1.
         21   -1    0    0  501  503 -0.00000000000E+00 -0.00000000000E+00 -0.13637629858E+03  0.13637629858E+03  0.00000000000E+00 0.  1.
          6    2    1    2  501    0 -0.67172820151E+02 -0.29339709211E+02  0.30000699047E+02  0.18913366458E+03  0.17175125860E+03 0.  0.
         24    2    3    3    0    0 -0.11227236900E+03 -0.12015139453E+02  0.29357657670E+02  0.14058870062E+03  0.78446556733E+02 0.  0.
         -6    2    1    2    0  502  0.67172820151E+02  0.29339709211E+02  0.98645841205E+02  0.21226547283E+03  0.17306826013E+03 0.  0.
        -24    2    5    5    0    0  0.92375818099E+02  0.35507558222E+02  0.12233189185E+03  0.17682041023E+03  0.80661559929E+02 0.  0.
          5    1    3    3  501    0  0.45099548844E+02 -0.17324569758E+02  0.64304137761E+00  0.48544963956E+02  0.47000000000E+01 0. -1.
        -13    1    4    4    0    0 -0.55552093629E+02 -0.22660184766E+02 -0.21434457117E+02  0.63709928834E+02  0.00000000000E+00 0.  1.
         14    1    4    4    0    0 -0.56720275367E+02  0.10645045313E+02  0.50792114786E+02  0.76878771790E+02  0.00000000000E+00 0. -1.
         -5    1    5    5    0  502 -0.25202997947E+02 -0.61678490109E+01 -0.23686050649E+02  0.35445062594E+02  0.47000000000E+01 0.  1.
         13    1    6    6    0    0  0.66356914699E+01 -0.22929524469E+02  0.24671028157E+02  0.34328634170E+02  0.00000000000E+00 0. -1.
        -14    1    6    6    0    0  0.85740126629E+02  0.58437082691E+02  0.97660863698E+02  0.14249177606E+03  0.00000000000E+00 0.  1.
</event>
<event>
12    1  0.8416569E-002  0.2008063E+03  0.7818608E-02  0.1149160E+00
         21   -1    0    0  501  502  0.00000000000E+00  0.00000000000E+00  0.14435203221E+04  0.14435203221E+04  0.00000000000E+00 0.  1.
         21   -1    0    0  502  503 -0.00000000000E+00 -0.00000000000E+00 -0.59006018843E+02  0.59006018843E+02  0.00000000000E+00 0.  1.
         -6    2    1    2    0  503  0.88570442496E+02  0.51130846128E+02  0.14689972155E+03  0.24880252578E+03  0.17281227368E+03 0.  0.
        -24    2    3    3    0    0  0.78010972700E+02 -0.32411881432E+02  0.88089684732E+02  0.14598423869E+03  0.80095964128E+02 0.  0.
          6    2    1    2  501    0 -0.88570442496E+02 -0.51130846128E+02  0.12376145817E+04  0.12537238152E+04  0.17226277931E+03 0.  0.
         24    2    5    5    0    0 -0.76046997330E+02  0.82988205554E+01  0.10644417325E+04  0.10701491773E+04  0.79567855158E+02 0.  0.
          5    1    5    5  501    0 -0.12523445166E+02 -0.59429666683E+02  0.17317284922E+03  0.18357463787E+03  0.47000000000E+01 0. -1.
        -11    1    6    6    0    0  0.15409134698E+02 -0.80574711419E+01  0.15339702683E+03  0.15437944200E+03  0.00000000000E+00 0.  1.
         12    1    6    6    0    0 -0.91456132028E+02  0.16356291697E+02  0.91104470570E+03  0.91576973533E+03  0.00000000000E+00 0. -1.
         -5    1    3    3    0  503  0.10559469796E+02  0.83542727560E+02  0.58810036814E+02  0.10281828709E+03  0.47000000000E+01 0.  1.
         11    1    4    4    0    0  0.41278376278E+02 -0.55872822047E+02  0.36583329096E+02  0.78511251164E+02  0.00000000000E+00 0. -1.
        -12    1    4    4    0    0  0.36732596422E+02  0.23460940615E+02  0.51506355637E+02  0.67472987524E+02  0.00000000000E+00 0.  1.
</event>
<event>
12    1  0.8416569E-002  0.2227062E+03  0.7818608E-02  0.1131887E+00
         21   -1    0    0  503  502  0.00000000000E+00  0.00000000000E+00  0.67255494601E+03  0.67255494601E+03  0.00000000000E+00 0.  1.
         21   -1    0    0  501  503 -0.00000000000E+00 -0.00000000000E+00 -0.27806079799E+03  0.27806079799E+03  0.00000000000E+00 0. -1.
          6    2    1    2  501    0  0.13362136934E+03 -0.44909856929E+02 -0.21019146549E+03  0.30623274614E+03  0.17241368000E+03 0.  0.
         24    2    3    3    0    0  0.16371918320E+03 -0.48861562524E+02 -0.15993130771E+03  0.24732885972E+03  0.80013239062E+02 0.  0.
         -6    2    1    2    0  502 -0.13362136934E+03  0.44909856929E+02  0.60468561351E+03  0.64438299786E+03  0.17237514655E+03 0.  0.
        -24    2    5    5    0    0 -0.58289604711E+02  0.62489402781E+02  0.18829477233E+03  0.22084157389E+03  0.77546605316E+02 0.  0.
          5    1    3    3  501    0 -0.30097813856E+02  0.39517055942E+01 -0.50260157779E+02  0.58903886425E+02  0.47000000000E+01 0. -1.
        -11    1    4    4    0    0  0.79309625543E+02  0.12139488417E+02 -0.44066777285E+02  0.91538323903E+02  0.00000000000E+00 0.  1.
         12    1    4    4    0    0  0.84409557654E+02 -0.61001050940E+02 -0.11586453042E+03  0.15579053582E+03  0.00000000000E+00 0. -1.
         -5    1    5    5    0  502 -0.75331764629E+02 -0.17579545852E+02  0.41639084118E+03  0.42354142396E+03  0.47000000000E+01 0.  1.
         11    1    6    6    0    0 -0.48056196606E+01 -0.14829248438E+02  0.80334234255E+01  0.17536718094E+02  0.00000000000E+00 0. -1.
        -12    1    6    6    0    0 -0.53483985051E+02  0.77318651220E+02  0.18026134890E+03  0.20330485580E+03  0.00000000000E+00 0.  1.
</event>
<event>
12    1  0.8416569E-002  0.2430240E+03  0.7818608E-02  0.1118597E+00
         21   -1    0    0  501  502  0.00000000000E+00  0.00000000000E+00  0.32242135543E+03  0.32242135543E+03  0.00000000000E+00 0. -1.
         21   -1    0    0  502  503 -0.00000000000E+00 -0.00000000000E+00 -0.56674161163E+03  0.56674161163E+03  0.00000000000E+00 0.  1.
         -6    2    1    2    0  503  0.51357875228E+02  0.15676957792E+03 -0.49001470634E+03  0.54696896975E+03  0.17845534324E+03 0.  0.
        -24    2    3    3    0    0 -0.46212877063E+02  0.68470588453E+02 -0.22387025857E+03  0.25003173679E+03  0.74660064536E+02 0.  0.
          6    2    1    2  501    0 -0.51357875228E+02 -0.15676957792E+03  0.24569445015E+03  0.34219399731E+03  0.17180406587E+03 0.  0.
         24    2    5    5    0    0 -0.67556502551E+02 -0.10459655736E+03  0.80595669471E+02  0.16822814726E+03  0.79377117259E+02 0.  0.
          5    1    5    5  501    0  0.16198627323E+02 -0.52173020554E+02  0.16509878068E+03  0.17396585005E+03  0.47000000000E+01 0. -1.
        -11    1    6    6    0    0 -0.11410414291E+02  0.10567971017E+02  0.22978397081E+02  0.27746825009E+02  0.00000000000E+00 0.  1.
         12    1    6    6    0    0 -0.56146088260E+02 -0.11516452838E+03  0.57617272390E+02  0.14048132225E+03  0.00000000000E+00 0. -1.
         -5    1    3    3    0  503  0.97570752292E+02  0.88298989465E+02 -0.26614444777E+03  0.29693723297E+03  0.47000000000E+01 0.  1.
         13    1    4    4    0    0 -0.57756898604E+02  0.74008859191E+02 -0.16548385898E+03  0.19025792535E+03  0.00000000000E+00 0. -1.
        -14    1    4    4    0    0  0.11544021541E+02 -0.55382707385E+01 -0.58386399597E+02  0.59773811439E+02  0.00000000000E+00 0.  1.
</event>
<event>
12    1  0.8416569E-002  0.1889367E+03  0.7818608E-02  0.1160011E+00
         21   -1    0    0  503  502  0.00000000000E+00  0.00000000000E+00  0.10373379155E+03  0.10373379155E+03  0.00000000000E+00 0. -1.
         21   -1    0    0  501  503 -0.00000000000E+00 -0.00000000000E+00 -0.34945343998E+03  0.34945343998E+03  0.00000000000E+00 0.  1.
          6    2    1    2  501    0 -0.70755469555E+02  0.15630758936E+02 -0.85370877920E+02  0.20732890168E+03  0.17448905289E+03 0.  0.
         24    2    3    3    0    0 -0.11215697255E+03 -0.96295890093E+01 -0.49914335553E+02  0.14706758718E+03  0.80408449986E+02 0.  0.
         -6    2    1    2    0  502  0.70755469555E+02 -0.15630758936E+02 -0.16034877051E+03  0.24585832984E+03  0.17170886130E+03 0.  0.
        -24    2    5    5    0    0  0.10461349276E+03 -0.39606722976E+02 -0.89065070466E+02  0.16324677811E+03  0.78767051581E+02 0.  0.
          5    1    3    3  501    0  0.41401502998E+02  0.25260347946E+02 -0.35456542367E+02  0.60261314502E+02  0.47000000000E+01 0. -1.
        -11    1    4    4    0    0 -0.12402135052E+02 -0.24363852371E+02 -0.36107295865E+02  0.45289591198E+02  0.00000000000E+00 0.  1.
         12    1    4    4    0    0 -0.99754837501E+02  0.14734263361E+02 -0.13807039688E+02  0.10177799598E+03  0.00000000000E+00 0. -1.
         -5    1    5    5    0  502 -0.33858023202E+02  0.23975964040E+02 -0.71283700048E+02  0.82611551730E+02  0.47000000000E+01 0.  1.
         13    1    6    6    0    0  0.97856160985E+01 -0.23761949526E+02  0.77130252728E+01  0.26830566273E+02  0.00000000000E+00 0. -1.
        -14    1    6    6    0    0  0.94827876659E+02 -0.15844773450E+02 -0.96778095739E+02  0.13641621184E+03  0.00000000000E+00 0.  1.
</event>
<event>
12    1  0.8416569E-002  0.2970068E+03  0.7818608E-02  0.1086770E+00
         21   -1    0    0  501  502  0.00000000000E+00  0.00000000000E+00  0.15501703314E+04  0.15501703314E+04  0.00000000000E+00 0.  1.
         21   -1    0    0  502  503 -0.00000000000E+00 -0.00000000000E+00 -0.66442201645E+02  0.66442201645E+02  0.00000000000E+00 0. -1.
         -6    2    1    2    0  503 -0.10641040830E+03 -0.21646377690E+03  0.43526456616E+03  0.52694238064E+03  0.17330114904E+03 0.  0.
        -24    2    3    3    0    0 -0.65647005295E+02 -0.21384965904E+03  0.42174624295E+03  0.48366047103E+03  0.77565145690E+02 0.  0.
          6    2    1    2  501    0  0.10641040830E+03  0.21646377690E+03  0.10484635636E+04  0.10896701524E+04  0.17298975444E+03 0.  0.
         24    2    5    5    0    0  0.17802285896E+02  0.36081125921E+02  0.22256364695E+03  0.23965717459E+03  0.79260427440E+02 0.  0.
          5    1    5    5  501    0  0.88608122406E+02  0.18038265098E+03  0.82589991665E+03  0.85001297782E+03  0.47000000000E+01 0. -1.
        -11    1    6    6    0    0 -0.22225962842E+02  0.89164167522E+01  0.15337973332E+03  0.15523800599E+03  0.00000000000E+00 0.  1.
         12    1    6    6    0    0  0.40028248738E+02  0.27164709169E+02  0.69183913635E+02  0.84419168600E+02  0.00000000000E+00 0. -1.
         -5    1    3    3    0  503 -0.40763403007E+02 -0.26141178632E+01  0.13518323210E+02  0.43281909609E+02  0.47000000000E+01 0.  1.
         11    1    4    4    0    0 -0.48386025243E+02 -0.91975889508E+02  0.12605709427E+03  0.16337430246E+03  0.00000000000E+00 0. -1.
        -12    1    4    4    0    0 -0.17260980051E+02 -0.12187376953E+03  0.29568914868E+03  0.32028616857E+03  0.00000000000E+00 0.  1.
</event>
<event>
12    1  0.8416569E-002  0.1829704E+03  0.7818608E-02  0.1165149E+00
         21   -1    0    0  503  502  0.00000000000E+00  0.00000000000E+00  0.47315052508E+03  0.47315052508E+03  0.00000000000E+00 0. -1.
         21   -1    0    0  501  503 -0.00000000000E+00 -0.00000000000E+00 -0.26877615775E+03  0.26877615775E+03  0.00000000000E+00 0. -1.
          6    2    1    2  501    0  0.10116000626E+02 -0.63984026916E+02 -0.21653278619E+03  0.28297025396E+03  0.17026282026E+03 0.  0.
         24    2    3    3    0    0  0.59849238361E+02  0.77796316896E+01 -0.81070424092E+02  0.12173886999E+03  0.67863722286E+02 0.  0.
         -6    2    1    2    0  502 -0.10116000626E+02  0.63984026916E+02  0.42090715353E+03  0.45895642886E+03  0.17111949782E+03 0.  0.
        -24    2    5    5    0    0  0.36358740917E+02  0.89296613676E+02  0.34117522683E+03  0.36314464052E+03  0.78598036117E+02 0.  0.
          5    1    3    3  501    0 -0.49733237735E+02 -0.71763658605E+02 -0.13546236210E+03  0.16123138397E+03  0.47000000000E+01 0. -1.
        -11    1    4    4    0    0  0.31731041277E+02  0.32632777922E+01  0.38879125971E+01  0.32134464782E+02  0.00000000000E+00 0.  1.
         12    1    4    4    0    0  0.28118197084E+02  0.45163538974E+01 -0.84958336689E+02  0.89604405209E+02  0.00000000000E+00 0. -1.
         -5    1    5    5    0  502 -0.46474741543E+02 -0.25312586760E+02  0.79731926698E+02  0.95811788340E+02  0.47000000000E+01 0.  1.
         13    1    6    6    0    0  0.78809374845E+01  0.47823687358E+02  0.58233709779E+02  0.75765290224E+02  0.00000000000E+00 0. -1.
        -14    1    6    6    0    0  0.28477803432E+02  0.41472926318E+02  0.28294151705E+03  0.28737935029E+03  0.00000000000E+00 0.  1.
</event>
<event>
12    1  0.8416569E-002  0.1796013E+03  0.7818608E-02  0.1168366E+00
         21   -1    0    0  503  502  0.00000000000E+00  0.00000000000E+00  0.26701905846E+04  0.26701905846E+04  0.00000000000E+00 0. -1.
         21   -1    0    0  501  503 -0.00000000000E+00 -0.00000000000E+00 -0.21194255566E+02  0.21194255566E+02  0.00000000000E+00 0. -1.
          6    2    1    2  501    0  0.38884350103E+02 -0.36272596772E+02  0.44121089235E+03  0.47636505911E+03  0.17154860551E+03 0.  0.
         24    2    3    3    0    0 -0.29529799152E+02 -0.52940008179E+02  0.17896827758E+03  0.20479264257E+03  0.78966629462E+02 0.  0.
         -6    2    1    2    0  502 -0.38884350103E+02  0.36272596772E+02  0.22077854366E+04  0.22150197810E+04  0.17078759345E+03 0.  0.
        -24    2    5    5    0    0 -0.38798670803E+02 -0.35232366296E+02  0.89132061501E+03  0.89660608127E+03  0.81874109059E+02 0.  0.
          5    1    3    3  501    0  0.68414149255E+02  0.16667411406E+02  0.26224261477E+03  0.27157241654E+03  0.47000000000E+01 0. -1.
        -11    1    4    4    0    0 -0.36242586804E+02 -0.26393289025E+02  0.17025213986E+03  0.17605658730E+03  0.00000000000E+00 0.  1.
         12    1    4    4    0    0  0.67127876523E+01 -0.26546719154E+02  0.87161377137E+01  0.28736055271E+02  0.00000000000E+00 0. -1.
         -5    1    5    5    0  502 -0.85679299289E-01  0.71504963068E+02  0.13164648216E+04  0.13184136997E+04  0.47000000000E+01 0.  1.
         13    1    6    6    0    0  0.12529401672E+01 -0.46640976575E+02  0.65376435053E+03  0.65542717108E+03  0.00000000000E+00 0. -1.
        -14    1    6    6    0    0 -0.40051610971E+02  0.11408610280E+02  0.23755626447E+03  0.24117891019E+03  0.00000000000E+00 0.  1.
</event>
<event>
12    1  0.8416569E-002  0.1928814E+03  0.7818608E-02  0.1155931E+00
         21   -1    0    0  503  502  0.00000000000E+00  0.00000000000E+00  0.11316035502E+04  0.11316035502E+04  0.00000000000E+00 0.  1.
         21   -1    0    0  501  503 -0.00000000000E+00 -0.00000000000E+00 -0.38869453149E+02  0.38869453149E+02  0.00000000000E+00 0.  1.
          6    2    1    2  501    0 -0.31998413813E+02 -0.80788205400E+02  0.31617119921E+03  0.37036123350E+03  0.17219925509E+03 0.  0.
         24    2    3    3    0    0  0.44068901163E+02 -0.38366152056E+02  0.20942118204E+03  0.23250796664E+03  0.82393527614E+02 0.  0.
         -6    2    1    2    0  502  0.31998413813E+02  0.80788205400E+02  0.77656289788E+03  0.80011176989E+03  0.17198336352E+03 0.  0.
        -24    2    5    5    0    0  0.37966623150E+02 -0.19049375079E+02  0.35189278299E+03  0.36379771043E+03  0.81950596272E+02 0.  0.
          5    1    3    3  501    0 -0.76067314976E+02 -0.42422053344E+02  0.10675001717E+03  0.13785326686E+03  0.47000000000E+01 0. -1.
        -11    1    4    4    0    0  0.40257616044E+02 -0.62504121254E+02  0.17640594406E+03  0.19143275039E+03  0.00000000000E+00 0.  1.
         12    1    4    4    0    0  0.38112851189E+01  0.24137969197E+02  0.33015237981E+02  0.41075216252E+02  0.00000000000E+00 0. -1.
         -5    1    5    5    0  502 -0.59682093371E+01  0.99837580480E+02  0.42467011489E+03  0.43631405946E+03  0.47000000000E+01 0.  1.
         11    1    6    6    0    0 -0.25583732450E+02 -0.11783081377E+02  0.11812816545E+03  0.12143982809E+03  0.00000000000E+00 0. -1.
        -12    1    6    6    0    0  0.63550355600E+02 -0.72662937022E+01  0.23376461754E+03  0.24235788234E+03  0.00000000000E+00 0.  1.
</event>
<event>
12    1  0.8416569E-002  0.1891881E+03  0.7818608E-02  0.1159437E+00
         21   -1    0    0  501  502  0.00000000000E+00  0.00000000000E+00  0.18707457304E+03  0.18707457304E+03  0.00000000000E+00 0.  1.
         21   -1    0    0  502  503 -0.00000000000E+00 -0.00000000000E+00 -0.32846325161E+03  0.32846325161E+03  0.00000000000E+00 0.  1.
         -6    2    1    2    0  503  0.28687478046E+02  0.70874379688E+02 -0.23778524685E+03  0.30320689973E+03  0.17189081224E+03 0.  0.
        -24    2    3    3    0    0 -0.37039398411E+02  0.52950276373E+02 -0.74357089999E+02  0.12608505404E+03  0.78694442098E+02 0.  0.
          6    2    1    2  501    0 -0.28687478046E+02 -0.70874379688E+02  0.96396568280E+02  0.21233092491E+03  0.17304905145E+03 0.  0.
         24    2    5    5    0    0 -0.58669381408E+02 -0.38042566715E+02  0.12020468119E+03  0.16167760605E+03  0.82469083423E+02 0.  0.
          5    1    5    5  501    0  0.29981903362E+02 -0.32831812973E+02 -0.23808112906E+02  0.50653318869E+02  0.47000000000E+01 0. -1.
        -13    1    6    6    0    0 -0.16789279054E+02 -0.88369146567E+01  0.10736702139E+03  0.10903049222E+03  0.00000000000E+00 0.  1.
         14    1    6    6    0    0 -0.41880102354E+02 -0.29205652059E+02  0.12837659800E+02  0.52647113829E+02  0.00000000000E+00 0. -1.
         -5    1    3    3    0  503  0.65726876457E+02  0.17924103316E+02 -0.16342815685E+03  0.17712184569E+03  0.47000000000E+01 0.  1.
         13    1    4    4    0    0  0.12927661961E+02 -0.10985617485E+02 -0.27701363145E+02  0.32483438171E+02  0.00000000000E+00 0. -1.
        -14    1    4    4    0    0 -0.49967060372E+02  0.63935893857E+02 -0.46655726854E+02  0.93601615872E+02  0.00000000000E+00 0.  1.
</event>
<event>
12    1  0.8416569E-002  0.2244710E+03  0.7818608E-02  0.1130638E+00
         21   -1    0    0  501  502  0.00000000000E+00  0.00000000000E+00  0.21515621602E+03  0.21515621602E+03  0.00000000000E+00 0. -1.
         21   -1    0    0  502  503 -0.00000000000E+00 -0.00000000000E+00 -0.34608472353E+03  0.34608472353E+03  0.00000000000E+00 0. -1.
         -6    2    1    2    0  503  0.14764096367E+02 -0.14232976554E+03 -0.22523495796E+03  0.31799061513E+03  0.17294942707E+03 0.  0.
        -24    2    3    3    0    0  0.36836338076E+02 -0.84015493648E+01 -0.10157361299E+03  0.13431108666E+03  0.79339569624E+02 0.  0.
          6    2    1    2  501    0 -0.14764096367E+02  0.14232976554E+03  0.94306450452E+02  0.24325032442E+03  0.17263045222E+03 0.  0.
         24    2    5    5    0    0 -0.96349243211E+01  0.15528099073E+03  0.29708255107E+02  0.17700034720E+03  0.79003320430E+02 0.  0.
          5    1    5    5  501    0 -0.51291720456E+01 -0.12951225192E+02  0.64598195345E+02  0.66249977220E+02  0.47000000000E+01 0. -1.
        -13    1    6    6    0    0  0.29257275964E+02  0.24877306683E+02  0.71223463978E+01  0.39058883789E+02  0.00000000000E+00 0.  1.
         14    1    6    6    0    0 -0.38892200285E+02  0.13040368405E+03  0.22585908710E+02  0.13794146341E+03  0.00000000000E+00 0. -1.
         -5    1    3    3    0  503 -0.22072241710E+02 -0.13392821617E+03 -0.12366134497E+03  0.18367952848E+03  0.47000000000E+01 0.  1.
         13    1    4    4    0    0 -0.25228120037E+02 -0.49994291994E+01 -0.29816685081E+02  0.39376224326E+02  0.00000000000E+00 0. -1.
        -14    1    4    4    0    0  0.62064458114E+02 -0.34021201653E+01 -0.71756927910E+02  0.94934862330E+02  0.00000000000E+00 0.  1.
</event>
<event>
12    1  0.8416569E-002  0.1986551E+03  0.7818608E-02  0.1151011E+00
         21   -1    0    0  503  502  0.00000000000E+00  0.00000000000E+00  0.21642931002E+03  0.21642931002E+03  0.00000000000E+00 0. -1.
         21   -1    0    0  501  503 -0.00000000000E+00 -0.00000000000E+00 -0.21559865109E+03  0.21559865109E+03  0.00000000000E+00 0.  1.
          6    2    1    2  501    0 -0.35950481827E+02 -0.90992248959E+02 -0.85146797173E+02  0.21613383455E+03  0.17289254135E+03 0.  0.
         24    2    3    3    0    0 -0.64723125767E+02 -0.11055625156E+02 -0.82264506752E+02  0.13099790522E+03  0.77985205291E+02 0.  0.
         -6    2    1    2    0  502  0.35950481827E+02  0.90992248959E+02  0.85977456101E+02  0.21589412657E+03  0.17218049952E+03 0.  0.
        -24    2    5    5    0    0 -0.33510445297E+02  0.88788363762E+02  0.83064343829E+02  0.14617860656E+03  0.73906537716E+02 0.  0.
          5    1    3    3  501    0  0.28772643940E+02 -0.79936623803E+02 -0.28822904208E+01  0.85135929327E+02  0.47000000000E+01 0. -1.
        -11    1    4    4    0    0 -0.19806466319E+02 -0.15402017045E+02 -0.82123987013E+02  0.85871226147E+02  0.00000000000E+00 0.  1.
         12    1    4    4    0    0 -0.44916659448E+02  0.43463918887E+01 -0.14051973916E+00  0.45126679073E+02  0.00000000000E+00 0. -1.
         -5    1    5    5    0  502  0.69460927124E+02  0.22038851975E+01  0.29131122721E+01  0.69715520008E+02  0.47000000000E+01 0.  1.
         13    1    6    6    0    0 -0.50095490058E+01  0.74525918390E+02  0.86310499427E+02  0.11414337652E+03  0.00000000000E+00 0. -1.
        -14    1    6    6    0    0 -0.28500896291E+02  0.14262445372E+02 -0.32461555977E+01  0.32035230038E+02  0.00000000000E+00 0.  1.
</event>
<event>
12    1  0.8416569E-002  0.3192314E+03  0.7818608E-02  0.1076210E+00
         21   -1    0    0  501  502  0.00000000000E+00  0.00000000000E+00  0.20391671429E+03  0.20391671429E+03  0.00000000000E+00 0.  1.
         21   -1    0    0  502  503 -0.00000000000E+00 -0.00000000000E+00 -0.75989816551E+03  0.75989816551E+03  0.00000000000E+00 0.  1.
         -6    2    1    2    0  503  0.21825881398E+03  0.15527616571E+03 -0.56095134336E+03  0.64454483881E+03  0.17036443909E+03 0.  0.
        -24    2    3    3    0    0  0.22322846076E+03  0.93403944351E+02 -0.45490552819E+03  0.52157868867E+03  0.80932356852E+02 0.  0.
          6    2    1    2  501    0 -0.21825881398E+03 -0.15527616571E+03  0.49698921392E+01  0.31927004098E+03  0.17366940354E+03 0.  0.
         24    2    5    5    0    0 -0.90355824466E+02 -0.10492743974E+03 -0.60077192241E+02  0.16712740357E+03  0.71752054817E+02 0.  0.
          5    1    5    5  501    0 -0.12790298951E+03 -0.50348725966E+02  0.65047084380E+02  0.15214263741E+03  0.47000000000E+01 0. -1.
        -11    1    6    6    0    0 -0.41624221162E+02 -0.96912845712E+02 -0.31536792502E+02  0.11008744130E+03  0.00000000000E+00 0.  1.
         12    1    6    6    0    0 -0.48731603304E+02 -0.80145940298E+01 -0.28540399739E+02  0.57039962266E+02  0.00000000000E+00 0. -1.
         -5    1    3    3    0  503 -0.49696467876E+01  0.61872221358E+02 -0.10604581517E+03  0.12296615014E+03  0.47000000000E+01 0.  1.
         11    1    4    4    0    0  0.15800798481E+03  0.27711230563E+02 -0.25472166844E+03  0.30102751358E+03  0.00000000000E+00 0. -1.
        -12    1    4    4    0    0  0.65220475957E+02  0.65692713788E+02 -0.20018385975E+03  0.22055117509E+03  0.00000000000E+00 0.  1.
</event>
<event>
12    1  0.8416569E-002  0.1892703E+03  0.7818608E-02  0.1159319E+00
         21   -1    0    0  503  502  0.00000000000E+00  0.00000000000E+00  0.82386453472E+03  0.82386453472E+03  0.00000000000E+00 0. -1.
         21   -1    0    0  501  503 -0.00000000000E+00 -0.00000000000E+00 -0.45894990302E+02  0.45894990302E+02  0.00000000000E+00 0. -1.
          6    2    1    2  501    0 -0.18391758042E+02 -0.72438420800E+02  0.28607151767E+03  0.34301627358E+03  0.17388981899E+03 0.  0.
         24    2    3    3    0    0 -0.97808936509E+01 -0.11197504694E+03  0.26134679127E+03  0.29536447521E+03  0.79397423725E+02 0.  0.
         -6    2    1    2    0  502  0.18391758042E+02  0.72438420800E+02  0.49189802674E+03  0.52674325144E+03  0.17294277276E+03 0.  0.
        -24    2    5    5    0    0  0.52688347936E+02  0.10259615228E+03  0.39846082363E+03  0.42263587527E+03  0.80919853106E+02 0.  0.
          5    1    3    3  501    0 -0.86108643912E+01  0.39536626139E+02  0.24724726404E+02  0.47651798369E+02  0.47000000000E+01 0. -1.
        -11    1    4    4    0    0 -0.79238710569E+01  0.10030838999E+01  0.88510783403E+02  0.88870426399E+02  0.00000000000E+00 0.  1.
         12    1    4    4    0    0 -0.18570225940E+01 -0.11297813084E+03  0.17283600787E+03  0.20649404881E+03  0.00000000000E+00 0. -1.
         -5    1    5    5    0  502 -0.34296589894E+02 -0.30157731484E+02  0.93437203117E+02  0.10410737617E+03  0.47000000000E+01 0.  1.
         11    1    6    6    0    0  0.18364269935E+02  0.10299983092E+03  0.32755193199E+03  0.34385531802E+03  0.00000000000E+00 0. -1.
        -12    1    6    6    0    0  0.34324078001E+02 -0.40367864060E+00  0.70908891635E+02  0.78780557246E+02  0.00000000000E+00 0.  1.
</event>
<event>
12    1  0.8416569E-002  0.3911605E+03  0.7818608E-02  0.1046953E+00
         21   -1    0    0  503  502  0.00000000000E+00  0.00000000000E+00  0.39413090166E+03  0.39413090166E+03  0.00000000000E+00 0. -1.
         21   -1    0    0  501  503 -0.00000000000E+00 -0.00000000000E+00 -0.39965470902E+03  0.39965470902E+03  0.00000000000E+00 0.  1.
          6    2    1    2  501    0  0.31309607421E+03 -0.15805710518E+03  0.66612504751E+02  0.39602915725E+03  0.17143706548E+03 0.  0.
         24    2    3    3    0    0  0.13561966794E+03 -0.12868347650E+03  0.72621599037E+02  0.21597670917E+03  0.80124345882E+02 0.  0.
         -6    2    1    2    0  502 -0.31309607421E+03  0.15805710518E+03 -0.72136312105E+02  0.39775645343E+03  0.17319165262E+03 0.  0.
        -24    2    5    5    0    0 -0.30564915854E+03  0.99469676250E+02 -0.53966572791E+02  0.33578732556E+03  0.80778167973E+02 0.  0.
          5    1    3    3  501    0  0.17747640627E+03 -0.29373628686E+02 -0.60090942861E+01  0.18005244808E+03  0.47000000000E+01 0. -1.
        -13    1    4    4    0    0  0.81727811158E+01  0.10760399800E+02 -0.20642023594E+00  0.13513813834E+02  0.00000000000E+00 0.  1.
         14    1    4    4    0    0  0.12744688682E+03 -0.13944387630E+03  0.72828019273E+02  0.20246289534E+03  0.00000000000E+00 0. -1.
         -5    1    5    5    0  502 -0.74469156695E+01  0.58587428932E+02 -0.18169739314E+02  0.61969127867E+02  0.47000000000E+01 0.  1.
         11    1    6    6    0    0 -0.18072803925E+03  0.54582441398E+02  0.87139969633E+01  0.18899153638E+03  0.00000000000E+00 0. -1.
        -12    1    6    6    0    0 -0.12492111928E+03  0.44887234852E+02 -0.62680569754E+02  0.14679578918E+03  0.00000000000E+00 0.  1.
</event>
<event>
12    1  0.8416569E-002  0.2268308E+03  0.7818608E-02  0.1129882E+00
         21   -1    0    0  503  502  0.00000000000E+00  0.00000000000E+00  0.64343165092E+02  0.64343165092E+02  0.00000000000E+00 0. -1.
         21   -1    0    0  501  503 -0.00000000000E+00 -0.00000000000E+00 -0.81262706258E+03  0.81262706258E+03  0.00000000000E+00 0. -1.
          6    2    1    2  501    0  0.13914023779E+03 -0.21449897364E+02 -0.46569436251E+03  0.51799945716E+03  0.17785413821E+03 0.  0.
         24    2    3    3    0    0  0.15680580701E+02 -0.54563471806E+02 -0.22772351077E+03  0.24783096896E+03  0.79618708551E+02 0.  0.
         -6    2    1    2    0  502 -0.13914023779E+03  0.21449897364E+02 -0.28258953498E+03  0.35897077051E+03  0.17083051523E+03 0.  0.
        -24    2    5    5    0    0 -0.11249456183E+03 -0.47534509541E+02 -0.20540314308E+03  0.25197231474E+03  0.79906446350E+02 0.  0.
          5    1    3    3  501    0  0.12345965709E+03  0.33113574442E+02 -0.23797085174E+03  0.27016848820E+03  0.47000000000E+01 0. -1.
        -11    1    4    4    0    0  0.11007538828E+02 -0.74936363910E+02 -0.19261574210E+03  0.20697209631E+03  0.00000000000E+00 0.  1.
         12    1    4    4    0    0  0.46730418724E+01  0.20372892104E+02 -0.35107768668E+02  0.40858872645E+02  0.00000000000E+00 0. -1.
         -5    1    5    5    0  502 -0.26645675954E+02  0.68984406904E+02 -0.77186391896E+02  0.10699845577E+03  0.47000000000E+01 0.  1.
         11    1    6    6    0    0 -0.56728619151E+02  0.62735705197E+01 -0.41166823912E+02  0.70371878680E+02  0.00000000000E+00 0. -1.
        -12    1    6    6    0    0 -0.55765942682E+02 -0.53808080061E+02 -0.16423631917E+03  0.18160043606E+03  0.00000000000E+00 0.  1.
</event>
<event>
12    1  0.8416569E-002  0.1810528E+03  0.7818608E-02  0.1166943E+00
         21   -1    0    0  501  502  0.00000000000E+00  0.00000000000E+00  0.11005615589E+04  0.11005615589E+04  0.00000000000E+00 0. -1.
         21   -1    0    0  502  503 -0.00000000000E+00 -0.00000000000E+00 -0.37223611861E+02  0.37223611861E+02  0.00000000000E+00 0.  1.
         -6    2    1    2    0  503  0.29428375019E+02 -0.46181348653E+02  0.27479907647E+03  0.32872789941E+03  0.17189750783E+03 0.  0.
        -24    2    3    3    0    0  0.39772260582E+02  0.31264357937E+02  0.10360274738E+03  0.14048575074E+03  0.80270941870E+02 0.  0.
          6    2    1    2  501    0 -0.29428375019E+02  0.46181348653E+02  0.78853887054E+03  0.80905727133E+03  0.17257280120E+03 0.  0.
         24    2    5    5    0    0 -0.58323080691E+02  0.82932408594E+02  0.62780143301E+03  0.64159337000E+03  0.85017921680E+02 0.  0.
          5    1    5    5  501    0  0.28894705673E+02 -0.36751059941E+02  0.16073743753E+03  0.16746390133E+03  0.47000000000E+01 0. -1.
        -11    1    6    6    0    0 -0.18839018933E+02  0.32759090156E+02  0.65037566102E+02  0.75219356729E+02  0.00000000000E+00 0.  1.
         12    1    6    6    0    0 -0.39484061758E+02  0.50173318438E+02  0.56276386691E+03  0.56637401327E+03  0.00000000000E+00 0. -1.
         -5    1    3    3    0  503 -0.10343885564E+02 -0.77445706590E+02  0.17119632909E+03  0.18824214866E+03  0.47000000000E+01 0.  1.
         11    1    4    4    0    0 -0.25288780318E+01  0.17991147070E+02  0.93190267431E+02  0.94944734139E+02  0.00000000000E+00 0. -1.
        -12    1    4    4    0    0  0.42301138614E+02  0.13273210867E+02  0.10412479949E+02  0.45541016605E+02  0.00000000000E+00 0.  1.
</event>
<event>
12    1  0.8416569E-002  0.1915691E+03  0.7818608E-02  0.1157260E+00
         21   -1    0    0  501  502  0.00000000000E+00  0.00000000000E+00  0.35698294339E+03  0.35698294339E+03  0.00000000000E+00 0. -1.
         21   -1    0    0  502  503 -0.00000000000E+00 -0.00000000000E+00 -0.11269476983E+03  0.11269476983E+03  0.00000000000E+00 0. -1.
         -6    2    1    2    0  503 -0.82607826144E+02  0.93105090214E+00  0.19371092469E+03  0.27243836127E+03  0.17284044248E+03 0.  0.
        -24    2    3    3    0    0 -0.47783688180E+02  0.66642274433E+01  0.21229659601E+03  0.23227485699E+03  0.80957221583E+02 0.  0.
          6    2    1    2  501    0  0.82607826144E+02 -0.93105090214E+00  0.50577248869E+02  0.19723935195E+03  0.17181497041E+03 0.  0.
         24    2    5    5    0    0  0.49936568433E+02  0.31267631209E+02  0.92217629020E+02  0.13510902546E+03  0.79240343457E+02 0.  0.
          5    1    5    5  501    0  0.32671257711E+02 -0.32198682111E+02 -0.41640380150E+02  0.62130326485E+02  0.47000000000E+01 0. -1.
        -11    1    6    6    0    0  0.24365174012E+02 -0.22183946526E+02  0.57941746733E+02  0.66656096515E+02  0.00000000000E+00 0.  1.
         12    1    6    6    0    0  0.25571394421E+02  0.53451577735E+02  0.34275882287E+02  0.68452928948E+02  0.00000000000E+00 0. -1.
         -5    1    3    3    0  503 -0.34824137963E+02 -0.57331765411E+01 -0.18585671325E+02  0.40163504289E+02  0.47000000000E+01 0.  1.
         13    1    4    4    0    0 -0.35015824713E+02  0.42909533748E+02  0.13607376992E+03  0.14691292294E+03  0.00000000000E+00 0. -1.
        -14    1    4    4    0    0 -0.12767863467E+02 -0.36245306305E+02  0.76222826093E+02  0.85361934047E+02  0.00000000000E+00 0.  1.
</event>
<event>
12    1  0.8416569E-002  0.1749846E+03  0.7818608E-02  0.1173020E+00
         21   -1    0    0  503  502  0.00000000000E+00  0.00000000000E+00  0.47140874061E+02  0.47140874061E+02  0.00000000000E+00 0. -1.
         21   -1    0    0  501  503 -0.00000000000E+00 -0.00000000000E+00 -0.11291507438E+04  0.11291507438E+04  0.00000000000E+00 0. -1.
          6    2    1    2  501    0  0.28292748726E+02  0.16662063984E+02 -0.92496023677E+03  0.94116571192E+03  0.17077281306E+03 0.  0.
         24    2    3    3    0    0  0.45556882929E+01  0.75236079388E+02 -0.59755540466E+03  0.60768351239E+03  0.80780985678E+02 0.  0.
         -6    2    1    2    0  502 -0.28292748726E+02 -0.16662063984E+02 -0.15704963292E+03  0.23512590590E+03  0.17187641029E+03 0.  0.
        -24    2    5    5    0    0 -0.22616575391E+01 -0.74913223544E+02 -0.85711230550E+02  0.13930277220E+03  0.80260458153E+02 0.  0.
          5    1    3    3  501    0  0.23737060433E+02 -0.58574015404E+02 -0.32740483210E+03  0.33348219953E+03  0.47000000000E+01 0. -1.
        -11    1    4    4    0    0  0.12033138158E+02 -0.14235106269E+01 -0.11894552481E+02  0.16979492783E+02  0.00000000000E+00 0.  1.
         12    1    4    4    0    0 -0.74774498650E+01  0.76659590015E+02 -0.58566085218E+03  0.59070401961E+03  0.00000000000E+00 0. -1.
         -5    1    5    5    0  502 -0.26031091187E+02  0.58251159560E+02 -0.71338402373E+02  0.95823133698E+02  0.47000000000E+01 0.  1.
         11    1    6    6    0    0  0.33430317218E+02 -0.38568036544E+02 -0.68725685881E+02  0.85605487277E+02  0.00000000000E+00 0. -1.
        -12    1    6    6    0    0 -0.35691974757E+02 -0.36345187000E+02 -0.16985544669E+02  0.53697284921E+02  0.00000000000E+00 0.  1.
</event>
<event>
12    1  0.8416569E-002  0.1739968E+03  0.7818608E-02  0.1173909E+00
         21   -1    0    0  503  502  0.00000000000E+00  0.00000000000E+00  0.57758015126E+03  0.57758015126E+03  0.00000000000E+00 0.  1.
         21   -1    0    0  501  503 -0.00000000000E+00 -0.00000000000E+00 -0.25498471940E+03  0.25498471940E+03  0.00000000000E+00 0.  1.
          6    2    1    2  501    0 -0.59004174079E+01  0.19713006664E+02 -0.20985650115E+03  0.27260713483E+03  0.17277581233E+03 0.  0.
         24    2    3    3    0    0 -0.26672274411E+02  0.68696074286E+02 -0.88037731980E+02  0.13959317511E+03  0.79404354048E+02 0.  0.
         -6    2    1    2    0  502  0.59004174079E+01 -0.19713006664E+02  0.53245193302E+03  0.55995773582E+03  0.17211678412E+03 0.  0.
        -24    2    5    5    0    0 -0.11026078958E+02 -0.57655639851E+01  0.11015522351E+03  0.13706574217E+03  0.80610348371E+02 0.  0.
          5    1    3    3  501    0  0.20771857003E+02 -0.48983067622E+02 -0.12181876917E+03  0.13301395972E+03  0.47000000000E+01 0. -1.
        -11    1    4    4    0    0 -0.72082886355E+01 -0.12304338266E+02 -0.42123910448E+02  0.44472238494E+02  0.00000000000E+00 0.  1.
         12    1    4    4    0    0 -0.19463985775E+02  0.81000412552E+02 -0.45913821532E+02  0.95120936621E+02  0.00000000000E+00 0. -1.
         -5    1    5    5    0  502  0.16926496366E+02 -0.13947442679E+02  0.42229670950E+03  0.42289199365E+03  0.47000000000E+01 0.  1.
         13    1    6    6    0    0 -0.25460015556E+02  0.29888098468E+02  0.76365866116E+02  0.85867667546E+02  0.00000000000E+00 0. -1.
        -14    1    6    6    0    0  0.14433936598E+02 -0.35653662453E+02  0.33789357398E+02  0.51198074626E+02  0.00000000000E+00 0.  1.
</event>
<event>
12    1  0.8416569E-002  0.2722782E+03  0.7818608E-02  0.1100092E+00
         21   -1    0    0  503  502  0.00000000000E+00  0.00000000000E+00  0.38547719347E+03  0.38547719347E+03  0.00000000000E+00 0. -1.
         21   -1    0    0  501  503 -0.00000000000E+00 -0.00000000000E+00 -0.20451833400E+03  0.20451833400E+03  0.00000000000E+00 0.  1.
          6    2    1    2  501    0  0.13359500871E+03 -0.16182597752E+03  0.16964824966E+02  0.27280623351E+03  0.17349398378E+03 0.  0.
         24    2    3    3    0    0  0.11959781065E+03 -0.12551464950E+03 -0.48537113660E+02  0.19647126080E+03  0.78660926555E+02 0.  0.
         -6    2    1    2    0  502 -0.13359500871E+03  0.16182597752E+03  0.16399403451E+03  0.31718929395E+03  0.17227806445E+03 0.  0.
        -24    2    5    5    0    0 -0.13615104382E+03  0.93075302759E+02  0.60004889311E+02  0.19241341121E+03  0.78881020242E+02 0.  0.
          5    1    3    3  501    0  0.13997198059E+02 -0.36311328017E+02  0.65501938626E+02  0.76334972716E+02  0.47000000000E+01 0. -1.
        -11    1    4    4    0    0  0.32472910398E+02 -0.13547683817E+02 -0.41524526590E+02  0.54427161923E+02  0.00000000000E+00 0.  1.
         12    1    4    4    0    0  0.87124900251E+02 -0.11196696568E+03 -0.70125870702E+01  0.14204409888E+03  0.00000000000E+00 0. -1.
         -5    1    5    5    0  502  0.25560351155E+01  0.68750674757E+02  0.10398914520E+03  0.12477588274E+03  0.47000000000E+01 0.  1.
         13    1    6    6    0    0 -0.86201612830E+00  0.34368510948E+02  0.19279224653E+02  0.39416064236E+02  0.00000000000E+00 0. -1.
        -14    1    6    6    0    0 -0.13528902769E+03  0.58706791811E+02  0.40725664658E+02  0.15299734697E+03  0.00000000000E+00 0.  1.
</event>
<event>
12    1  0.8416569E-002  0.2320413E+03  0.7818608E-02  0.1125331E+00
         21   -1    0    0  503  502  0.00000000000E+00  0.00000000000E+00  0.25169470975E+03  0.25169470975E+03  0.00000000000E+00 0.  1.
         21   -1    0    0  501  503 -0.00000000000E+00 -0.00000000000E+00 -0.36785605890E+03  0.36785605890E+03  0.00000000000E+00 0. -1.
          6    2    1    2  501    0  0.13652861965E+03  0.74834603724E+02 -0.25893118808E+03  0.34769024010E+03  0.17205481976E+03 0.  0.
         24    2    3    3    0    0  0.21725302823E+02 -0.14657110826E+01 -0.13379290485E+03  0.16145592660E+03  0.87711673998E+02 0.  0.
         -6    2    1    2    0  502 -0.13652861965E+03 -0.74834603724E+02  0.14276983893E+03  0.27186052855E+03  0.17112754945E+03 0.  0.
        -24    2    5    5    0    0 -0.99830423415E+02 -0.18492012874E+02  0.19961886754E+02  0.13177081348E+03  0.81590455227E+02 0.  0.
          5    1    3    3  501    0  0.11480331683E+03  0.76300314806E+02 -0.12513828323E+03  0.18623431350E+03  0.47000000000E+01 0. -1.
        -13    1    4    4    0    0 -0.14130216336E+02  0.33320873017E+02 -0.81290663290E+02  0.88983793639E+02  0.00000000000E+00 0.  1.
         14    1    4    4    0    0  0.35855519160E+02 -0.34786584100E+02 -0.52502241559E+02  0.72472132963E+02  0.00000000000E+00 0. -1.
         -5    1    5    5    0  502 -0.36698196234E+02 -0.56342590850E+02  0.12280795217E+03  0.14008971507E+03  0.47000000000E+01 0.  1.
         11    1    6    6    0    0 -0.78921985853E+02 -0.15135053328E+02  0.50276933766E+02  0.94791981513E+02  0.00000000000E+00 0. -1.
        -12    1    6    6    0    0 -0.20908437561E+02 -0.33569595459E+01 -0.30315047011E+02  0.36978831971E+02  0.00000000000E+00 0.  1.
</event>
<event>
12    1  0.8416569E-002  0.1934508E+03  0.7818608E-02  0.1155492E+00
         21   -1    0    0  503  502  0.00000000000E+00  0.00000000000E+00  0.16733567486E+03  0.16733567486E+03  0.00000000000E+00 0.  1.
         21   -1    0    0  501  503 -0.00000000000E+00 -0.00000000000E+00 -0.29264810256E+03  0.29264810256E+03  0.00000000000E+00 0.  1.
          6    2    1    2  501    0 -0.89849448054E+02  0.67356656661E+01 -0.17473010956E+03  0.26032077834E+03  0.17063998342E+03 0.  0.
         24    2    3    3    0    0 -0.35911280138E+02 -0.59732511162E+02 -0.11491763452E+03  0.15578864615E+03  0.78781004154E+02 0.  0.
         -6    2    1    2    0  502  0.89849448054E+02 -0.67356656661E+01  0.49417681862E+02  0.19966299909E+03  0.17118677933E+03 0.  0.
        -24    2    5    5    0    0  0.81490372448E+02  0.50956937597E+02 -0.25801355849E+00  0.12292920385E+03  0.76643540473E+02 0.  0.
          5    1    3    3  501    0 -0.53938167916E+02  0.66468176828E+02 -0.59812475036E+02  0.10453213218E+03  0.47000000000E+01 0. -1.
        -13    1    4    4    0    0 -0.74062429444E+01 -0.88759315368E+01 -0.92669048800E+02  0.93387296785E+02  0.00000000000E+00 0.  1.
         14    1    4    4    0    0 -0.28505037193E+02 -0.50856579625E+02 -0.22248585723E+02  0.62401349370E+02  0.00000000000E+00 0. -1.
         -5    1    5    5    0  502  0.83590756057E+01 -0.57692603263E+02  0.49675695421E+02  0.76733795239E+02  0.47000000000E+01 0.  1.
         13    1    6    6    0    0  0.50323317721E+02  0.60194344499E+02  0.24358539086E+02  0.82153112191E+02  0.00000000000E+00 0. -1.
        -14    1    6    6    0    0  0.31167054727E+02 -0.92374069017E+01 -0.24616552645E+02  0.40776091656E+02  0.00000000000E+00 0.  1.
</event>
<event>
12    1  0.8416569E-002  0.2403090E+03  0.7818608E-02  0.1119706E+00
         21   -1    0    0  503  502  0.00000000000E+00  0.00000000000E+00  0.13411368234E+03  0.13411368234E+03  0.00000000000E+00 0. -1.
         21   -1    0    0  501  503 -0.00000000000E+00 -0.00000000000E+00 -0.67602575545E+03  0.67602575545E+03  0.00000000000E+00 0.  1.
          6    2    1    2  501    0 -0.16372476467E+03  0.35507880113E+02 -0.51591961748E+03  0.56914097659E+03  0.17228404284E+03 0.  0.
         24    2    3    3    0    0 -0.88840863529E+02  0.75439170359E+02 -0.22749894286E+03  0.26845728541E+03  0.82035221905E+02 0.  0.
         -6    2    1    2    0  502  0.16372476467E+03 -0.35507880113E+02 -0.25992455641E+02  0.24099846121E+03  0.17128351478E+03 0.  0.
        -24    2    5    5    0    0  0.82137583180E+02  0.11545840470E+02  0.44040056067E+02  0.12353713353E+03  0.80262119450E+02 0.  0.
          5    1    3    3  501    0 -0.74883901144E+02 -0.39931290246E+02 -0.28842067462E+03  0.30068369117E+03  0.47000000000E+01 0. -1.
        -13    1    4    4    0    0 -0.18385043254E+02  0.71231957976E+01 -0.12502444344E+03  0.12656959031E+03  0.00000000000E+00 0.  1.
         14    1    4    4    0    0 -0.70455820274E+02  0.68315974561E+02 -0.10247449942E+03  0.14188769511E+03  0.00000000000E+00 0. -1.
         -5    1    5    5    0  502  0.81587181493E+02 -0.47053720583E+02 -0.70032511707E+02  0.11746132768E+03  0.47000000000E+01 0.  1.
         11    1    6    6    0    0  0.17652050107E+01 -0.25678703274E+02  0.29883549153E+01  0.25912198202E+02  0.00000000000E+00 0. -1.
        -12    1    6    6    0    0  0.80372378169E+02  0.37224543744E+02  0.41051701151E+02  0.97624935323E+02  0.00000000000E+00 0.  1.
</event>
<event>
12    1  0.8416569E-002  0.1858823E+03  0.7818608E-02  0.1162794E+00
         21   -1    0    0  503  502  0.00000000000E+00  0.00000000000E+00  0.55696633934E+03  0.55696633934E+03  0.00000000000E+00 0. -1.
         21   -1    0    0  501  503 -0.00000000000E+00 -0.00000000000E+00 -0.61918572084E+02  0.61918572084E+02  0.00000000000E+00 0. -1.
          6    2    1    2  501    0 -0.19479009961E+02  0.60589024661E+02  0.27851206569E+03  0.33350807823E+03  0.17207035122E+03 0.  0.
         24    2    3    3    0    0 -0.58028961685E+02  0.30242666768E+02  0.26133698593E+03  0.28131541993E+03  0.80989912896E+02 0.  0.
         -6    2    1    2    0  502  0.19479009961E+02 -0.60589024661E+02  0.21653570156E+03  0.28537683319E+03  0.17464754545E+03 0.  0.
        -24    2    5    5    0    0  0.65046249476E+02 -0.40634013861E+02  0.20606301482E+03  0.23432447829E+03  0.81017636327E+02 0.  0.
          5    1    3    3  501    0  0.38549951724E+02  0.30346357893E+02  0.17175079766E+02  0.52192658298E+02  0.47000000000E+01 0. -1.
        -13    1    4    4    0    0 -0.13453383577E+02 -0.13328442000E+02  0.82350073813E+01  0.20650816991E+02  0.00000000000E+00 0.  1.
         14    1    4    4    0    0 -0.44575578108E+02  0.43571108768E+02  0.25310197854E+03  0.26066460294E+03  0.00000000000E+00 0. -1.
         -5    1    5    5    0  502 -0.45567239515E+02 -0.19955010800E+02  0.10472686737E+02  0.51052354897E+02  0.47000000000E+01 0.  1.
         11    1    6    6    0    0  0.28626018786E+01 -0.48096677496E+02  0.76329556032E+02  0.90264533454E+02  0.00000000000E+00 0. -1.
        -12    1    6    6    0    0  0.62183647597E+02  0.74626636354E+01  0.12973345879E+03  0.14405994484E+03  0.00000000000E+00 0.  1.
</event>
<event>
12    1  0.8416569E-002  0.2011375E+03  0.7818608E-02  0.1148923E+00
         21   -1    0    0  501  502  0.00000000000E+00  0.00000000000E+00  0.20970856295E+03  0.20970856295E+03  0.00000000000E+00 0. -1.
         21   -1    0    0  502  503 -0.00000000000E+00 -0.00000000000E+00 -0.22030320658E+03  0.22030320658E+03  0.00000000000E+00 0. -1.
         -6    2    1    2    0  503  0.40537503271E+02 -0.95149203958E+02 -0.81976515039E+02  0.21658338298E+03  0.17173104722E+03 0.  0.
        -24    2    3    3    0    0 -0.35064459048E+02 -0.68287736413E+02 -0.19061470229E+02  0.11451679683E+03  0.82813198682E+02 0.  0.
          6    2    1    2  501    0 -0.40537503271E+02  0.95149203958E+02  0.71381871407E+02  0.21342838654E+03  0.17250983865E+03 0.  0.
         24    2    5    5    0    0  0.30213666899E+02  0.81541713548E+02  0.95183091034E+01  0.11834903959E+03  0.79711857642E+02 0.  0.
          5    1    5    5  501    0 -0.70751170171E+02  0.13607490409E+02  0.61863562303E+02  0.95079346951E+02  0.47000000000E+01 0. -1.
        -13    1    6    6    0    0  0.44086796601E+02  0.16151944943E+02  0.19352364934E+02  0.50784298641E+02  0.00000000000E+00 0.  1.
         14    1    6    6    0    0 -0.13873129701E+02  0.65389768605E+02 -0.98340558303E+01  0.67564740953E+02  0.00000000000E+00 0. -1.
         -5    1    3    3    0  503  0.75601962319E+02 -0.26861467545E+02 -0.62915044810E+02  0.10206658615E+03  0.47000000000E+01 0.  1.
         13    1    4    4    0    0 -0.15765955871E+02 -0.85521150755E+02 -0.16537869645E+02  0.88520809550E+02  0.00000000000E+00 0. -1.
        -14    1    4    4    0    0 -0.19298503177E+02  0.17233414342E+02 -0.25236005842E+01  0.25995987280E+02  0.00000000000E+00 0.  1.
</event>
<event>
12    1  0.8416569E-002  0.2143863E+03  0.7818608E-02  0.1138236E+00
         21   -1    0    0  501  502  0.00000000000E+00  0.00000000000E+00  0.29238856641E+02  0.29238856641E+02  0.00000000000E+00 0.  1.
         21   -1    0    0  502  503 -0.00000000000E+00 -0.00000000000E+00 -0.15693791877E+04  0.15693791877E+04  0.00000000000E+00 0. -1.
         -6    2    1    2    0  503  0.97102676094E+02 -0.85750006519E+02 -0.79254592124E+03  0.82103015697E+03  0.17082004581E+03 0.  0.
        -24    2    3    3    0    0  0.25997553339E+02 -0.24602308155E+02 -0.59531499932E+03  0.60258770217E+03  0.86202343592E+02 0.  0.
          6    2    1    2  501    0 -0.97102676094E+02  0.85750006519E+02 -0.74759440984E+03  0.77758788740E+03  0.17018674355E+03 0.  0.
         24    2    5    5    0    0 -0.10931000107E+03  0.59840187242E+02 -0.38371508646E+03  0.41255283497E+03  0.86215136256E+02 0.  0.
          5    1    5    5  501    0  0.12207324979E+02  0.25909819276E+02 -0.36387932338E+03  0.36503505243E+03  0.47000000000E+01 0. -1.
        -11    1    6    6    0    0 -0.56000633281E+02  0.52702169373E+02 -0.11390042503E+03  0.13742960528E+03  0.00000000000E+00 0.  1.
         12    1    6    6    0    0 -0.53309367792E+02  0.71380178691E+01 -0.26981466143E+03  0.27512322969E+03  0.00000000000E+00 0. -1.
         -5    1    3    3    0  503  0.71105122755E+02 -0.61147698364E+02 -0.19723092192E+03  0.21844245480E+03  0.47000000000E+01 0.  1.
         13    1    4    4    0    0  0.46848969707E+02 -0.29658815343E+02 -0.54598959685E+03  0.54879787823E+03  0.00000000000E+00 0. -1.
        -14    1    4    4    0    0 -0.20851416368E+02  0.50565071880E+01 -0.49325402476E+02  0.53789823935E+02  0.00000000000E+00 0.  1.
</event>
<event>
12    1  0.8416569E-002  0.2085207E+03  0.7818608E-02  0.1143353E+00
         21   -1    0    0  501  502  0.00000000000E+00  0.00000000000E+00  0.27900376806E+03  0.27900376806E+03  0.00000000000E+00 0. -1.
         21   -1    0    0  502  503 -0.00000000000E+00 -0.00000000000E+00 -0.19633182203E+03  0.19633182203E+03  0.00000000000E+00 0. -1.
         -6    2    1    2    0  503  0.10168815046E+03  0.48237047868E+02 -0.69322625764E+02  0.21974195038E+03  0.17553804597E+03 0.  0.
        -24    2    3    3    0    0  0.11720450355E+03  0.49698460621E+02 -0.10272323029E+03  0.18258574870E+03  0.81108944932E+02 0.  0.
          6    2    1    2  501    0 -0.10168815046E+03 -0.48237047868E+02  0.15199457179E+03  0.25559363972E+03  0.17192575746E+03 0.  0.
         24    2    5    5    0    0 -0.13646737132E+02  0.30188256619E+02  0.75923761231E+02  0.11519892093E+03  0.80055041013E+02 0.  0.
          5    1    5    5  501    0 -0.88041413323E+02 -0.78425304486E+02  0.76070810563E+02  0.14039471879E+03  0.47000000000E+01 0. -1.
        -11    1    6    6    0    0 -0.44367558208E+02  0.16677257005E+02  0.23378161280E+02  0.52850255888E+02  0.00000000000E+00 0.  1.
         12    1    6    6    0    0  0.30720821076E+02  0.13510999614E+02  0.52545599951E+02  0.62348665041E+02  0.00000000000E+00 0. -1.
         -5    1    3    3    0  503 -0.15516353090E+02 -0.14614127528E+01  0.33400604526E+02  0.37156201678E+02  0.47000000000E+01 0.  1.
         13    1    4    4    0    0  0.41238236314E+02  0.51428846748E+02 -0.79194789281E+02  0.10304044381E+03  0.00000000000E+00 0. -1.
        -14    1    4    4    0    0  0.75966267232E+02 -0.17303861269E+01 -0.23528441010E+02  0.79545304887E+02  0.00000000000E+00 0.  1.
</event>
<event>
12    1  0.8416569E-002  0.2843513E+03  0.7818608E-02  0.1093481E+00
         21   -1    0    0  503  502  0.00000000000E+00  0.00000000000E+00  0.33926960021E+03  0.33926960021E+03  0.00000000000E+00 0. -1.
         21   -1    0    0  501  503 -0.00000000000E+00 -0.00000000000E+00 -0.24244352240E+03  0.24244352240E+03  0.00000000000E+00 0.  1.
          6    2    1    2  501    0 -0.15140159000E+03 -0.16715091479E+03  0.90394317918E+02  0.29837353652E+03  0.17318708038E+03 0.  0.
         24    2    3    3    0    0 -0.25888817276E+02 -0.12387228598E+03  0.51957303335E+02  0.16007679064E+03  0.83129076973E+02 0.  0.
         -6    2    1    2    0  502  0.15140159000E+03  0.16715091479E+03  0.64317598955E+01  0.28333958609E+03  0.17140036097E+03 0.  0.
        -24    2    5    5    0    0  0.59704535673E+02  0.10724537956E+03  0.63820993031E+02  0.15959534581E+03  0.79569794737E+02 0.  0.
          5    1    3    3  501    0 -0.12551277273E+03 -0.43278628809E+02  0.38437014583E+02  0.13829674588E+03  0.47000000000E+01 0. -1.
        -13    1    4    4    0    0  0.11252935469E+02 -0.56920553163E+02 -0.13241204118E+02  0.59513926232E+02  0.00000000000E+00 0.  1.
         14    1    4    4    0    0 -0.37141752745E+02 -0.66951732815E+02  0.65198507453E+02  0.10056286441E+03  0.00000000000E+00 0. -1.
         -5    1    5    5    0  502  0.91697054332E+02  0.59905535227E+02 -0.57389233136E+02  0.12374424029E+03  0.47000000000E+01 0.  1.
         11    1    6    6    0    0 -0.67931185185E+01  0.18210209259E+02  0.42093827563E+02  0.46364301994E+02  0.00000000000E+00 0. -1.
        -12    1    6    6    0    0  0.66497654192E+02  0.89035170301E+02  0.21727165468E+02  0.11323104381E+03  0.00000000000E+00 0.  1.
</event>
<event>
12    1  0.8416569E-002  0.1850778E+03  0.7818608E-02  0.1163338E+00
         21   -1    0    0  503  502  0.00000000000E+00  0.00000000000E+00  0.21906258678E+03  0.21906258678E+03  0.00000000000E+00 0. -1.
         21   -1    0    0  501  503 -0.00000000000E+00 -0.00000000000E+00 -0.15513923263E+03  0.15513923263E+03  0.00000000000E+00 0. -1.
          6    2    1    2  501    0  0.90420506196E+01 -0.63744649217E+02  0.27795820605E+02  0.18563095079E+03  0.17187525495E+03 0.  0.
         24    2    3    3    0    0 -0.46920054775E+01 -0.10903879121E+03  0.40240073314E+02  0.13646660373E+03  0.71361036502E+02 0.  0.
         -6    2    1    2    0  502 -0.90420506196E+01  0.63744649217E+02  0.36127533542E+02  0.18857086862E+03  0.17351839911E+03 0.  0.
        -24    2    5    5    0    0 -0.59548637495E+02  0.28456675691E+02 -0.19546088042E+02  0.10539756441E+03  0.79817131039E+02 0.  0.
          5    1    3    3  501    0  0.13734056097E+02  0.45294141992E+02 -0.12444252708E+02  0.49164347053E+02  0.47000000000E+01 0. -1.
        -11    1    4    4    0    0 -0.20093094531E+02 -0.82777499112E+02  0.56241593175E+02  0.10207332467E+03  0.00000000000E+00 0.  1.
         12    1    4    4    0    0  0.15401089054E+02 -0.26261292098E+02 -0.16001519861E+02  0.34393279061E+02  0.00000000000E+00 0. -1.
         -5    1    5    5    0  502  0.50506586876E+02  0.35287973526E+02  0.55673621585E+02  0.83173304213E+02  0.47000000000E+01 0.  1.
         13    1    6    6    0    0 -0.15523130994E+02 -0.18801162852E+02 -0.31376157492E+02  0.39735558124E+02  0.00000000000E+00 0. -1.
        -14    1    6    6    0    0 -0.44025506501E+02  0.47257838544E+02  0.11830069450E+02  0.65662006288E+02  0.00000000000E+00 0.  1.
</event>
<event>
12    1  0.8416569E-002  0.2707397E+03  0.7818608E-02  0.1102149E+00
         21   -1    0    0  501  502  0.00000000000E+00  0.00000000000E+00  0.25268782104E+03  0.25268782104E+03  0.00000000000E+00 0.  1.
         21   -1    0    0  502  503 -0.00000000000E+00 -0.00000000000E+00 -0.35873555202E+03  0.35873555202E+03  0.00000000000E+00 0. -1.
         -6    2    1    2    0  503 -0.50716761339E+02 -0.20024877749E+03 -0.19496849163E+03  0.32645511103E+03  0.16089892486E+03 0.  0.
        -24    2    3    3    0    0  0.63721673908E+01 -0.54463390182E+02 -0.34096777752E+02  0.10192376965E+03  0.78860631364E+02 0.  0.
          6    2    1    2  501    0  0.50716761339E+02  0.20024877749E+03  0.88920760653E+02  0.28496826203E+03  0.17500927381E+03 0.  0.
         24    2    5    5    0    0  0.30779442841E+02  0.22514777148E+02  0.69014993277E+02  0.10495381505E+03  0.69267197894E+02 0.  0.
          5    1    5    5  501    0  0.19937318498E+02  0.17773400034E+03  0.19905767376E+02  0.18001444698E+03  0.47000000000E+01 0. -1.
        -13    1    6    6    0    0  0.18638119070E+02  0.95807611318E+01  0.80920016894E+02  0.83589590264E+02  0.00000000000E+00 0.  1.
         14    1    6    6    0    0  0.12141323771E+02  0.12934016016E+02 -0.11905023617E+02  0.21364224782E+02  0.00000000000E+00 0. -1.
         -5    1    3    3    0  503 -0.57088928729E+02 -0.14578538731E+03 -0.16087171388E+03  0.22453134138E+03  0.47000000000E+01 0.  1.
         11    1    4    4    0    0 -0.30444011239E+02 -0.57291159463E+01  0.18846470028E+01  0.31035664712E+02  0.00000000000E+00 0. -1.
        -12    1    4    4    0    0  0.36816178629E+02 -0.48734274236E+02 -0.35981424755E+02  0.70888104937E+02  0.00000000000E+00 0.  1.
</event>
<event>
12    1  0.8416569E-002  0.2073022E+03  0.7818608E-02  0.1143855E+00
         21   -1    0    0  503  502  0.00000000000E+00  0.00000000000E+00  0.14374194078E+04  0.14374194078E+04  0.00000000000E+00 0.  1.
         21   -1    0    0  501  503 -0.00000000000E+00 -0.00000000000E+00 -0.75715443662E+02  0.75715443662E+02  0.00000000000E+00 0. -1.
          6    2    1    2  501    0  0.10763471607E+02 -0.11327307676E+03  0.92126593785E+02  0.22685133725E+03  0.17328467240E+03 0.  0.
         24    2    3    3    0    0 -0.61427557240E+02 -0.74812915098E+02  0.51846600311E+02  0.13555349195E+03  0.79475544429E+02 0.  0.
         -6    2    1    2    0  502 -0.10763471607E+02  0.11327307676E+03  0.12695773704E+04  0.12862835142E+04  0.17248749923E+03 0.  0.
        -24    2    5    5    0    0 -0.63634783732E+02  0.10680484618E+03  0.78463124523E+03  0.79839823269E+03  0.79604560879E+02 0.  0.
          5    1    3    3  501    0  0.72191028847E+02 -0.38460161665E+02  0.40279993474E+02  0.91297845296E+02  0.47000000000E+01 0. -1.
        -11    1    4    4    0    0 -0.17084371593E+02  0.16463169201E+02  0.11234978367E+02  0.26251408187E+02  0.00000000000E+00 0.  1.
         12    1    4    4    0    0 -0.44343185648E+02 -0.91276084299E+02  0.40611621944E+02  0.10930208376E+03  0.00000000000E+00 0. -1.
         -5    1    5    5    0  502  0.52871312125E+02  0.64682305863E+01  0.48494612514E+03  0.48788528153E+03  0.47000000000E+01 0.  1.
         13    1    6    6    0    0 -0.16664120016E+02  0.97240433698E+02  0.48187801615E+03  0.49187378187E+03  0.00000000000E+00 0. -1.
        -14    1    6    6    0    0 -0.46970663716E+02  0.95644124779E+01  0.30275322907E+03  0.30652445082E+03  0.00000000000E+00 0.  1.
</event>
<event>
12    1  0.8416569E-002  0.1766165E+03  0.7818608E-02  0.1171254E+00
         21   -1    0    0  503  502  0.00000000000E+00  0.00000000000E+00  0.22393731271E+03  0.22393731271E+03  0.00000000000E+00 0. -1.
         21   -1    0    0  501  503 -0.00000000000E+00 -0.00000000000E+00 -0.15854502404E+03  0.15854502404E+03  0.00000000000E+00 0. -1.
          6    2    1    2  501    0  0.35525340215E+02  0.10800371460E+02 -0.34725126171E+02  0.17946295281E+03  0.17211164756E+03 0.  0.
         24    2    3    3    0    0  0.71415856669E+02 -0.27179305029E+02 -0.54280672244E+02  0.12347103929E+03  0.80372675451E+02 0.  0.
         -6    2    1    2    0  502 -0.35525340215E+02 -0.10800371460E+02  0.10011741484E+03  0.20301938393E+03  0.17266926674E+03 0.  0.
        -24    2    5    5    0    0  0.33207485814E+02 -0.78399503296E+01  0.10133394265E+03  0.13405174364E+03  0.80852335186E+02 0.  0.
          5    1    3    3  501    0 -0.35890516455E+02  0.37979676489E+02  0.19555546073E+02  0.55991913522E+02  0.47000000000E+01 0. -1.
        -13    1    4    4    0    0  0.24375859815E+02 -0.12992574944E+02  0.20216895570E+02  0.34230285011E+02  0.00000000000E+00 0.  1.
         14    1    4    4    0    0  0.47039996854E+02 -0.14186730085E+02 -0.74497567815E+02  0.89240754282E+02  0.00000000000E+00 0. -1.
         -5    1    5    5    0  502 -0.68732826028E+02 -0.29604211304E+01 -0.12165278097E+01  0.68967640289E+02  0.47000000000E+01 0.  1.
         11    1    6    6    0    0  0.23605981058E+02 -0.42029675223E+02  0.37767769931E+02  0.61238389811E+02  0.00000000000E+00 0. -1.
        -12    1    6    6    0    0  0.96015047557E+01  0.34189724894E+02  0.63566172721E+02  0.72813353832E+02  0.00000000000E+00 0.  1.
</event>
<event>
12    1  0.8416569E-002  0.2284199E+03  0.7818608E-02  0.1130775E+00
         21   -1    0    0  503  502  0.00000000000E+00  0.00000000000E+00  0.30126051164E+03  0.30126051164E+03  0.00000000000E+00 0.  1.
         21   -1    0    0  501  503 -0.00000000000E+00 -0.00000000000E+00 -0.26313881813E+03  0.26313881813E+03  0.00000000000E+00 0. -1.
          6    2    1    2  501    0 -0.43933425826E+02  0.11739495212E+03 -0.15622872057E+03  0.27673643140E+03  0.19095527917E+03 0.  0.
         24    2    3    3    0    0 -0.68916805612E+02  0.12101735238E+02 -0.31092336368E+02  0.11123103741E+03  0.80682291807E+02 0.  0.
         -6    2    1    2    0  502  0.43933425826E+02 -0.11739495212E+03  0.19435041408E+03  0.28766289838E+03  0.17107348995E+03 0.  0.
        -24    2    5    5    0    0  0.40534603092E+02  0.46311258833E+01  0.94692055076E+02  0.13000569357E+03  0.79185817487E+02 0.  0.
          5    1    3    3  501    0  0.24983379787E+02  0.10529321689E+03 -0.12513638420E+03  0.16550539398E+03  0.47000000000E+01 0. -1.
        -11    1    4    4    0    0 -0.51756177417E+01  0.29919103413E+01 -0.44968331207E+02  0.45363965414E+02  0.00000000000E+00 0.  1.
         12    1    4    4    0    0 -0.63741187871E+02  0.91098248964E+01  0.13875994839E+02  0.65867071998E+02  0.00000000000E+00 0. -1.
         -5    1    5    5    0  502  0.33988227338E+01 -0.12202607801E+03  0.99658359000E+02  0.15765720481E+03  0.47000000000E+01 0.  1.
         13    1    6    6    0    0 -0.23527820966E+02  0.39773730684E+00  0.36065965761E+02  0.43063562795E+02  0.00000000000E+00 0. -1.
        -14    1    6    6    0    0  0.64062424058E+02  0.42333885765E+01  0.58626089315E+02  0.86942130773E+02  0.00000000000E+00 0.  1.
</event>
<event>
12    1  0.8416569E-002  0.1745695E+03  0.7818608E-02  0.1173241E+00
         21   -1    0    0  501  502  0.00000000000E+00  0.00000000000E+00  0.13490029006E+03  0.13490029006E+03  0.00000000000E+00 0.  1.
         21   -1    0    0  502  503 -0.00000000000E+00 -0.00000000000E+00 -0.53619239123E+03  0.53619239123E+03  0.00000000000E+00 0.  1.
         -6    2    1    2    0  503  0.27937744131E+02 -0.63895943730E+01 -0.45598894784E+03  0.48815485530E+03  0.17189501955E+03 0.  0.
        -24    2    3    3    0    0 -0.50034962648E+02 -0.92959746831E+00 -0.27581153463E+03  0.29169736678E+03  0.80690702754E+02 0.  0.
          6    2    1    2  501    0 -0.27937744131E+02  0.63895943730E+01  0.54696846664E+02  0.18293782599E+03  0.17220092532E+03 0.  0.
         24    2    5    5    0    0 -0.52513638256E+02 -0.20331517798E+02 -0.23863725439E+02  0.96266920278E+02  0.74342381783E+02 0.  0.
          5    1    5    5  501    0  0.24575894125E+02  0.26721112171E+02  0.78560572102E+02  0.86670905711E+02  0.47000000000E+01 0. -1.
        -13    1    6    6    0    0 -0.49859828351E+02 -0.38543660208E+02  0.36935473945E+01  0.63128903981E+02  0.00000000000E+00 0.  1.
         14    1    6    6    0    0 -0.26538099050E+01  0.18212142409E+02 -0.27557272833E+02  0.33138016298E+02  0.00000000000E+00 0. -1.
         -5    1    3    3    0  503  0.77972706779E+02 -0.54599969047E+01 -0.18017741321E+03  0.19645748853E+03  0.47000000000E+01 0.  1.
         11    1    4    4    0    0 -0.39178625333E+02 -0.29526868690E+02 -0.82530720393E+02  0.96011043459E+02  0.00000000000E+00 0. -1.
        -12    1    4    4    0    0 -0.10856337315E+02  0.28597271222E+02 -0.19328081424E+03  0.19568632332E+03  0.00000000000E+00 0.  1.
</event>
<event>
12    1  0.8416569E-002  0.1942688E+03  0.7818608E-02  0.1156891E+00
         21   -1    0    0  501  502  0.00000000000E+00  0.00000000000E+00  0.10293978138E+03  0.10293978138E+03  0.00000000000E+00 0.  1.
         21   -1    0    0  502  503 -0.00000000000E+00 -0.00000000000E+00 -0.48686282378E+03  0.48686282378E+03  0.00000000000E+00 0. -1.
         -6    2    1    2    0  503 -0.65234665912E+02  0.63637652634E+02 -0.38212906213E+02  0.19799137829E+03  0.17156645129E+03 0.  0.
        -24    2    3    3    0    0 -0.79268048484E+02  0.85808086862E+02  0.10231794237E+02  0.14269722868E+03  0.81310258744E+02 0.  0.
          6    2    1    2  501    0  0.65234665912E+02 -0.63637652634E+02 -0.34571013619E+03  0.39181122686E+03  0.16029730740E+03 0.  0.
         24    2    5    5    0    0  0.98483496676E+02 -0.74862577165E+02 -0.25236028009E+03  0.29197251036E+03  0.79112775599E+02 0.  0.
          5    1    5    5  501    0 -0.33248830764E+02  0.11224924532E+02 -0.93349856096E+02  0.99838716493E+02  0.47000000000E+01 0. -1.
        -11    1    6    6    0    0  0.76872700535E+02 -0.91174769472E+02 -0.19567591052E+03  0.22915346961E+03  0.00000000000E+00 0.  1.
         12    1    6    6    0    0  0.21610796141E+02  0.16312192307E+02 -0.56684369574E+02  0.62819040758E+02  0.00000000000E+00 0. -1.
         -5    1    3    3    0  503  0.14033382572E+02 -0.22170434229E+02 -0.48444700450E+02  0.55294149618E+02  0.47000000000E+01 0.  1.
         11    1    4    4    0    0  0.48791670803E+01 -0.23601815468E+01  0.19718613548E+02  0.20449949843E+02  0.00000000000E+00 0. -1.
        -12    1    4    4    0    0 -0.84147215564E+02  0.88168268409E+02 -0.94868193102E+01  0.12224727883E+03  0.00000000000E+00 0.  1.
</event>
<event>
12    1  0.8416569E-002  0.2133513E+03  0.7818608E-02  0.1139229E+00
         21   -1    0    0  503  502  0.00000000000E+00  0.00000000000E+00  0.66611209820E+02  0.66611209820E+02  0.00000000000E+00 0.  1.
         21   -1    0    0  501  503 -0.00000000000E+00 -0.00000000000E+00 -0.10323562596E+04  0.10323562596E+04  0.00000000000E+00 0.  1.
          6    2    1    2  501    0  0.11714147420E+03  0.49431971125E+02 -0.80341939450E+03  0.83088465647E+03  0.16947254689E+03 0.  0.
         24    2    3    3    0    0  0.15432659446E+02  0.60116185466E+02 -0.29296691068E+03  0.31026707737E+03  0.81141393940E+02 0.  0.
         -6    2    1    2    0  502 -0.11714147420E+03 -0.49431971125E+02 -0.16232565525E+03  0.26808281292E+03  0.17132755612E+03 0.  0.
        -24    2    5    5    0    0 -0.86661612333E+02 -0.24663128595E+02 -0.22300552035E+02  0.12257804644E+03  0.80059714480E+02 0.  0.
          5    1    3    3  501    0  0.10170881475E+03 -0.10684214340E+02 -0.51045248381E+03  0.52061757910E+03  0.47000000000E+01 0. -1.
        -11    1    4    4    0    0  0.37908053111E+02  0.22094628637E+02 -0.22480021765E+03  0.22904220345E+03  0.00000000000E+00 0.  1.
         12    1    4    4    0    0 -0.22475393665E+02  0.38021556828E+02 -0.68166693032E+02  0.81224873918E+02  0.00000000000E+00 0. -1.
         -5    1    5    5    0  502 -0.30479861867E+02 -0.24768842530E+02 -0.14002510322E+03  0.14550476649E+03  0.47000000000E+01 0.  1.
         13    1    6    6    0    0 -0.19645723896E+02  0.20011287622E+02 -0.30723458429E+02  0.41597319596E+02  0.00000000000E+00 0. -1.
        -14    1    6    6    0    0 -0.67015888437E+02 -0.44674416218E+02  0.84229063943E+01  0.80980726840E+02  0.00000000000E+00 0.  1.
</event>
<event>
12    1  0.8416569E-002  0.1773541E+03  0.7818608E-02  0.1171417E+00
         21   -1    0    0  501  502  0.00000000000E+00  0.00000000000E+00  0.15310685883E+03  0.15310685883E+03  0.00000000000E+00 0. -1.
         21   -1    0    0  502  503 -0.00000000000E+00 -0.00000000000E+00 -0.23090808057E+03  0.23090808057E+03  0.00000000000E+00 0. -1.
         -6    2    1    2    0  503  0.17428959315E+02 -0.15147884972E+02 -0.10794888448E+03  0.20411670784E+03  0.17168995811E+03 0.  0.
        -24    2    3    3    0    0  0.37167919775E+02 -0.32066830433E+02 -0.37450455645E+00  0.93345707606E+02  0.79394867594E+02 0.  0.
          6    2    1    2  501    0 -0.17428959315E+02  0.15147884972E+02  0.30147662745E+02  0.17989823156E+03  0.17584443439E+03 0.  0.
         24    2    5    5    0    0 -0.26200862899E+02 -0.33090435268E+02  0.72243861280E+02  0.11510578012E+03  0.79048738143E+02 0.  0.
          5    1    5    5  501    0  0.87719035839E+01  0.48238320240E+02 -0.42096198535E+02  0.64792451437E+02  0.47000000000E+01 0. -1.
        -11    1    6    6    0    0 -0.16639763211E+02 -0.55719442541E+02  0.28094581847E+02  0.64582068146E+02  0.00000000000E+00 0.  1.
         12    1    6    6    0    0 -0.95610996883E+01  0.22629007273E+02  0.44149279434E+02  0.50523711977E+02  0.00000000000E+00 0. -1.
         -5    1    3    3    0  503 -0.19738960460E+02  0.16918945461E+02 -0.10757437993E+03  0.11077100023E+03  0.47000000000E+01 0.  1.
         11    1    4    4    0    0  0.55756925688E+02 -0.10017269408E+02  0.17651357018E+02  0.59335915373E+02  0.00000000000E+00 0. -1.
        -12    1    4    4    0    0 -0.18589005913E+02 -0.22049561025E+02 -0.18025861574E+02  0.34009792233E+02  0.00000000000E+00 0.  1.
</event>
<event>
12    1  0.8416569E-002  0.1949118E+03  0.7818608E-02  0.1154491E+00
         21   -1    0    0  501  502  0.00000000000E+00  0.00000000000E+00  0.40702791500E+02  0.40702791500E+02  0.00000000000E+00 0. -1.
         21   -1    0    0  502  503 -0.00000000000E+00 -0.00000000000E+00 -0.11386700662E+04  0.11386700662E+04  0.00000000000E+00 0.  1.
         -6    2    1    2    0  503  0.44409848567E+02 -0.75673851653E+02 -0.80243235961E+03  0.82535098972E+03  0.17206916636E+03 0.  0.
        -24    2    3    3    0    0  0.22459655823E+02  0.16409470196E+02 -0.53293821191E+03  0.53967576369E+03  0.80331098265E+02 0.  0.
          6    2    1    2  501    0 -0.44409848567E+02  0.75673851653E+02 -0.29553491506E+03  0.35402186794E+03  0.17404548397E+03 0.  0.
         24    2    5    5    0    0  0.19348486839E+02  0.94283569610E+02 -0.19182293798E+03  0.23077532184E+03  0.84837811122E+02 0.  0.
          5    1    5    5  501    0 -0.63758335406E+02 -0.18609717957E+02 -0.10371197708E+03  0.12324654610E+03  0.47000000000E+01 0. -1.
        -11    1    6    6    0    0  0.86773020135E+01  0.10787785175E+03 -0.17930608532E+03  0.20943638342E+03  0.00000000000E+00 0.  1.
         12    1    6    6    0    0  0.10671184825E+02 -0.13594282140E+02 -0.12516852659E+02  0.21338938421E+02  0.00000000000E+00 0. -1.
         -5    1    3    3    0  503  0.21950192744E+02 -0.92083321849E+02 -0.26949414770E+03  0.28567522603E+03  0.47000000000E+01 0.  1.
         13    1    4    4    0    0 -0.17903752939E+02  0.32303092915E+02 -0.15917219721E+03  0.16340080338E+03  0.00000000000E+00 0. -1.
        -14    1    4    4    0    0  0.40363408762E+02 -0.15893622719E+02 -0.37376601469E+03  0.37627496030E+03  0.00000000000E+00 0.  1.
</event>
<event>
12    1  0.8416569E-002  0.1962977E+03  0.7818608E-02  0.1153567E+00
         21   -1    0    0  501  502  0.00000000000E+00  0.00000000000E+00  0.49954507399E+03  0.49954507399E+03  0.00000000000E+00 0. -1.
         21   -1    0    0  502  503 -0.00000000000E+00 -0.00000000000E+00 -0.98203267016E+02  0.98203267016E+02  0.00000000000E+00 0.  1.
         -6    2    1    2    0  503  0.74938135600E+02  0.58344316573E+02  0.57148221969E+02  0.20151356875E+03  0.16829146049E+03 0.  0.
        -24    2    3    3    0    0  0.10272068341E+03  0.84178070216E+02  0.45031958844E+02  0.16141186527E+03  0.79927633691E+02 0.  0.
          6    2    1    2  501    0 -0.74938135600E+02 -0.58344316573E+02  0.34419358500E+03  0.39623477225E+03  0.17179344382E+03 0.  0.
         24    2    5    5    0    0 -0.38529303352E+02  0.32333244862E+02  0.11980902917E+03  0.15145212967E+03  0.77804872405E+02 0.  0.
          5    1    5    5  501    0 -0.36408832249E+02 -0.90677561435E+02  0.22438455583E+03  0.24478264258E+03  0.47000000000E+01 0. -1.
        -11    1    6    6    0    0  0.17125797633E+01  0.21446481995E+00  0.93712117258E+02  0.93728009931E+02  0.00000000000E+00 0.  1.
         12    1    6    6    0    0 -0.40241883115E+02  0.32118780042E+02  0.26096911913E+02  0.57724119737E+02  0.00000000000E+00 0. -1.
         -5    1    3    3    0  503 -0.27782547810E+02 -0.25833753642E+02  0.12116263124E+02  0.40101703482E+02  0.47000000000E+01 0.  1.
         11    1    4    4    0    0  0.57013220061E+02  0.90946123955E+02  0.21164829213E+02  0.10940591721E+03  0.00000000000E+00 0. -1.
        -12    1    4    4    0    0  0.45707463350E+02 -0.67680537397E+01  0.23867129631E+02  0.52005948065E+02  0.00000000000E+00 0.  1.
</event>
<event>
12    1  0.8416569E-002  0.2128385E+03  0.7818608E-02  0.1139524E+00
         21   -1    0    0  501  502  0.00000000000E+00  0.00000000000E+00  0.13876626874E+03  0.13876626874E+03  0.00000000000E+00 0.  1.
         21   -1    0    0  502  503 -0.00000000000E+00 -0.00000000000E+00 -0.75435841640E+03  0.75435841640E+03  0.00000000000E+00 0.  1.
         -6    2    1    2    0  503 -0.12362873874E+03  0.16055979010E+02 -0.64499914849E+03  0.67920845097E+03  0.17250611239E+03 0.  0.
        -24    2    3    3    0    0 -0.56922169586E+02  0.32282929027E+02 -0.16250938295E+03  0.19183637122E+03  0.78163756798E+02 0.  0.
          6    2    1    2  501    0  0.12362873874E+03 -0.16055979010E+02  0.29407000832E+02  0.21391623417E+03  0.17132870173E+03 0.  0.
         24    2    5    5    0    0  0.39778319320E+01  0.21418345421E+02  0.27636444387E+02  0.88433608427E+02  0.81130520605E+02 0.  0.
          5    1    5    5  501    0  0.11965090681E+03 -0.37474324430E+02  0.17705564456E+01  0.12548262574E+03  0.47000000000E+01 0. -1.
        -11    1    6    6    0    0  0.33567580401E+02  0.12569838992E+02  0.41279711974E+02  0.54669899642E+02  0.00000000000E+00 0.  1.
         12    1    6    6    0    0 -0.29589748469E+02  0.88485064287E+01 -0.13643267587E+02  0.33763708785E+02  0.00000000000E+00 0. -1.
         -5    1    3    3    0  503 -0.66706569156E+02 -0.16226950017E+02 -0.48248976554E+03  0.48737207976E+03  0.47000000000E+01 0.  1.
         11    1    4    4    0    0 -0.71794121425E+02  0.40930858462E+02 -0.14717606523E+03  0.16879136595E+03  0.00000000000E+00 0. -1.
        -12    1    4    4    0    0  0.14871951839E+02 -0.86479294348E+01 -0.15333317729E+02  0.23045005263E+02  0.00000000000E+00 0.  1.
</event>
<event>
12    1  0.8416569E-002  0.2446240E+03  0.7818608E-02  0.1116855E+00
         21   -1    0    0  501  502  0.00000000000E+00  0.00000000000E+00  0.67017167169E+02  0.67017167169E+02  0.00000000000E+00 0. -1.
         21   -1    0    0  502  503 -0.00000000000E+00 -0.00000000000E+00 -0.17019113298E+04  0.17019113298E+04  0.00000000000E+00 0. -1.
         -6    2    1    2    0  503  0.19189658794E+02  0.17254452861E+03 -0.14275639204E+04  0.14482624293E+04  0.17142187729E+03 0.  0.
        -24    2    3    3    0    0  0.11464265891E+01  0.47781229535E+02 -0.94433616982E+03  0.94884017516E+03  0.79009595512E+02 0.  0.
          6    2    1    2  501    0 -0.19189658794E+02 -0.17254452861E+03 -0.20733024221E+03  0.32066606762E+03  0.17233989739E+03 0.  0.
         24    2    5    5    0    0  0.29353316355E+02 -0.44711226838E+02 -0.39123091904E+02  0.10384008004E+03  0.79946450303E+02 0.  0.
          5    1    5    5  501    0 -0.48542975149E+02 -0.12783330177E+03 -0.16820715031E+03  0.21682598758E+03  0.47000000000E+01 0. -1.
        -11    1    6    6    0    0  0.36755929719E+02 -0.53823080012E+01 -0.50074465748E+02  0.62349175848E+02  0.00000000000E+00 0.  1.
         12    1    6    6    0    0 -0.74026133649E+01 -0.39328918837E+02  0.10951373844E+02  0.41490904191E+02  0.00000000000E+00 0. -1.
         -5    1    3    3    0  503  0.18043232205E+02  0.12476329907E+03 -0.48322775060E+03  0.49942225418E+03  0.47000000000E+01 0.  1.
         11    1    4    4    0    0 -0.36100947051E+01  0.62211839653E+02 -0.89617554736E+03  0.89833955577E+03  0.00000000000E+00 0. -1.
        -12    1    4    4    0    0  0.47565212942E+01 -0.14430610118E+02 -0.48160622458E+02  0.50500619390E+02  0.00000000000E+00 0.  1.
</event>
<event>
12    1  0.8416569E-002  0.2070368E+03  0.7818608E-02  0.1144028E+00
         21   -1    0    0  501  502  0.00000000000E+00  0.00000000000E+00  0.21883781730E+03  0.21883781730E+03  0.00000000000E+00 0. -1.
         21   -1    0    0  502  503 -0.00000000000E+00 -0.00000000000E+00 -0.24786260557E+03  0.24786260557E+03  0.00000000000E+00 0.  1.
         -6    2    1    2    0  503 -0.46311255091E+02  0.10395298448E+03 -0.12184612663E+03  0.24023054618E+03  0.17295456459E+03 0.  0.
        -24    2    3    3    0    0 -0.41360027698E+02  0.57184524083E+02  0.43601680910E+01  0.10546436953E+03  0.78249603767E+02 0.  0.
          6    2    1    2  501    0  0.46311255091E+02 -0.10395298448E+03  0.92821338362E+02  0.22646987669E+03  0.17240025772E+03 0.  0.
         24    2    5    5    0    0 -0.77231177347E+01  0.59475230591E+01  0.64406369485E+02  0.10066313815E+03  0.76745471360E+02 0.  0.
          5    1    5    5  501    0  0.54034372826E+02 -0.10990050754E+03  0.28414968876E+02  0.12580673854E+03  0.47000000000E+01 0. -1.
        -13    1    6    6    0    0 -0.26060555549E+02 -0.28196126440E+02  0.35766029645E+02  0.52472687928E+02  0.00000000000E+00 0.  1.
         14    1    6    6    0    0  0.18337437815E+02  0.34143649499E+02  0.28640339840E+02  0.48190450225E+02  0.00000000000E+00 0. -1.
         -5    1    3    3    0  503 -0.49512273929E+01  0.46768460400E+02 -0.12620629472E+03  0.13476617665E+03  0.47000000000E+01 0.  1.
         11    1    4    4    0    0 -0.51502856543E+02  0.66321144761E+02  0.18313025647E+02  0.85944199239E+02  0.00000000000E+00 0. -1.
        -12    1    4    4    0    0  0.10142828845E+02 -0.91366206779E+01 -0.13952857556E+02  0.19520170295E+02  0.00000000000E+00 0.  1.
</event>
<event>
12    1  0.8416569E-002  0.2556959E+03  0.7818608E-02  0.1111912E+00
         21   -1    0    0  503  502  0.00000000000E+00  0.00000000000E+00  0.43063758111E+03  0.43063758111E+03  0.00000000000E+00 0.  1.
         21   -1    0    0  501  503 -0.00000000000E+00 -0.00000000000E+00 -0.25266682406E+03  0.25266682406E+03  0.00000000000E+00 0. -1.
          6    2    1    2  501    0  0.64282333483E+02  0.15802796214E+03 -0.13380778499E+03  0.28859125435E+03  0.19046084519E+03 0.  0.
         24    2    3    3    0    0  0.69994809910E+02  0.65613232585E+01 -0.65038350750E+02  0.12207969270E+03  0.75704292633E+02 0.  0.
         -6    2    1    2    0  502 -0.64282333483E+02 -0.15802796214E+03  0.31177854203E+03  0.39471315082E+03  0.17171941342E+03 0.  0.
        -24    2    5    5    0    0 -0.17250907108E+02 -0.14907927012E+03  0.30071792346E+03  0.34535262571E+03  0.79466622060E+02 0.  0.
          5    1    3    3  501    0 -0.57124764267E+01  0.15146663888E+03 -0.68769434237E+02  0.16651156166E+03  0.47000000000E+01 0. -1.
        -13    1    4    4    0    0  0.71408388582E+02  0.14807105878E+02 -0.19101864125E+02  0.75387595515E+02  0.00000000000E+00 0.  1.
         14    1    4    4    0    0 -0.14135786728E+01 -0.82457826198E+01 -0.45936486625E+02  0.46692097181E+02  0.00000000000E+00 0. -1.
         -5    1    5    5    0  502 -0.47031426375E+02 -0.89486920188E+01  0.11060618570E+02  0.49360525108E+02  0.47000000000E+01 0.  1.
         13    1    6    6    0    0  0.10283918968E+02 -0.84995086155E+02  0.93811100031E+02  0.12700569337E+03  0.00000000000E+00 0. -1.
        -14    1    6    6    0    0 -0.27534826076E+02 -0.64084183963E+02  0.20690682343E+03  0.21834693234E+03  0.00000000000E+00 0.  1.
</event>
<event>
12    1  0.8416569E-002  0.1813996E+03  0.7818608E-02  0.1166901E+00
         21   -1    0    0  501  502  0.00000000000E+00  0.00000000000E+00  0.44060192060E+03  0.44060192060E+03  0.00000000000E+00 0.  1.
         21   -1    0    0  502  503 -0.00000000000E+00 -0.00000000000E+00 -0.11735051737E+03  0.11735051737E+03  0.00000000000E+00 0.  1.
         -6    2    1    2    0  503  0.51148608824E+02  0.11381491587E+01 -0.75582722507E+01  0.18155696436E+03  0.17403542243E+03 0.  0.
        -24    2    3    3    0    0  0.38338610335E+02 -0.48677345285E+02  0.51518283286E+02  0.10308525633E+03  0.64289218170E+02 0.  0.
          6    2    1    2  501    0 -0.51148608824E+02 -0.11381491587E+01  0.33080967548E+03  0.37639547360E+03  0.17210762793E+03 0.  0.
         24    2    5    5    0    0  0.19441497674E+02 -0.35671188558E+02  0.11124722234E+03  0.14314613325E+03  0.80401899618E+02 0.  0.
          5    1    5    5  501    0 -0.70590106498E+02  0.34533039399E+02  0.21956245314E+03  0.23324934035E+03  0.47000000000E+01 0. -1.
        -13    1    6    6    0    0  0.28564478763E+02  0.12356000458E+02  0.13638094939E+02  0.33979373565E+02  0.00000000000E+00 0.  1.
         14    1    6    6    0    0 -0.91229810896E+01 -0.48027189017E+02  0.97609127398E+02  0.10916675969E+03  0.00000000000E+00 0. -1.
         -5    1    3    3    0  503  0.12809998489E+02  0.49815494444E+02 -0.59076555537E+02  0.78471708036E+02  0.47000000000E+01 0.  1.
         13    1    4    4    0    0 -0.45393287870E+01  0.87247709590E+01  0.24693110921E+02  0.26579632449E+02  0.00000000000E+00 0. -1.
        -14    1    4    4    0    0  0.42877939122E+02 -0.57402116244E+02  0.26825172364E+02  0.76505623878E+02  0.00000000000E+00 0.  1.
</event>
<event>
12    1  0.8416569E-002  0.1782475E+03  0.7818608E-02  0.1169950E+00
         21   -1    0    0  501  502  0.00000000000E+00  0.00000000000E+00  0.88373935893E+02  0.88373935893E+02  0.00000000000E+00 0. -1.
         21   -1    0    0  502  503 -0.00000000000E+00 -0.00000000000E+00 -0.40170340090E+03  0.40170340090E+03  0.00000000000E+00 0. -1.
         -6    2    1    2    0  503  0.27421475658E+01  0.45803924932E+02 -0.24008328979E+03  0.29901863087E+03  0.17224005533E+03 0.  0.
        -24    2    3    3    0    0  0.60516947757E+02  0.54977872286E+02 -0.18870591908E+03  0.22101982916E+03  0.80962791331E+02 0.  0.
          6    2    1    2  501    0 -0.27421475658E+01 -0.45803924932E+02 -0.73246175218E+02  0.19105870592E+03  0.17039045751E+03 0.  0.
         24    2    5    5    0    0  0.61459057756E+02 -0.31595346548E+02 -0.24694916947E+02  0.10918689671E+03  0.80848362911E+02 0.  0.
          5    1    5    5  501    0 -0.64201205322E+02 -0.14208578385E+02 -0.48551258270E+02  0.81871809215E+02  0.47000000000E+01 0. -1.
        -13    1    6    6    0    0  0.26816334444E+02  0.27003553901E+02 -0.54438169629E+01  0.38444022415E+02  0.00000000000E+00 0.  1.
         14    1    6    6    0    0  0.34642723313E+02 -0.58598900449E+02 -0.19251099984E+02  0.70742874291E+02  0.00000000000E+00 0. -1.
         -5    1    3    3    0  503 -0.57774800191E+02 -0.91739473537E+01 -0.51377370711E+02  0.77998801710E+02  0.47000000000E+01 0.  1.
         11    1    4    4    0    0  0.91192443489E+01  0.35721502573E+02 -0.16707522321E+02  0.40476260520E+02  0.00000000000E+00 0. -1.
        -12    1    4    4    0    0  0.51397703408E+02  0.19256369713E+02 -0.17199839676E+03  0.18054356864E+03  0.00000000000E+00 0.  1.
</event>
<event>
12    1  0.8416569E-002  0.2149053E+03  0.7818608E-02  0.1137934E+00
         21   -1    0    0  501  502  0.00000000000E+00  0.00000000000E+00  0.14621408001E+03  0.14621408001E+03  0.00000000000E+00 0. -1.
         21   -1    0    0  502  503 -0.00000000000E+00 -0.00000000000E+00 -0.31447183635E+03  0.31447183635E+03  0.00000000000E+00 0. -1.
         -6    2    1    2    0  503 -0.10531327041E+03  0.72733890169E+02 -0.80098563998E+02  0.22840086877E+03  0.17137699145E+03 0.  0.
        -24    2    3    3    0    0 -0.68332743099E+02 -0.17827475311E+02 -0.75464106752E+02  0.13035756960E+03  0.79442318005E+02 0.  0.
          6    2    1    2  501    0  0.10531327041E+03 -0.72733890169E+02 -0.88159192343E+02  0.23228504758E+03  0.17263602298E+03 0.  0.
         24    2    5    5    0    0  0.86919794245E+02  0.17847055577E+02 -0.70048477480E+02  0.13798066969E+03  0.79109468367E+02 0.  0.
          5    1    5    5  501    0  0.18393476169E+02 -0.90580945746E+02 -0.18110714862E+02  0.94304377897E+02  0.47000000000E+01 0. -1.
        -13    1    6    6    0    0  0.11178351397E+02 -0.98079309635E+01 -0.53682515521E+02  0.55704250487E+02  0.00000000000E+00 0.  1.
         14    1    6    6    0    0  0.75741442849E+02  0.27654986540E+02 -0.16365961960E+02  0.82276419199E+02  0.00000000000E+00 0. -1.
         -5    1    3    3    0  503 -0.36980527315E+02  0.90561365480E+02 -0.46344572457E+01  0.98043299169E+02  0.47000000000E+01 0.  1.
         13    1    4    4    0    0 -0.23168027939E+01  0.24206849917E+02 -0.33966806838E+02  0.41774192091E+02  0.00000000000E+00 0. -1.
        -14    1    4    4    0    0 -0.66015940305E+02 -0.42034325227E+02 -0.41497299915E+02  0.88583377514E+02  0.00000000000E+00 0.  1.
</event>
<event>
12    1  0.8416569E-002  0.1815656E+03  0.7818608E-02  0.1166454E+00
         21   -1    0    0  503  502  0.00000000000E+00  0.00000000000E+00  0.25164175491E+03  0.25164175491E+03  0.00000000000E+00 0. -1.
         21   -1    0    0  501  503 -0.00000000000E+00 -0.00000000000E+00 -0.29022778572E+03  0.29022778572E+03  0.00000000000E+00 0.  1.
          6    2    1    2  501    0 -0.32523509857E+02  0.41157442354E+02 -0.22025390377E+03  0.28502468298E+03  0.17313455470E+03 0.  0.
         24    2    3    3    0    0 -0.86373224735E+02  0.30941090475E+02 -0.17282289865E+03  0.21238890747E+03  0.82605137170E+02 0.  0.
         -6    2    1    2    0  502  0.32523509857E+02 -0.41157442354E+02  0.18166787296E+03  0.25684485765E+03  0.17382275766E+03 0.  0.
        -24    2    5    5    0    0 -0.93258202857E+01  0.38673721300E+02  0.11361023067E+03  0.14380365367E+03  0.78673875282E+02 0.  0.
          5    1    3    3  501    0  0.53849714879E+02  0.10216351879E+02 -0.47431005113E+02  0.72635775512E+02  0.47000000000E+01 0. -1.
        -11    1    4    4    0    0 -0.39998358642E+02 -0.17554406339E+02 -0.11771994056E+03  0.12556277427E+03  0.00000000000E+00 0.  1.
         12    1    4    4    0    0 -0.46374866094E+02  0.48495496814E+02 -0.55102958089E+02  0.86826133201E+02  0.00000000000E+00 0. -1.
         -5    1    5    5    0  502  0.41849330142E+02 -0.79831163654E+02  0.68057642289E+02  0.11304120398E+03  0.47000000000E+01 0.  1.
         13    1    6    6    0    0 -0.82763027487E+01  0.13581127042E+01  0.10520494397E+03  0.10553872225E+03  0.00000000000E+00 0. -1.
        -14    1    6    6    0    0 -0.10495175370E+01  0.37315608596E+02  0.84052866949E+01  0.38264931417E+02  0.00000000000E+00 0.  1.
</event>
<event>
12    1  0.8416569E-002  0.3495846E+03  0.7818608E-02  0.1063054E+00
         21   -1    0    0  501  502  0.00000000000E+00  0.00000000000E+00  0.52657114025E+03  0.52657114025E+03  0.00000000000E+00 0.  1.
         21   -1    0    0  502  503 -0.00000000000E+00 -0.00000000000E+00 -0.26996775813E+03  0.26996775813E+03  0.00000000000E+00 0.  1.
         -6    2    1    2    0  503 -0.29457265254E+03  0.66380753093E+02 -0.24655958864E+02  0.34785615819E+03  0.17092846010E+03 0.  0.
        -24    2    3    3    0    0 -0.11355723261E+03  0.10547708884E+02  0.46054688850E+02  0.14560384848E+03  0.77929115792E+02 0.  0.
          6    2    1    2  501    0  0.29457265254E+03 -0.66380753093E+02  0.28125934098E+03  0.44868274020E+03  0.17615315057E+03 0.  0.
         24    2    5    5    0    0  0.16499029722E+03 -0.10849547098E+03  0.15196603070E+03  0.26078892349E+03  0.76968322901E+02 0.  0.
          5    1    5    5  501    0  0.12958235533E+03  0.42114717884E+02  0.12929331028E+03  0.18789381671E+03  0.47000000000E+01 0. -1.
        -11    1    6    6    0    0  0.42923394059E+02 -0.60789278784E+02  0.25502453174E+02  0.78664663544E+02  0.00000000000E+00 0.  1.
         12    1    6    6    0    0  0.12206690316E+03 -0.47706192193E+02  0.12646357753E+03  0.18212425995E+03  0.00000000000E+00 0. -1.
         -5    1    3    3    0  503 -0.18101541994E+03  0.55833044209E+02 -0.70710647714E+02  0.20225230970E+03  0.47000000000E+01 0.  1.
         11    1    4    4    0    0 -0.69345626179E+02  0.16755237778E+02  0.65554135545E+02  0.96886008021E+02  0.00000000000E+00 0. -1.
        -12    1    4    4    0    0 -0.44211606428E+02 -0.62075288934E+01 -0.19499446696E+02  0.48717840462E+02  0.00000000000E+00 0.  1.
</event>
<event>
12    1  0.8416569E-002  0.2100251E+03  0.7818608E-02  0.1141877E+00
         21   -1    0    0  503  502  0.00000000000E+00  0.00000000000E+00  0.11253009441E+03  0.11253009441E+03  0.00000000000E+00 0. -1.
         21   -1    0    0  501  503 -0.00000000000E+00 -0.00000000000E+00 -0.38902031933E+03  0.38902031933E+03  0.00000000000E+00 0.  1.
          6    2    1    2  501    0  0.19685508878E+02  0.11804256397E+03 -0.14343148813E+03  0.25432880450E+03  0.17259485173E+03 0.  0.
         24    2    3    3    0    0 -0.90538788234E+01  0.13604338931E+03 -0.15181892940E+03  0.21908080755E+03  0.79734787992E+02 0.  0.
         -6    2    1    2    0  502 -0.19685508878E+02 -0.11804256397E+03 -0.13305873680E+03  0.24722160924E+03  0.17056473981E+03 0.  0.
        -24    2    5    5    0    0  0.42760742608E+02 -0.75217240659E+02 -0.31179782011E+02  0.12019817018E+03  0.77390612533E+02 0.  0.
          5    1    3    3  501    0  0.28739387702E+02 -0.18000825335E+02  0.83874412740E+01  0.35247996955E+02  0.47000000000E+01 0. -1.
        -13    1    4    4    0    0 -0.13572809415E+02  0.16576546884E+02 -0.72523208795E+02  0.75621550341E+02  0.00000000000E+00 0.  1.
         14    1    4    4    0    0  0.45189305914E+01  0.11946684243E+03 -0.79295720604E+02  0.14345925721E+03  0.00000000000E+00 0. -1.
         -5    1    5    5    0  502 -0.62446251486E+02 -0.42825323315E+02 -0.10187895479E+03  0.12702343906E+03  0.47000000000E+01 0.  1.
         13    1    6    6    0    0  0.18853709799E+02  0.11494649062E+02  0.59807524194E+01  0.22877034986E+02  0.00000000000E+00 0. -1.
        -14    1    6    6    0    0  0.23907032809E+02 -0.86711889722E+02 -0.37160534430E+02  0.97321135197E+02  0.00000000000E+00 0.  1.
</event>
<event>
12    1  0.8416569E-002  0.1731449E+03  0.7818608E-02  0.1174881E+00
         21   -1    0    0  501  502  0.00000000000E+00  0.00000000000E+00  0.12300961632E+03  0.12300961632E+03  0.00000000000E+00 0.  1.
         21   -1    0    0  502  503 -0.00000000000E+00 -0.00000000000E+00 -0.24612590089E+03  0.24612590089E+03  0.00000000000E+00 0.  1.
         -6    2    1    2    0  503 -0.17438017080E+02  0.23285420999E+02 -0.85032520585E+02  0.19289815742E+03  0.17068355020E+03 0.  0.
        -24    2    3    3    0    0  0.17450772206E+02  0.41202287630E+02  0.86953066369E+01  0.91186617648E+02  0.78976154149E+02 0.  0.
          6    2    1    2  501    0  0.17438017080E+02 -0.23285420999E+02 -0.38083763991E+02  0.17623735979E+03  0.16959639924E+03 0.  0.
         24    2    5    5    0    0  0.38917831297E+02  0.27464916672E+02 -0.71291761359E+02  0.11172503320E+03  0.71631337874E+02 0.  0.
          5    1    5    5  501    0 -0.21479814216E+02 -0.50750337671E+02  0.33207997368E+02  0.64512326587E+02  0.47000000000E+01 0. -1.
        -13    1    6    6    0    0 -0.11637564262E+01 -0.16100142365E+02  0.33213224180E+01  0.16480294166E+02  0.00000000000E+00 0.  1.
         14    1    6    6    0    0  0.40081587723E+02  0.43565059037E+02 -0.74613083777E+02  0.95244739035E+02  0.00000000000E+00 0. -1.
         -5    1    3    3    0  503 -0.34888789287E+02 -0.17916866631E+02 -0.93727827222E+02  0.10171153978E+03  0.47000000000E+01 0.  1.
         11    1    4    4    0    0  0.38561605806E+02 -0.22357755804E+00  0.19851627169E+02  0.43372047802E+02  0.00000000000E+00 0. -1.
        -12    1    4    4    0    0 -0.21110833599E+02  0.41425865188E+02 -0.11156320532E+02  0.47814569847E+02  0.00000000000E+00 0.  1.
</event>
<event>
12    1  0.8416569E-002  0.1717798E+03  0.7818608E-02  0.1176077E+00
         21   -1    0    0  503  502  0.00000000000E+00  0.00000000000E+00  0.47649000476E+02  0.47649000476E+02  0.00000000000E+00 0.  1.
         21   -1    0    0  501  503 -0.00000000000E+00 -0.00000000000E+00 -0.65909153505E+03  0.65909153505E+03  0.00000000000E+00 0.  1.
          6    2    1    2  501    0 -0.19130848087E+01  0.31577656922E+00 -0.39342671462E+03  0.42918120622E+03  0.17148809985E+03 0.  0.
         24    2    3    3    0    0 -0.34945389659E+02 -0.16262743530E+02 -0.37667681373E+03  0.38833234244E+03  0.86202836940E+02 0.  0.
         -6    2    1    2    0  502  0.19130848087E+01 -0.31577656922E+00 -0.21801581995E+03  0.27755932930E+03  0.17176880952E+03 0.  0.
        -24    2    5    5    0    0 -0.84401379962E+01 -0.38411218218E+02 -0.22028537910E+03  0.23773857095E+03  0.80295219378E+02 0.  0.
          5    1    3    3  501    0  0.33032304851E+02  0.16578520100E+02 -0.16749900886E+02  0.40848863780E+02  0.47000000000E+01 0. -1.
        -13    1    4    4    0    0  0.26778696211E+02 -0.18219915164E+02 -0.14422752205E+03  0.14781962656E+03  0.00000000000E+00 0.  1.
         14    1    4    4    0    0 -0.61724085870E+02  0.19571716339E+01 -0.23244929169E+03  0.24051271589E+03  0.00000000000E+00 0. -1.
         -5    1    5    5    0  502  0.10353222805E+02  0.38095441649E+02  0.22695591544E+01  0.39820758351E+02  0.47000000000E+01 0.  1.
         11    1    6    6    0    0 -0.31987550944E+02 -0.29582423952E+01 -0.16430804341E+03  0.16741889900E+03  0.00000000000E+00 0. -1.
        -12    1    6    6    0    0  0.23547412948E+02 -0.35452975823E+02 -0.55977335692E+02  0.70319671944E+02  0.00000000000E+00 0.  1.
</event>
<event>
12    1  0.8416569E-002  0.2480294E+03  0.7818608E-02  0.1114705E+00
         21   -1    0    0  503  502  0.00000000000E+00  0.00000000000E+00  0.25905670691E+04  0.25905670691E+04  0.00000000000E+00 0.  1.
         21   -1    0    0  501  503 -0.00000000000E+00 -0.00000000000E+00 -0.32798982754E+02  0.32798982754E+02  0.00000000000E+00 0. -1.
          6    2    1    2  501    0  0.16704709064E+02 -0.17617522027E+03  0.58816351607E+03  0.63832193479E+03  0.17378669470E+03 0.  0.
         24    2    3    3    0    0  0.34313719244E+02 -0.17477033509E+03  0.58850523823E+03  0.62003921848E+03  0.79925688438E+02 0.  0.
         -6    2    1    2    0  502 -0.16704709064E+02  0.17617522027E+03  0.19696045703E+04  0.19850441170E+04  0.17245645217E+03 0.  0.
        -24    2    5    5    0    0  0.27722853688E+02  0.17936650804E+03  0.14396027362E+04  0.14531531256E+04  0.79101628410E+02 0.  0.
          5    1    3    3  501    0 -0.17609010180E+02 -0.14048851867E+01 -0.34172215503E+00  0.18282716317E+02  0.47000000000E+01 0. -1.
        -11    1    4    4    0    0  0.46042651115E+02 -0.79833597932E+02  0.37371618676E+03  0.38491183059E+03  0.00000000000E+00 0.  1.
         12    1    4    4    0    0 -0.11728931872E+02 -0.94936737155E+02  0.21478905147E+03  0.23512738789E+03  0.00000000000E+00 0. -1.
         -5    1    5    5    0  502 -0.44427562752E+02 -0.31912877684E+01  0.53000183410E+03  0.53189099146E+03  0.47000000000E+01 0.  1.
         11    1    6    6    0    0  0.35828349264E+02  0.26139074959E+02  0.29679694691E+03  0.30009223507E+03  0.00000000000E+00 0. -1.
        -12    1    6    6    0    0 -0.81054955758E+01  0.15322743308E+03  0.11428057892E+04  0.11530608905E+04  0.00000000000E+00 0.  1.
</event>
<event>
12    1  0.8416569E-002  0.2041196E+03  0.7818608E-02  0.1146341E+00
         21   -1    0    0  501  502  0.00000000000E+00  0.00000000000E+00  0.11755908849E+04  0.11755908849E+04  0.00000000000E+00 0. -1.
         21   -1    0    0  502  503 -0.00000000000E+00 -0.00000000000E+00 -0.57661836072E+02  0.57661836072E+02  0.00000000000E+00 0. -1.
         -6    2    1    2    0  503  0.21153196836E+02 -0.10712129372E+03  0.17608040763E+03  0.26957213516E+03  0.17245984111E+03 0.  0.
        -24    2    3    3    0    0  0.52454045988E+02 -0.13116105676E+03  0.15719652797E+03  0.22556822311E+03  0.78839235918E+02 0.  0.
          6    2    1    2  501    0 -0.21153196836E+02  0.10712129372E+03  0.94184864121E+03  0.96368058583E+03  0.17227588122E+03 0.  0.
         24    2    5    5    0    0 -0.78301405648E+01  0.40177680393E+02  0.82019611004E+03  0.82410845561E+03  0.68974854711E+02 0.  0.
          5    1    5    5  501    0 -0.13323056271E+02  0.66943613325E+02  0.12165253117E+03  0.13957213022E+03  0.47000000000E+01 0. -1.
        -13    1    6    6    0    0  0.47063730357E+01 -0.15752809749E+02  0.35715631244E+03  0.35753451928E+03  0.00000000000E+00 0.  1.
         14    1    6    6    0    0 -0.12536513600E+02  0.55930490143E+02  0.46303979760E+03  0.46657393633E+03  0.00000000000E+00 0. -1.
         -5    1    3    3    0  503 -0.31300849152E+02  0.24039763037E+02  0.18883879664E+02  0.44003912050E+02  0.47000000000E+01 0.  1.
         13    1    4    4    0    0  0.34790783269E+02 -0.76587712750E+01  0.23353829740E+02  0.42596440478E+02  0.00000000000E+00 0. -1.
        -14    1    4    4    0    0  0.17663262719E+02 -0.12350228548E+03  0.13384269823E+03  0.18297178263E+03  0.00000000000E+00 0.  1.
</event>
<event>
12    1  0.8416569E-002  0.2164402E+03  0.7818608E-02  0.1136773E+00
         21   -1    0    0  503  502  0.00000000000E+00  0.00000000000E+00  0.34842706642E+03  0.34842706642E+03  0.00000000000E+00 0. -1.
         21   -1    0    0  501  503 -0.00000000000E+00 -0.00000000000E+00 -0.15480947606E+03  0.15480947606E+03  0.00000000000E+00 0. -1.
          6    2    1    2  501    0  0.31013902651E+02  0.12585322062E+03  0.38524244418E+01  0.21538728833E+03  0.17197658998E+03 0.  0.
         24    2    3    3    0    0  0.73237520513E+02  0.32435699687E+02 -0.84455144953E+00  0.11265550793E+03  0.79213263877E+02 0.  0.
         -6    2    1    2    0  502 -0.31013902651E+02 -0.12585322062E+03  0.18976516592E+03  0.28784925414E+03  0.17333631939E+03 0.  0.
        -24    2    5    5    0    0  0.29636790276E+02 -0.11514410744E+03  0.17191147789E+03  0.22355278586E+03  0.79282955408E+02 0.  0.
          5    1    3    3  501    0 -0.42223617862E+02  0.93417520931E+02  0.46969758914E+01  0.10273178040E+03  0.47000000000E+01 0. -1.
        -13    1    4    4    0    0  0.35526433571E+01  0.10459695506E+00 -0.30207016640E+02  0.30415391985E+02  0.00000000000E+00 0.  1.
         14    1    4    4    0    0  0.69684877156E+02  0.32331102732E+02  0.29362465190E+02  0.82240115942E+02  0.00000000000E+00 0. -1.
         -5    1    5    5    0  502 -0.60650692927E+02 -0.10709113179E+02  0.17853688022E+02  0.64296468282E+02  0.47000000000E+01 0.  1.
         11    1    6    6    0    0 -0.20865579507E+02 -0.57186522697E+01  0.18513742906E+02  0.28475148258E+02  0.00000000000E+00 0. -1.
        -12    1    6    6    0    0  0.50502369783E+02 -0.10942545517E+03  0.15339773499E+03  0.19507763760E+03  0.00000000000E+00 0.  1.
</event>
<event>
12    1  0.8416569E-002  0.1796217E+03  0.7818608E-02  0.1168244E+00
         21   -1    0    0  503  502  0.00000000000E+00  0.00000000000E+00  0.23648680116E+02  0.23648680116E+02  0.00000000000E+00 0.  1.
         21   -1    0    0  501  503 -0.00000000000E+00 -0.00000000000E+00 -0.14382645978E+04  0.14382645978E+04  0.00000000000E+00 0.  1.
          6    2    1    2  501    0 -0.25881085094E+02 -0.44432754180E+02 -0.87624165096E+03  0.89446262345E+03  0.17210419423E+03 0.  0.
         24    2    3    3    0    0 -0.40209111413E+02  0.83657472915E-01 -0.22371451929E+03  0.24024496028E+03  0.77798940609E+02 0.  0.
         -6    2    1    2    0  502  0.25881085094E+02  0.44432754180E+02 -0.53837426670E+03  0.56745065443E+03  0.17178269402E+03 0.  0.
        -24    2    5    5    0    0 -0.11398278440E+02 -0.99773109057E+01 -0.45154397070E+03  0.45830947783E+03  0.76981507558E+02 0.  0.
          5    1    3    3  501    0  0.14328026319E+02 -0.44516411653E+02 -0.65252713167E+03  0.65421766318E+03  0.47000000000E+01 0. -1.
        -11    1    4    4    0    0 -0.39915961482E+02 -0.10856595504E+02 -0.22540649654E+03  0.22917076238E+03  0.00000000000E+00 0.  1.
         12    1    4    4    0    0 -0.29314993043E+00  0.10940252977E+02  0.16919772526E+01  0.11074197899E+02  0.00000000000E+00 0. -1.
         -5    1    5    5    0  502  0.37279363534E+02  0.54410065086E+02 -0.86830295994E+02  0.10914117660E+03  0.47000000000E+01 0.  1.
         11    1    6    6    0    0 -0.13772131483E+02  0.17790607983E+02 -0.39113765340E+03  0.39178417687E+03  0.00000000000E+00 0. -1.
        -12    1    6    6    0    0  0.23738530426E+01 -0.27767918889E+02 -0.60406317300E+02  0.66525300957E+02  0.00000000000E+00 0.  1.
</event>
<event>
12    1  0.8416569E-002  0.1816131E+03  0.7818608E-02  0.1166362E+00
         21   -1    0    0  503  502  0.00000000000E+00  0.00000000000E+00  0.39838399527E+02  0.39838399527E+02  0.00000000000E+00 0.  1.
         21   -1    0    0  501  503 -0.00000000000E+00 -0.00000000000E+00 -0.10201228801E+04  0.10201228801E+04  0.00000000000E+00 0.  1.
          6    2    1    2  501    0 -0.21287137558E+02 -0.55682113983E+02 -0.72194843004E+03  0.74444129264E+03  0.17155075780E+03 0.  0.
         24    2    3    3    0    0  0.54831226847E+02 -0.27694321883E+02 -0.39521342491E+03  0.40775868916E+03  0.79372907553E+02 0.  0.
         -6    2    1    2    0  502  0.21287137558E+02  0.55682113983E+02 -0.25833605057E+03  0.31551998703E+03  0.17106053650E+03 0.  0.
        -24    2    5    5    0    0 -0.10648342103E+02  0.81950398084E+02 -0.24692150267E+03  0.27236585033E+03  0.79897891126E+02 0.  0.
          5    1    3    3  501    0 -0.76118364406E+02 -0.27987792101E+02 -0.32673500514E+03  0.33668260348E+03  0.47000000000E+01 0. -1.
        -11    1    4    4    0    0 -0.16146703235E+02 -0.51624601160E+01 -0.16341572503E+03  0.16429262371E+03  0.00000000000E+00 0.  1.
         12    1    4    4    0    0  0.70977930083E+02 -0.22531861767E+02 -0.23179769988E+03  0.24346606544E+03  0.00000000000E+00 0. -1.
         -5    1    5    5    0  502  0.31935479661E+02 -0.26268284101E+02 -0.11414547899E+02  0.43154136703E+02  0.47000000000E+01 0.  1.
         11    1    6    6    0    0  0.19474257509E+02  0.29146298020E+02 -0.17367962697E+03  0.17718173218E+03  0.00000000000E+00 0. -1.
        -12    1    6    6    0    0 -0.30122599612E+02  0.52804100064E+02 -0.73241875700E+02  0.95184118145E+02  0.00000000000E+00 0.  1.
</event>
<event>
12    1  0.8416569E-002  0.1812368E+03  0.7818608E-02  0.1166806E+00
         21   -1    0    0  501  502  0.00000000000E+00  0.00000000000E+00  0.38460902704E+02  0.38460902704E+02  0.00000000000E+00 0.  1.
         21   -1    0    0  502  503 -0.00000000000E+00 -0.00000000000E+00 -0.85290554138E+03  0.85290554138E+03  0.00000000000E+00 0.  1.
         -6    2    1    2    0  503  0.33260011567E+02 -0.47640279272E+02 -0.43312964117E+03  0.46951897495E+03  0.17167107269E+03 0.  0.
        -24    2    3    3    0    0  0.11510675190E+02 -0.94819261487E+02 -0.24265379702E+03  0.27202966587E+03  0.77434397477E+02 0.  0.
          6    2    1    2  501    0 -0.33260011567E+02  0.47640279272E+02 -0.38131499750E+03  0.42184746913E+03  0.17081667165E+03 0.  0.
         24    2    5    5    0    0 -0.50077739790E+02  0.56653940132E+02 -0.38543166567E+03  0.40176964501E+03  0.84521179539E+02 0.  0.
          5    1    5    5  501    0  0.16817728223E+02 -0.90136608597E+01  0.41166681733E+01  0.20077824123E+02  0.47000000000E+01 0. -1.
        -11    1    6    6    0    0  0.11033402525E+02 -0.34436688701E+00 -0.47391293192E+01  0.12013072319E+02  0.00000000000E+00 0.  1.
         12    1    6    6    0    0 -0.61111142315E+02  0.56998307019E+02 -0.38069253635E+03  0.38975657269E+03  0.00000000000E+00 0. -1.
         -5    1    3    3    0  503  0.21749336377E+02  0.47178982214E+02 -0.19047584416E+03  0.19748930908E+03  0.47000000000E+01 0.  1.
         11    1    4    4    0    0 -0.24924950635E+01 -0.85767302742E+02 -0.11601218381E+03  0.14429507803E+03  0.00000000000E+00 0. -1.
        -12    1    4    4    0    0  0.14003170253E+02 -0.90519587448E+01 -0.12664161321E+03  0.12773458784E+03  0.00000000000E+00 0.  1.
</event>
<event>
12    1  0.8416569E-002  0.2232119E+03  0.7818608E-02  0.1132037E+00
         21   -1    0    0  503  502  0.00000000000E+00  0.00000000000E+00  0.84847281225E+02  0.84847281225E+02  0.00000000000E+00 0. -1.
         21   -1    0    0  501  503 -0.00000000000E+00 -0.00000000000E+00 -0.75923462819E+03  0.75923462819E+03  0.00000000000E+00 0.  1.
          6    2    1    2  501    0  0.92099712444E+02  0.10244787676E+03 -0.54074976485E+03  0.58392315538E+03  0.17198261169E+03 0.  0.
         24    2    3    3    0    0  0.57459033237E+02  0.39979190964E+02 -0.47495165373E+03  0.48669252858E+03  0.79941652380E+02 0.  0.
         -6    2    1    2    0  502 -0.92099712444E+02 -0.10244787676E+03 -0.13363758211E+03  0.26015875403E+03  0.17562929556E+03 0.  0.
        -24    2    5    5    0    0  0.12682842370E+02 -0.83659236293E+01 -0.47862102553E+02  0.95203243078E+02  0.80882837877E+02 0.  0.
          5    1    3    3  501    0  0.34640679207E+02  0.62468685801E+02 -0.65798111117E+02  0.97230626801E+02  0.47000000000E+01 0. -1.
        -13    1    4    4    0    0  0.52719070310E+02  0.27260219884E+01 -0.13965125584E+03  0.14929569594E+03  0.00000000000E+00 0.  1.
         14    1    4    4    0    0  0.47399629275E+01  0.37253168975E+02 -0.33530039790E+03  0.33739683264E+03  0.00000000000E+00 0. -1.
         -5    1    5    5    0  502 -0.10478255481E+03 -0.94081953135E+02 -0.85775479561E+02  0.16495551095E+03  0.47000000000E+01 0.  1.
         11    1    6    6    0    0  0.23790187197E+02 -0.21850581875E+02 -0.63828104405E+02  0.71536339346E+02  0.00000000000E+00 0. -1.
        -12    1    6    6    0    0 -0.11107344826E+02  0.13484658246E+02  0.15966001852E+02  0.23666903732E+02  0.00000000000E+00 0.  1.
</event>
<event>
12    1  0.8416569E-002  0.1964887E+03  0.7818608E-02  0.1152743E+00
         21   -1    0    0  503  502  0.00000000000E+00  0.00000000000E+00  0.12045793629E+04  0.12045793629E+04  0.00000000000E+00 0. -1.
         21   -1    0    0  501  503 -0.00000000000E+00 -0.00000000000E+00 -0.49183834696E+02  0.49183834696E+02  0.00000000000E+00 0. -1.
          6    2    1    2  501    0 -0.91675318063E+02  0.20289341708E+02  0.20762164502E+03  0.28583595835E+03  0.17256716454E+03 0.  0.
         24    2    3    3    0    0 -0.31880373566E+02 -0.50014948728E+02  0.11133522541E+03  0.15237700121E+03  0.85471426602E+02 0.  0.
         -6    2    1    2    0  502  0.91675318063E+02 -0.20289341708E+02  0.94777388318E+03  0.96792723924E+03  0.17260297069E+03 0.  0.
        -24    2    5    5    0    0  0.46639042504E+02 -0.57728289242E+02  0.81823586960E+03  0.82568755465E+03  0.82111168207E+02 0.  0.
          5    1    3    3  501    0 -0.59794944497E+02  0.70304290435E+02  0.96286419605E+02  0.13345895714E+03  0.47000000000E+01 0. -1.
        -11    1    4    4    0    0 -0.36935799613E+02  0.49638393800E+00  0.90049128673E+02  0.97331111495E+02  0.00000000000E+00 0.  1.
         12    1    4    4    0    0  0.50554260479E+01 -0.50511332666E+02  0.21286096740E+02  0.55045889716E+02  0.00000000000E+00 0. -1.
         -5    1    5    5    0  502  0.45036275559E+02  0.37438947534E+02  0.12953801359E+03  0.14223968459E+03  0.47000000000E+01 0.  1.
         13    1    6    6    0    0  0.64861435245E+02 -0.54812674694E+02  0.75653149695E+03  0.76128269451E+03  0.00000000000E+00 0. -1.
        -14    1    6    6    0    0 -0.18222392741E+02 -0.29156145479E+01  0.61704372650E+02  0.64404860139E+02  0.00000000000E+00 0.  1.
</event>
<event>
12    1  0.8416569E-002  0.1752353E+03  0.7818608E-02  0.1172684E+00
         21   -1    0    0  501  502  0.00000000000E+00  0.00000000000E+00  0.32520590460E+03  0.32520590460E+03  0.00000000000E+00 0.  1.
         21   -1    0    0  502  503 -0.00000000000E+00 -0.00000000000E+00 -0.10016547670E+03  0.10016547670E+03  0.00000000000E+00 0.  1.
         -6    2    1    2    0  503 -0.32762635507E+00 -0.27156317693E+02  0.59617667118E+02  0.18438988078E+03  0.17235947602E+03 0.  0.
        -24    2    3    3    0    0  0.10796343296E+02  0.32488982680E+02  0.82988194983E+02  0.11920110775E+03  0.78420460068E+02 0.  0.
          6    2    1    2  501    0  0.32762635507E+00  0.27156317693E+02  0.16542276079E+03  0.24098150051E+03  0.17311793920E+03 0.  0.
         24    2    5    5    0    0  0.21731165245E+02  0.81229569202E+02  0.10363820112E+03  0.15600238649E+03  0.80779832911E+02 0.  0.
          5    1    5    5  501    0 -0.21403538890E+02 -0.54073251509E+02  0.61784559671E+02  0.84979114019E+02  0.47000000000E+01 0. -1.
        -13    1    6    6    0    0 -0.16616351217E+02 -0.86698884300E+00  0.45240217062E+02  0.48203029337E+02  0.00000000000E+00 0.  1.
         14    1    6    6    0    0  0.38347516462E+02  0.82096558045E+02  0.58397984054E+02  0.10779935716E+03  0.00000000000E+00 0. -1.
         -5    1    3    3    0  503 -0.11123969651E+02 -0.59645300373E+02 -0.23370527865E+02  0.65188773037E+02  0.47000000000E+01 0.  1.
         13    1    4    4    0    0 -0.69301687578E+01  0.32576041378E+02 -0.10421418951E+01  0.33321341068E+02  0.00000000000E+00 0. -1.
        -14    1    4    4    0    0  0.17726512054E+02 -0.87058698145E-01  0.84030336878E+02  0.85879766678E+02  0.00000000000E+00 0.  1.
</event>
<event>
12    1  0.8416569E-002  0.2330503E+03  0.7818608E-02  0.1125774E+00
         21   -1    0    0  501  502  0.00000000000E+00  0.00000000000E+00  0.10012515874E+03  0.10012515874E+03  0.00000000000E+00 0.  1.
         21   -1    0    0  502  503 -0.00000000000E+00 -0.00000000000E+00 -0.55916517160E+03  0.55916517160E+03  0.00000000000E+00 0.  1.
         -6    2    1    2    0  503 -0.88904995653E+02  0.11325869740E+03 -0.31334043807E+03  0.39050568287E+03  0.18325072287E+03 0.  0.
        -24    2    3    3    0    0 -0.12094919651E+03  0.11414167185E+03 -0.19873348866E+03  0.27140718033E+03  0.80683509055E+02 0.  0.
          6    2    1    2  501    0  0.88904995653E+02 -0.11325869740E+03 -0.14569957480E+03  0.26878464748E+03  0.17402640557E+03 0.  0.
         24    2    5    5    0    0  0.73556320333E+02 -0.30479185061E+02 -0.15949434168E+02  0.11404222120E+03  0.80073283826E+02 0.  0.
          5    1    5    5  501    0  0.15348675320E+02 -0.82779512340E+02 -0.12975014063E+03  0.15474242628E+03  0.47000000000E+01 0. -1.
        -11    1    6    6    0    0  0.46168469726E+01  0.18643032108E+02  0.14518155783E+02  0.24076020632E+02  0.00000000000E+00 0.  1.
         12    1    6    6    0    0  0.68939473360E+02 -0.49122217169E+02 -0.30467589951E+02  0.89966200566E+02  0.00000000000E+00 0. -1.
         -5    1    3    3    0  503  0.32044200859E+02 -0.88297444641E+00 -0.11460694941E+03  0.11909850253E+03  0.47000000000E+01 0.  1.
         13    1    4    4    0    0 -0.86533931681E+02  0.33828368293E+02 -0.72341020890E+02  0.11775272030E+03  0.00000000000E+00 0. -1.
        -14    1    4    4    0    0 -0.34415264831E+02  0.80313303554E+02 -0.12639246777E+03  0.15365446004E+03  0.00000000000E+00 0.  1.
</event>
<event>
12    1  0.8416569E-002  0.1732027E+03  0.7818608E-02  0.1174956E+00
         21   -1    0    0  503  502  0.00000000000E+00  0.00000000000E+00  0.13288550712E+04  0.13288550712E+04  0.00000000000E+00 0. -1.
         21   -1    0    0  501  503 -0.00000000000E+00 -0.00000000000E+00 -0.27748240711E+03  0.27748240711E+03  0.00000000000E+00 0. -1.
          6    2    1    2  501    0 -0.14181492935E+02 -0.12206057451E+02 -0.24423407375E+03  0.29941521477E+03  0.17218909801E+03 0.  0.
         24    2    3    3    0    0  0.49691796175E+02 -0.34848519400E+02 -0.10931829140E+03  0.14836278522E+03  0.79858207422E+02 0.  0.
         -6    2    1    2    0  502  0.14181492935E+02  0.12206057451E+02  0.12956067379E+04  0.13069222636E+04  0.17058394188E+03 0.  0.
        -24    2    5    5    0    0 -0.43877190208E+02 -0.19332819736E+02  0.98217757640E+03  0.98657020610E+03  0.79680701900E+02 0.  0.
          5    1    3    3  501    0 -0.63873289110E+02  0.22642461950E+02 -0.13491578235E+03  0.15105242955E+03  0.47000000000E+01 0. -1.
        -13    1    4    4    0    0  0.18519364277E+02 -0.35044225896E+02 -0.55622856735E+01  0.40025037711E+02  0.00000000000E+00 0.  1.
         14    1    4    4    0    0  0.31172431899E+02  0.19570649583E+00 -0.10375600572E+03  0.10833774751E+03  0.00000000000E+00 0. -1.
         -5    1    5    5    0  502  0.58058683143E+02  0.31538877187E+02  0.31342916146E+03  0.32035205745E+03  0.47000000000E+01 0.  1.
         13    1    6    6    0    0 -0.34117634866E+01 -0.32822052482E+02  0.73491620486E+03  0.73565668312E+03  0.00000000000E+00 0. -1.
        -14    1    6    6    0    0 -0.40465426722E+02  0.13489232745E+02  0.24726137154E+03  0.25091352298E+03  0.00000000000E+00 0.  1.
</event>
<event>
12    1  0.8416569E-002  0.1877794E+03  0.7818608E-02  0.1160518E+00
         21   -1    0    0  503  502  0.00000000000E+00  0.00000000000E+00  0.58815668330E+03  0.58815668330E+03  0.00000000000E+00 0. -1.
         21   -1    0    0  501  503 -0.00000000000E+00 -0.00000000000E+00 -0.61210840406E+02  0.61210840406E+02  0.00000000000E+00 0. -1.
          6    2    1    2  501    0  0.50555246998E+02 -0.55879443348E+02  0.31089470398E+03  0.36311730969E+03  0.17181477947E+03 0.  0.
         24    2    3    3    0    0  0.62661367619E+02  0.25964909616E+02  0.15450028347E+03  0.18612476455E+03  0.78558684193E+02 0.  0.
         -6    2    1    2    0  502 -0.50555246998E+02  0.55879443348E+02  0.21605113892E+03  0.28625021402E+03  0.17199635232E+03 0.  0.
        -24    2    5    5    0    0 -0.60626073283E+02 -0.26431169723E+02  0.10722402794E+03  0.14934919631E+03  0.80212609837E+02 0.  0.
          5    1    3    3  501    0 -0.12106120622E+02 -0.81844352963E+02  0.15639442051E+03  0.17699254514E+03  0.47000000000E+01 0. -1.
        -13    1    4    4    0    0  0.54213372226E+01  0.16410022225E+02 -0.36498444747E+01  0.17663552626E+02  0.00000000000E+00 0.  1.
         14    1    4    4    0    0  0.57240030397E+02  0.95548873910E+01  0.15815012794E+03  0.16846121192E+03  0.00000000000E+00 0. -1.
         -5    1    5    5    0  502  0.10070826285E+02  0.82310613071E+02  0.10882711098E+03  0.13690101771E+03  0.47000000000E+01 0.  1.
         13    1    6    6    0    0 -0.24539151308E+01 -0.28287925854E+02  0.80394146298E+02  0.85261053287E+02  0.00000000000E+00 0. -1.
        -14    1    6    6    0    0 -0.58172158152E+02  0.18567561309E+01  0.26829881638E+02  0.64088143023E+02  0.00000000000E+00 0.  1.
</event>
<event>
12    1  0.8416569E-002  0.4058909E+03  0.7818608E-02  0.1041870E+00
         21   -1    0    0  501  502  0.00000000000E+00  0.00000000000E+00  0.39652303240E+03  0.39652303240E+03  0.00000000000E+00 0.  1.
         21   -1    0    0  502  503 -0.00000000000E+00 -0.00000000000E+00 -0.13795305740E+04  0.13795305740E+04  0.00000000000E+00 0. -1.
         -6    2    1    2    0  503 -0.36137312397E+03  0.59351507960E+02 -0.12341316288E+04  0.12987583804E+04  0.17198638633E+03 0.  0.
        -24    2    3    3    0    0 -0.14755464991E+03 -0.13452571712E+02 -0.37558508992E+03  0.41098418423E+03  0.76749550609E+02 0.  0.
          6    2    1    2  501    0  0.36137312397E+03 -0.59351507960E+02  0.25112408720E+03  0.47729522607E+03  0.17502653922E+03 0.  0.
         24    2    5    5    0    0  0.29708321441E+03 -0.90855676578E+02  0.15167676722E+03  0.35466747814E+03  0.79183256338E+02 0.  0.
          5    1    5    5  501    0  0.64289909563E+02  0.31504168618E+02  0.99447319976E+02  0.12262774793E+03  0.47000000000E+01 0. -1.
        -11    1    6    6    0    0  0.14056617866E+03 -0.12853266128E+02  0.38309271754E+02  0.14625887097E+03  0.00000000000E+00 0.  1.
         12    1    6    6    0    0  0.15651703575E+03 -0.78002410450E+02  0.11336749547E+03  0.20840860717E+03  0.00000000000E+00 0. -1.
         -5    1    3    3    0  503 -0.21381847406E+03  0.72804079672E+02 -0.85854653891E+03  0.88777419614E+03  0.47000000000E+01 0.  1.
         11    1    4    4    0    0 -0.55933882774E+02  0.29413263271E+02 -0.18033856990E+03  0.19109091839E+03  0.00000000000E+00 0. -1.
        -12    1    4    4    0    0 -0.91620767139E+02 -0.42865834983E+02 -0.19524652002E+03  0.21989326583E+03  0.00000000000E+00 0.  1.
</event>
<event>
12    1  0.8416569E-002  0.1765735E+03  0.7818608E-02  0.1172486E+00
         21   -1    0    0  501  502  0.00000000000E+00  0.00000000000E+00  0.14480524432E+03  0.14480524432E+03  0.00000000000E+00 0.  1.
         21   -1    0    0  502  503 -0.00000000000E+00 -0.00000000000E+00 -0.40398900231E+03  0.40398900231E+03  0.00000000000E+00 0.  1.
         -6    2    1    2    0  503 -0.38270094868E+02  0.16246055582E+02 -0.32124973325E+03  0.36657821727E+03  0.17160904341E+03 0.  0.
        -24    2    3    3    0    0 -0.34039081911E+02  0.71462845263E+02 -0.15612449193E+03  0.19235069174E+03  0.79739164027E+02 0.  0.
          6    2    1    2  501    0  0.38270094868E+02 -0.16246055582E+02  0.62065975266E+02  0.18221602936E+03  0.16619856073E+03 0.  0.
         24    2    5    5    0    0  0.69343270281E+02  0.44432532524E+01  0.84706904426E+02  0.13830371442E+03  0.84406315716E+02 0.  0.
          5    1    5    5  501    0 -0.31073175412E+02 -0.20689308834E+02 -0.22640929160E+02  0.43912314941E+02  0.47000000000E+01 0. -1.
        -11    1    6    6    0    0  0.22546561522E+02 -0.30344381398E+02  0.67740332229E+02  0.77575005829E+02  0.00000000000E+00 0.  1.
         12    1    6    6    0    0  0.46796708759E+02  0.34787634650E+02  0.16966572196E+02  0.60728708593E+02  0.00000000000E+00 0. -1.
         -5    1    3    3    0  503 -0.42310129577E+01 -0.55216789681E+02 -0.16512524132E+03  0.17422752553E+03  0.47000000000E+01 0.  1.
         13    1    4    4    0    0 -0.53688061371E+02  0.31195399515E+02 -0.11874692395E+03  0.13400146579E+03  0.00000000000E+00 0. -1.
        -14    1    4    4    0    0  0.19648979461E+02  0.40267445747E+02 -0.37377567984E+02  0.58349225952E+02  0.00000000000E+00 0.  1.
</event>
<event>
12    1  0.8416569E-002  0.2788612E+03  0.7818608E-02  0.1096411E+00
         21   -1    0    0  503  502  0.00000000000E+00  0.00000000000E+00  0.18728284996E+03  0.18728284996E+03  0.00000000000E+00 0. -1.
         21   -1    0    0  501  503 -0.00000000000E+00 -0.00000000000E+00 -0.43486367825E+03  0.43486367825E+03  0.00000000000E+00 0. -1.
          6    2    1    2  501    0  0.15119469065E+03 -0.15859961707E+03 -0.19153139059E+03  0.33770824678E+03  0.17131524551E+03 0.  0.
         24    2    3    3    0    0  0.13464852451E+03 -0.46304760176E+02 -0.12216533042E+03  0.20460058058E+03  0.81625202281E+02 0.  0.
         -6    2    1    2    0  502 -0.15119469065E+03  0.15859961707E+03 -0.56049437701E+02  0.28443828143E+03  0.17248166124E+03 0.  0.
        -24    2    5    5    0    0 -0.12599330282E+03  0.13186071085E+03  0.18229651583E+02  0.20143495524E+03  0.83559329672E+02 0.  0.
          5    1    3    3  501    0  0.16546166142E+02 -0.11229485689E+03 -0.69366060167E+02  0.13310766620E+03  0.47000000000E+01 0. -1.
        -11    1    4    4    0    0  0.14218187181E+02 -0.97451533422E+01 -0.63396839714E+02  0.65698433361E+02  0.00000000000E+00 0.  1.
         12    1    4    4    0    0  0.12043033733E+03 -0.36559606833E+02 -0.58768490709E+02  0.13890214722E+03  0.00000000000E+00 0. -1.
         -5    1    5    5    0  502 -0.25201387832E+02  0.26738906221E+02 -0.74279089284E+02  0.83003326194E+02  0.47000000000E+01 0.  1.
         13    1    6    6    0    0 -0.12357177437E+03  0.96119368303E+02 -0.84302919505E+01  0.15678005678E+03  0.00000000000E+00 0. -1.
        -14    1    6    6    0    0 -0.24215284532E+01  0.35741342542E+02  0.26659943533E+02  0.44654898454E+02  0.00000000000E+00 0.  1.
</event>
<event>
12    1  0.8416569E-002  0.1849403E+03  0.7818608E-02  0.1163337E+00
         21   -1    0    0  503  502  0.00000000000E+00  0.00000000000E+00  0.94876195811E+03  0.94876195811E+03  0.00000000000E+00 0. -1.
         21   -1    0    0  501  503 -0.00000000000E+00 -0.00000000000E+00 -0.35861382408E+02  0.35861382408E+02  0.00000000000E+00 0.  1.
          6    2    1    2  501    0  0.52411208429E+02 -0.38655779899E+02  0.46267915489E+03  0.49827191828E+03  0.17309448311E+03 0.  0.
         24    2    3    3    0    0  0.49978298134E+02 -0.88104910623E+02  0.27688881312E+03  0.30594075419E+03  0.81682462532E+02 0.  0.
         -6    2    1    2    0  502 -0.52411208429E+02  0.38655779899E+02  0.45022142081E+03  0.48635142225E+03  0.17203829246E+03 0.  0.
        -24    2    5    5    0    0 -0.38444659304E+02 -0.38111875906E+02  0.32097666917E+03  0.33530628561E+03  0.80459779439E+02 0.  0.
          5    1    3    3  501    0  0.24329102949E+01  0.49449130724E+02  0.18579034178E+03  0.19233116409E+03  0.47000000000E+01 0. -1.
        -13    1    4    4    0    0  0.45568131612E+02 -0.79473079387E+02  0.28089199936E+03  0.29545344856E+03  0.00000000000E+00 0.  1.
         14    1    4    4    0    0  0.44101665222E+01 -0.86318312356E+01 -0.40031862398E+01  0.10487305627E+02  0.00000000000E+00 0. -1.
         -5    1    5    5    0  502 -0.13966549125E+02  0.76767655805E+02  0.12924475165E+03  0.15104513663E+03  0.47000000000E+01 0.  1.
         11    1    6    6    0    0  0.14912366250E+02 -0.32031224061E+02  0.67336124137E+02  0.76042958884E+02  0.00000000000E+00 0. -1.
        -12    1    6    6    0    0 -0.53357025555E+02 -0.60806518445E+01  0.25364054503E+03  0.25926332673E+03  0.00000000000E+00 0.  1.
</event>
<event>
12    1  0.8416569E-002  0.2133816E+03  0.7818608E-02  0.1138956E+00
         21   -1    0    0  501  502  0.00000000000E+00  0.00000000000E+00  0.17659018979E+03  0.17659018979E+03  0.00000000000E+00 0. -1.
         21   -1    0    0  502  503 -0.00000000000E+00 -0.00000000000E+00 -0.26899863445E+03  0.26899863445E+03  0.00000000000E+00 0. -1.
         -6    2    1    2    0  503 -0.78097935528E+02 -0.98684288455E+02 -0.92073829773E+02  0.23220696949E+03  0.17205990302E+03 0.  0.
        -24    2    3    3    0    0 -0.14492890644E+01 -0.24903184655E+02 -0.93707263109E+02  0.12570145607E+03  0.79984597611E+02 0.  0.
          6    2    1    2  501    0  0.78097935528E+02  0.98684288455E+02 -0.33461488815E+00  0.21338185475E+03  0.17231897066E+03 0.  0.
         24    2    5    5    0    0  0.72457350116E+02  0.59392416367E+01  0.37231765383E+02  0.11304849619E+03  0.78156355856E+02 0.  0.
          5    1    5    5  501    0  0.56405854125E+01  0.92745046819E+02 -0.37566380271E+02  0.10033335856E+03  0.47000000000E+01 0. -1.
        -11    1    6    6    0    0  0.42731651622E+02 -0.34565466055E+02  0.98752577494E+01  0.55841617182E+02  0.00000000000E+00 0.  1.
         12    1    6    6    0    0  0.29725698494E+02  0.40504707692E+02  0.27356507634E+02  0.57206879010E+02  0.00000000000E+00 0. -1.
         -5    1    3    3    0  503 -0.76648646464E+02 -0.73781103800E+02  0.16334333361E+01  0.10650551341E+03  0.47000000000E+01 0.  1.
         13    1    4    4    0    0 -0.40171814888E+02 -0.19109429631E+02 -0.53523440001E+02  0.69596721488E+02  0.00000000000E+00 0. -1.
        -14    1    4    4    0    0  0.38722525824E+02 -0.57937550242E+01 -0.40183823108E+02  0.56104734587E+02  0.00000000000E+00 0.  1.
</event>
<event>
12    1  0.8416569E-002  0.1956517E+03  0.7818608E-02  0.1153603E+00
         21   -1    0    0  503  502  0.00000000000E+00  0.00000000000E+00  0.19168424274E+04  0.19168424274E+04  0.00000000000E+00 0.  1.
         21   -1    0    0  501  503 -0.00000000000E+00 -0.00000000000E+00 -0.46330078243E+02  0.46330078243E+02  0.00000000000E+00 0.  1.
          6    2    1    2  501    0  0.78859671626E+02  0.47681910899E+02  0.19324142133E+03  0.27452886485E+03  0.17184713638E+03 0.  0.
         24    2    3    3    0    0 -0.14424866620E+02 -0.13833253632E+02  0.51550121834E+02  0.94016718733E+02  0.76041387790E+02 0.  0.
         -6    2    1    2    0  502 -0.78859671626E+02 -0.47681910899E+02  0.16772709278E+04  0.16886436408E+04  0.17258959359E+03 0.  0.
        -24    2    5    5    0    0 -0.95791139377E+02 -0.12901329026E+01  0.14748363268E+04  0.14802192436E+04  0.82031770360E+02 0.  0.
          5    1    3    3  501    0  0.93284538247E+02  0.61515164532E+02  0.14169129949E+03  0.18051214612E+03  0.47000000000E+01 0. -1.
        -11    1    4    4    0    0 -0.86398053372E+01  0.29055984315E+02  0.38119228573E+02  0.48702895681E+02  0.00000000000E+00 0.  1.
         12    1    4    4    0    0 -0.57850612829E+01 -0.42889237947E+02  0.13430893261E+02  0.45313823051E+02  0.00000000000E+00 0. -1.
         -5    1    5    5    0  502  0.16931467750E+02 -0.46391777997E+02  0.20243460102E+03  0.20842439722E+03  0.47000000000E+01 0.  1.
         11    1    6    6    0    0 -0.16295999782E+02  0.25592549677E+02  0.16992764819E+03  0.17261501623E+03  0.00000000000E+00 0. -1.
        -12    1    6    6    0    0 -0.79495139594E+02 -0.26882682579E+02  0.13049086786E+04  0.13076042273E+04  0.00000000000E+00 0.  1.
</event>
<event>
12    1  0.8416569E-002  0.1769667E+03  0.7818608E-02  0.1171093E+00
         21   -1    0    0  501  502  0.00000000000E+00  0.00000000000E+00  0.42824308671E+03  0.42824308671E+03  0.00000000000E+00 0. -1.
         21   -1    0    0  502  503 -0.00000000000E+00 -0.00000000000E+00 -0.19296686577E+03  0.19296686577E+03  0.00000000000E+00 0. -1.
         -6    2    1    2    0  503 -0.40292276750E+02  0.45740510063E+00 -0.12784145501E+03  0.21726484050E+03  0.17098800108E+03 0.  0.
        -24    2    3    3    0    0  0.48069635415E+01  0.28341157752E+02 -0.13903449667E+03  0.16286981023E+03  0.79810122777E+02 0.  0.
          6    2    1    2  501    0  0.40292276750E+02 -0.45740510063E+00  0.36311767595E+03  0.40394511198E+03  0.17231810734E+03 0.  0.
         24    2    5    5    0    0 -0.43377520860E+02  0.36038443238E+01  0.22286264592E+03  0.24051105118E+03  0.79266700346E+02 0.  0.
          5    1    5    5  501    0  0.83669797610E+02 -0.40612494244E+01  0.14025503004E+03  0.16343406080E+03  0.47000000000E+01 0. -1.
        -11    1    6    6    0    0  0.13642462747E+02 -0.12889153468E+02  0.14102045759E+02  0.23475833564E+02  0.00000000000E+00 0.  1.
         12    1    6    6    0    0 -0.57019983607E+02  0.16492997792E+02  0.20876060016E+03  0.21703521761E+03  0.00000000000E+00 0. -1.
         -5    1    3    3    0  503 -0.45099240291E+02 -0.27883752651E+02  0.11193041660E+02  0.54395030273E+02  0.47000000000E+01 0.  1.
         11    1    4    4    0    0 -0.21046039694E+02 -0.13642174482E+02 -0.14594349360E+02  0.29017921094E+02  0.00000000000E+00 0. -1.
        -12    1    4    4    0    0  0.25853003235E+02  0.41983332234E+02 -0.12444014731E+03  0.13385188913E+03  0.00000000000E+00 0.  1.
</event>
<event>
12    1  0.8416569E-002  0.2066603E+03  0.7818608E-02  0.1144294E+00
         21   -1    0    0  503  502  0.00000000000E+00  0.00000000000E+00  0.45417621199E+03  0.45417621199E+03  0.00000000000E+00 0. -1.
         21   -1    0    0  501  503 -0.00000000000E+00 -0.00000000000E+00 -0.94860356952E+02  0.94860356952E+02  0.00000000000E+00 0. -1.
          6    2    1    2  501    0 -0.70173766431E+02 -0.90087655303E+02  0.15205684485E+03  0.25635113383E+03  0.17191415479E+03 0.  0.
         24    2    3    3    0    0  0.63457327368E+01 -0.49941319042E+02  0.13988149778E+03  0.16895953729E+03  0.80287534212E+02 0.  0.
         -6    2    1    2    0  502  0.70173766431E+02  0.90087655303E+02  0.20725901019E+03  0.29268543511E+03  0.17224495200E+03 0.  0.
        -24    2    5    5    0    0  0.74564296379E+02  0.49588805418E+02  0.21930091651E+03  0.24994749994E+03  0.79762001150E+02 0.  0.
          5    1    3    3  501    0 -0.76519499168E+02 -0.40146336262E+02  0.12175347067E+02  0.87391596532E+02  0.47000000000E+01 0. -1.
        -11    1    4    4    0    0 -0.25569003155E+02  0.34603701372E+01  0.16070703167E+02  0.30397624646E+02  0.00000000000E+00 0.  1.
         12    1    4    4    0    0  0.31914735891E+02 -0.53401689179E+02  0.12381079461E+03  0.13856191265E+03  0.00000000000E+00 0. -1.
         -5    1    5    5    0  502 -0.43905299476E+01  0.40498849886E+02 -0.12041906317E+02  0.42737935175E+02  0.47000000000E+01 0.  1.
         11    1    6    6    0    0  0.13097404137E+02 -0.49270164557E+01  0.12111896314E+03  0.12192465181E+03  0.00000000000E+00 0. -1.
        -12    1    6    6    0    0  0.61466892242E+02  0.54515821874E+02  0.98181953364E+02  0.12802284813E+03  0.00000000000E+00 0.  1.
</event>
<event>
12    1  0.8416569E-002  0.2444411E+03  0.7818608E-02  0.1116906E+00
         21   -1    0    0  503  502  0.00000000000E+00  0.00000000000E+00  0.56774636765E+02  0.56774636765E+02  0.00000000000E+00 0. -1.
         21   -1    0    0  501  503 -0.00000000000E+00 -0.00000000000E+00 -0.12893199790E+04  0.12893199790E+04  0.00000000000E+00 0.  1.
          6    2    1    2  501    0  0.79180562637E+02 -0.15432135565E+03 -0.90559394335E+03  0.93800417689E+03  0.17224053917E+03 0.  0.
         24    2    3    3    0    0  0.74485782645E+02 -0.17393687200E+03 -0.87920085316E+03  0.90445578422E+03  0.96145505135E+02 0.  0.
         -6    2    1    2    0  502 -0.79180562637E+02  0.15432135565E+03 -0.32695139891E+03  0.40809043889E+03  0.17191843054E+03 0.  0.
        -24    2    5    5    0    0 -0.93525264885E+02  0.10896012811E+03 -0.14086730765E+03  0.21596342240E+03  0.78595908047E+02 0.  0.
          5    1    3    3  501    0  0.46947799918E+01  0.19615516357E+02 -0.26393090185E+02  0.33548392669E+02  0.47000000000E+01 0. -1.
        -11    1    4    4    0    0  0.38798524243E+02 -0.42103820092E+02 -0.11868175118E+03  0.13177031233E+03  0.00000000000E+00 0.  1.
         12    1    4    4    0    0  0.35687258402E+02 -0.13183305191E+03 -0.76051910199E+03  0.77268547189E+03  0.00000000000E+00 0. -1.
         -5    1    5    5    0  502  0.14344702248E+02  0.45361227541E+02 -0.18608409125E+03  0.19212701649E+03  0.47000000000E+01 0.  1.
         11    1    6    6    0    0 -0.99190858916E+02  0.73595039501E+02 -0.12808478637E+03  0.17793473194E+03  0.00000000000E+00 0. -1.
        -12    1    6    6    0    0  0.56655940313E+01  0.35365088605E+02 -0.12782521282E+02  0.38028690460E+02  0.00000000000E+00 0.  1.
</event>
<event>
12    1  0.8416569E-002  0.2167971E+03  0.7818608E-02  0.1136371E+00
         21   -1    0    0  501  502  0.00000000000E+00  0.00000000000E+00  0.33584164029E+03  0.33584164029E+03  0.00000000000E+00 0. -1.
         21   -1    0    0  502  503 -0.00000000000E+00 -0.00000000000E+00 -0.14843721388E+03  0.14843721388E+03  0.00000000000E+00 0. -1.
         -6    2    1    2    0  503  0.10338682568E+03 -0.79664453061E+02  0.34999821195E+02  0.21960410432E+03  0.17310607830E+03 0.  0.
        -24    2    3    3    0    0  0.17300927703E+02 -0.47945687348E+02 -0.38692326384E+02  0.10183532856E+03  0.79216330306E+02 0.  0.
          6    2    1    2  501    0 -0.10338682568E+03  0.79664453061E+02  0.15240460522E+03  0.26467474986E+03  0.17259866372E+03 0.  0.
         24    2    5    5    0    0 -0.17664710702E+02  0.36523004463E+02  0.50274616298E+01  0.88744144123E+02  0.78767225966E+02 0.  0.
          5    1    5    5  501    0 -0.85722114976E+02  0.43141448598E+02  0.14737714359E+03  0.17593060574E+03  0.47000000000E+01 0. -1.
        -11    1    6    6    0    0  0.26260788570E+02 -0.65325210555E+01  0.42824009772E+00  0.27064482948E+02  0.00000000000E+00 0.  1.
         12    1    6    6    0    0 -0.43925499272E+02  0.43055525518E+02  0.45992215320E+01  0.61679661175E+02  0.00000000000E+00 0. -1.
         -5    1    3    3    0  503  0.86085897974E+02 -0.31718765714E+02  0.73692147579E+02  0.11776877576E+03  0.47000000000E+01 0.  1.
         11    1    4    4    0    0  0.35079541579E+02 -0.62075575897E+02 -0.32051844590E+02  0.78174625691E+02  0.00000000000E+00 0. -1.
        -12    1    4    4    0    0 -0.17778613875E+02  0.14129888550E+02 -0.66404817943E+01  0.23660702868E+02  0.00000000000E+00 0.  1.
</event>
<event>
12    1  0.8416569E-002  0.1814354E+03  0.7818608E-02  0.1166607E+00
         21   -1    0    0  503  502  0.00000000000E+00  0.00000000000E+00  0.37032223827E+03  0.37032223827E+03  0.00000000000E+00 0. -1.
         21   -1    0    0  501  503 -0.00000000000E+00 -0.00000000000E+00 -0.95263157462E+02  0.95263157462E+02  0.00000000000E+00 0. -1.
          6    2    1    2  501    0 -0.34342507161E+02  0.46167932694E+02  0.75833008825E+02  0.19664547337E+03  0.17206949515E+03 0.  0.
         24    2    3    3    0    0  0.43094489523E+02  0.52143686018E+02  0.56738161780E+02  0.11652742754E+03  0.76048164660E+02 0.  0.
         -6    2    1    2    0  502  0.34342507161E+02 -0.46167932694E+02  0.19922607198E+03  0.26893992236E+03  0.17125060081E+03 0.  0.
        -24    2    5    5    0    0  0.50677058541E+02 -0.61797705307E+02  0.21445411316E+03  0.24127965123E+03  0.76408002235E+02 0.  0.
          5    1    3    3  501    0 -0.77436996684E+02 -0.59757533241E+01  0.19094847045E+02  0.80118045825E+02  0.47000000000E+01 0. -1.
        -13    1    4    4    0    0 -0.47003474911E+00 -0.15453333179E+02  0.26365102558E+02  0.30563786936E+02  0.00000000000E+00 0.  1.
         14    1    4    4    0    0  0.43564524272E+02  0.67597019197E+02  0.30373059223E+02  0.85963640604E+02  0.00000000000E+00 0. -1.
         -5    1    5    5    0  502 -0.16334551381E+02  0.15629772613E+02 -0.15228041179E+02  0.27660271128E+02  0.47000000000E+01 0.  1.
         13    1    6    6    0    0  0.51566076498E+02 -0.46599625179E+01  0.81376378781E+02  0.96451493092E+02  0.00000000000E+00 0. -1.
        -14    1    6    6    0    0 -0.88901795679E+00 -0.57137742789E+02  0.13307773438E+03  0.14482815814E+03  0.00000000000E+00 0.  1.
</event>
<event>
12    1  0.8416569E-002  0.2121995E+03  0.7818608E-02  0.1140003E+00
         21   -1    0    0  503  502  0.00000000000E+00  0.00000000000E+00  0.72460533595E+03  0.72460533595E+03  0.00000000000E+00 0. -1.
         21   -1    0    0  501  503 -0.00000000000E+00 -0.00000000000E+00 -0.96660227065E+02  0.96660227065E+02  0.00000000000E+00 0. -1.
          6    2    1    2  501    0 -0.11080676687E+03  0.58222412677E+02  0.67292459441E+02  0.22179910600E+03  0.17028969259E+03 0.  0.
         24    2    3    3    0    0 -0.62147151011E+02 -0.72006812614E+01 -0.19189899777E+02  0.10284857892E+03  0.79343933249E+02 0.  0.
         -6    2    1    2    0  502  0.11080676687E+03 -0.58222412677E+02  0.56065264945E+03  0.59946645702E+03  0.17134949909E+03 0.  0.
        -24    2    5    5    0    0  0.25813011417E+02 -0.55164862592E+02  0.44602401497E+03  0.45665503969E+03  0.76726330041E+02 0.  0.
          5    1    3    3  501    0 -0.48659615856E+02  0.65423093938E+02  0.86482359218E+02  0.11895052708E+03  0.47000000000E+01 0. -1.
        -11    1    4    4    0    0  0.18860257726E+02 -0.26026621030E+01 -0.90473181110E+01  0.21079305883E+02  0.00000000000E+00 0.  1.
         12    1    4    4    0    0 -0.81007408737E+02 -0.45980191584E+01 -0.10142581666E+02  0.81769273039E+02  0.00000000000E+00 0. -1.
         -5    1    5    5    0  502  0.84993755450E+02 -0.30575500843E+01  0.11462863448E+03  0.14281141733E+03  0.47000000000E+01 0.  1.
         13    1    6    6    0    0  0.38217936146E+02 -0.68068054718E+02  0.32096717568E+03  0.33032377841E+03  0.00000000000E+00 0. -1.
        -14    1    6    6    0    0 -0.12404924729E+02  0.12903192126E+02  0.12505683929E+03  0.12633126128E+03  0.00000000000E+00 0.  1.
</event>
<event>
12    1  0.8416569E-002  0.3041113E+03  0.7818608E-02  0.1083265E+00
         21   -1    0    0  503  502  0.00000000000E+00  0.00000000000E+00  0.42768469483E+03  0.42768469483E+03  0.00000000000E+00 0. -1.
         21   -1    0    0  501  503 -0.00000000000E+00 -0.00000000000E+00 -0.35528284425E+03  0.35528284425E+03  0.00000000000E+00 0.  1.
          6    2    1    2  501    0 -0.65678412879E+02 -0.24188486847E+03  0.28143860717E+03  0.41435661179E+03  0.17222592319E+03 0.  0.
         24    2    3    3    0    0 -0.22211731531E+02 -0.22053904918E+03  0.16355965504E+03  0.28683197204E+03  0.79937389220E+02 0.  0.
         -6    2    1    2    0  502  0.65678412879E+02  0.24188486847E+03 -0.20903675659E+03  0.36861092729E+03  0.17133507113E+03 0.  0.
        -24    2    5    5    0    0  0.13959994648E+01  0.14460518853E+03 -0.57483124681E+02  0.17733584227E+03  0.85035768745E+02 0.  0.
          5    1    3    3  501    0 -0.43466681348E+02 -0.21345819281E+02  0.11787895213E+03  0.12752463975E+03  0.47000000000E+01 0. -1.
        -11    1    4    4    0    0 -0.51600245528E+02 -0.16116878643E+03  0.12217873567E+03  0.20872375645E+03  0.00000000000E+00 0.  1.
         12    1    4    4    0    0  0.29388513997E+02 -0.59370262756E+02  0.41380919369E+02  0.78108215589E+02  0.00000000000E+00 0. -1.
         -5    1    5    5    0  502  0.64282413414E+02  0.97279679931E+02 -0.15155363191E+03  0.19127508501E+03  0.47000000000E+01 0.  1.
         13    1    6    6    0    0 -0.21486274064E+02  0.17868893951E+00 -0.87623161543E+01  0.23204958248E+02  0.00000000000E+00 0. -1.
        -14    1    6    6    0    0  0.22882273529E+02  0.14442649959E+03 -0.48720808527E+02  0.15413088403E+03  0.00000000000E+00 0.  1.
</event>
<event>
12    1  0.8416569E-002  0.2402100E+03  0.7818608E-02  0.1119700E+00
         21   -1    0    0  503  502  0.00000000000E+00  0.00000000000E+00  0.36649525774E+02  0.36649525774E+02  0.00000000000E+00 0.  1.
         21   -1    0    0  501  503 -0.00000000000E+00 -0.00000000000E+00 -0.17183332741E+04  0.17183332741E+04  0.00000000000E+00 0.  1.
          6    2    1    2  501    0  0.13377229946E+03  0.10010533732E+03 -0.10959839694E+04  0.11219384943E+04  0.17218889932E+03 0.  0.
         24    2    3    3    0    0  0.23003296198E+02  0.73986928111E+02 -0.37399327953E+03  0.39101812264E+03  0.83791299860E+02 0.  0.
         -6    2    1    2    0  502 -0.13377229946E+03 -0.10010533732E+03 -0.58569977888E+03  0.63304430557E+03  0.17258260392E+03 0.  0.
        -24    2    5    5    0    0 -0.34077659921E+02 -0.22110002754E+02 -0.15054853542E+03  0.17983244778E+03  0.89580738038E+02 0.  0.
          5    1    3    3  501    0  0.11076900326E+03  0.26118409211E+02 -0.72199068991E+03  0.73092037165E+03  0.47000000000E+01 0. -1.
        -11    1    4    4    0    0  0.21560084216E+02 -0.12881712115E+02 -0.11927590024E+03  0.12189141117E+03  0.00000000000E+00 0.  1.
         12    1    4    4    0    0  0.14432119820E+01  0.86868640227E+02 -0.25471737929E+03  0.26912671148E+03  0.00000000000E+00 0. -1.
         -5    1    5    5    0  502 -0.99694639536E+02 -0.77995334568E+02 -0.43515124346E+03  0.45321185780E+03  0.47000000000E+01 0.  1.
         11    1    6    6    0    0  0.11955963629E+01 -0.44093295037E+02 -0.12113121071E+03  0.12891244442E+03  0.00000000000E+00 0. -1.
        -12    1    6    6    0    0 -0.35273256284E+02  0.21983292283E+02 -0.29417324710E+02  0.50920003354E+02  0.00000000000E+00 0.  1.
</event>
<event>
12    1  0.8416569E-002  0.2514399E+03  0.7818608E-02  0.1112605E+00
         21   -1    0    0  503  502  0.00000000000E+00  0.00000000000E+00  0.26885564590E+03  0.26885564590E+03  0.00000000000E+00 0.  1.
         21   -1    0    0  501  503 -0.00000000000E+00 -0.00000000000E+00 -0.34721167124E+04  0.34721167124E+04  0.00000000000E+00 0.  1.
          6    2    1    2  501    0  0.11132648959E+03 -0.14505715520E+03 -0.34082903756E+04  0.34175525309E+04  0.17258867682E+03 0.  0.
         24    2    3    3    0    0  0.13793138483E+03 -0.10076867675E+03 -0.29842296690E+04  0.29903302671E+04  0.85258406984E+02 0.  0.
         -6    2    1    2    0  502 -0.11132648959E+03  0.14505715520E+03  0.20502930909E+03  0.32341982742E+03  0.17066986148E+03 0.  0.
        -24    2    5    5    0    0 -0.57428480176E+01  0.98054859444E+02  0.14682014432E+03  0.19393037596E+03  0.80031869763E+02 0.  0.
          5    1    3    3  501    0 -0.26604895238E+02 -0.44288478446E+02 -0.42406070658E+03  0.42722226375E+03  0.47000000000E+01 0. -1.
        -11    1    4    4    0    0 -0.11630556237E+02 -0.26607634879E+01 -0.16299719675E+03  0.16343327583E+03  0.00000000000E+00 0.  1.
         12    1    4    4    0    0  0.14956194107E+03 -0.98107913267E+02 -0.28212324722E+04  0.28268969913E+04  0.00000000000E+00 0. -1.
         -5    1    5    5    0  502 -0.10558364157E+03  0.47002295757E+02  0.58209164773E+02  0.12948945146E+03  0.47000000000E+01 0.  1.
         11    1    6    6    0    0 -0.26129909875E+02  0.12567286673E+02  0.75074377573E+02  0.80479010012E+02  0.00000000000E+00 0. -1.
        -12    1    6    6    0    0  0.20387061858E+02  0.85487572771E+02  0.71745766748E+02  0.11345136595E+03  0.00000000000E+00 0.  1.
</event>
<event>
12    1  0.8416569E-002  0.1802319E+03  0.7818608E-02  0.1168113E+00
         21   -1    0    0  503  502  0.00000000000E+00  0.00000000000E+00  0.14129281619E+04  0.14129281619E+04  0.00000000000E+00 0.  1.
         21   -1    0    0  501  503 -0.00000000000E+00 -0.00000000000E+00 -0.34275263080E+02  0.34275263080E+02  0.00000000000E+00 0. -1.
          6    2    1    2  501    0 -0.18398885531E+02 -0.45751477606E+02  0.27182107114E+03  0.32614448736E+03  0.17335459389E+03 0.  0.
         24    2    3    3    0    0  0.29542489866E+02 -0.75665890937E+02  0.22390096662E+03  0.25190383799E+03  0.82011066230E+02 0.  0.
         -6    2    1    2    0  502  0.18398885531E+02  0.45751477606E+02  0.11068318277E+04  0.11210589377E+04  0.17106937243E+03 0.  0.
        -24    2    5    5    0    0  0.61006221229E+02  0.26911268306E+01  0.89477764690E+03  0.90047189256E+03  0.80582818992E+02 0.  0.
          5    1    3    3  501    0 -0.47941375397E+02  0.29914413331E+02  0.47920104525E+02  0.74240649361E+02  0.47000000000E+01 0. -1.
        -13    1    4    4    0    0 -0.36919892638E+01 -0.66533920451E+02  0.19764513574E+03  0.20857610850E+03  0.00000000000E+00 0.  1.
         14    1    4    4    0    0  0.33234479130E+02 -0.91319704861E+01  0.26255830881E+02  0.43327729496E+02  0.00000000000E+00 0. -1.
         -5    1    5    5    0  502 -0.42607335698E+02  0.43060350776E+02  0.21205418081E+03  0.22058704510E+03  0.47000000000E+01 0.  1.
         11    1    6    6    0    0  0.91057821547E+01 -0.19744649077E+02  0.60644040051E+02  0.64424110623E+02  0.00000000000E+00 0. -1.
        -12    1    6    6    0    0  0.51900439074E+02  0.22435775908E+02  0.83413360685E+03  0.83604778194E+03  0.00000000000E+00 0.  1.
</event>
<event>
12    1  0.8416569E-002  0.2850126E+03  0.7818608E-02  0.1093322E+00
         21   -1    0    0  503  502  0.00000000000E+00  0.00000000000E+00  0.56308916811E+03  0.56308916811E+03  0.00000000000E+00 0.  1.
         21   -1    0    0  501  503 -0.00000000000E+00 -0.00000000000E+00 -0.18183679595E+03  0.18183679595E+03  0.00000000000E+00 0.  1.
          6    2    1    2  501    0  0.20111984573E+03  0.10632534989E+03  0.19122077926E+02  0.28565336029E+03  0.17169133935E+03 0.  0.
         24    2    3    3    0    0  0.79529069915E+02  0.19908084615E+02 -0.45508646597E+02  0.12301424737E+03  0.79625770613E+02 0.  0.
         -6    2    1    2    0  502 -0.20111984573E+03 -0.10632534989E+03  0.36213029423E+03  0.45927260376E+03  0.16744761028E+03 0.  0.
        -24    2    5    5    0    0 -0.20642817075E+03 -0.12308944041E+03  0.36081818639E+03  0.44102364016E+03  0.80922725695E+02 0.  0.
          5    1    3    3  501    0  0.12159077581E+03  0.86417265277E+02  0.64630724524E+02  0.16263911293E+03  0.47000000000E+01 0. -1.
        -11    1    4    4    0    0 -0.81707771228E+01  0.16016856212E+02  0.85589778629E+01  0.19913748612E+02  0.00000000000E+00 0.  1.
         12    1    4    4    0    0  0.87699847038E+02  0.38912284030E+01 -0.54067624460E+02  0.10310049876E+03  0.00000000000E+00 0. -1.
         -5    1    5    5    0  502  0.53083250203E+01  0.16764090517E+02  0.13121078429E+01  0.18248963597E+02  0.47000000000E+01 0.  1.
         13    1    6    6    0    0 -0.17018175207E+02 -0.45179035342E+02  0.80305281239E+02  0.93700062522E+02  0.00000000000E+00 0. -1.
        -14    1    6    6    0    0 -0.18940999554E+03 -0.77910405068E+02  0.28051290515E+03  0.34732357764E+03  0.00000000000E+00 0.  1.
</event>
<event>
12    1  0.8416569E-002  0.1933557E+03  0.7818608E-02  0.1156303E+00
         21   -1    0    0  503  502  0.00000000000E+00  0.00000000000E+00  0.87740375310E+02  0.87740375310E+02  0.00000000000E+00 0. -1.
         21   -1    0    0  501  503 -0.00000000000E+00 -0.00000000000E+00 -0.68395703118E+03  0.68395703118E+03  0.00000000000E+00 0.  1.
          6    2    1    2  501    0  0.67105000656E+02 -0.54897079910E+02 -0.55678227315E+02  0.19761709596E+03  0.16862882649E+03 0.  0.
         24    2    3    3    0    0  0.51749278525E+02  0.17724764969E+02 -0.75151758219E+02  0.12073381454E+03  0.77050062230E+02 0.  0.
         -6    2    1    2    0  502 -0.67105000656E+02  0.54897079910E+02 -0.54053842855E+03  0.57408031052E+03  0.17282835328E+03 0.  0.
        -24    2    5    5    0    0 -0.12548576196E+02  0.49289428514E+02 -0.13700065465E+03  0.16680561924E+03  0.80424005775E+02 0.  0.
          5    1    3    3  501    0  0.15355722131E+02 -0.72621844880E+02  0.19473530904E+02  0.76883281419E+02  0.47000000000E+01 0. -1.
        -13    1    4    4    0    0  0.69432011531E+02  0.27009498188E+02 -0.58237642161E+02  0.94561832586E+02  0.00000000000E+00 0.  1.
         14    1    4    4    0    0 -0.17682733006E+02 -0.92847332186E+01 -0.16914116058E+02  0.26171981957E+02  0.00000000000E+00 0. -1.
         -5    1    5    5    0  502 -0.54556424460E+02  0.56076513968E+01 -0.40353777390E+03  0.40727469129E+03  0.47000000000E+01 0.  1.
         13    1    6    6    0    0 -0.71709129652E+01 -0.12111166374E+02 -0.85020141801E+02  0.86177298957E+02  0.00000000000E+00 0. -1.
        -14    1    6    6    0    0 -0.53776632304E+01  0.61400594887E+02 -0.51980512854E+02  0.80628320279E+02  0.00000000000E+00 0.  1.
</event>
<event>
12    1  0.8416569E-002  0.2017224E+03  0.7818608E-02  0.1149073E+00
         21   -1    0    0  503  502  0.00000000000E+00  0.00000000000E+00  0.24250108674E+03  0.24250108674E+03  0.00000000000E+00 0.  1.
         21   -1    0    0  501  503 -0.00000000000E+00 -0.00000000000E+00 -0.17650790002E+03  0.17650790002E+03  0.00000000000E+00 0. -1.
          6    2    1    2  501    0  0.68330958947E+02  0.82662034041E+02 -0.20814948413E+02  0.20279348483E+03  0.17085023731E+03 0.  0.
         24    2    3    3    0    0  0.63712288187E+02  0.89826991852E+02 -0.69578155588E+02  0.15306814809E+03  0.80377820904E+02 0.  0.
         -6    2    1    2    0  502 -0.68330958947E+02 -0.82662034041E+02  0.86808135127E+02  0.21621550193E+03  0.16646729146E+03 0.  0.
        -24    2    5    5    0    0 -0.84286599017E+02 -0.26196029081E+02  0.10044130831E+03  0.15579244692E+03  0.79952281946E+02 0.  0.
          5    1    3    3  501    0  0.46186707596E+01 -0.71649578106E+01  0.48763207175E+02  0.49725336741E+02  0.47000000000E+01 0. -1.
        -11    1    4    4    0    0 -0.54228769332E+01  0.29442088182E+02  0.10020018128E+02  0.31569683464E+02  0.00000000000E+00 0.  1.
         12    1    4    4    0    0  0.69135165121E+02  0.60384903670E+02 -0.79598173716E+02  0.12149846463E+03  0.00000000000E+00 0. -1.
         -5    1    5    5    0  502  0.15955640070E+02 -0.56466004960E+02 -0.13633173178E+02  0.60423055013E+02  0.47000000000E+01 0.  1.
         13    1    6    6    0    0 -0.19702092262E+02 -0.37655110018E+02  0.93032686722E+01  0.43504374010E+02  0.00000000000E+00 0. -1.
        -14    1    6    6    0    0 -0.64584506755E+02  0.11459080938E+02  0.91138039633E+02  0.11228807291E+03  0.00000000000E+00 0.  1.
</event>
<event>
12    1  0.8416569E-002  0.2204141E+03  0.7818608E-02  0.1133730E+00
         21   -1    0    0  503  502  0.00000000000E+00  0.00000000000E+00  0.41226544396E+02  0.41226544396E+02  0.00000000000E+00 0.  1.
         21   -1    0    0  501  503 -0.00000000000E+00 -0.00000000000E+00 -0.18498926165E+04  0.18498926165E+04  0.00000000000E+00 0. -1.
          6    2    1    2  501    0 -0.33429601966E+02 -0.13303019370E+03 -0.14748062256E+04  0.14910631769E+04  0.17146843433E+03 0.  0.
         24    2    3    3    0    0 -0.32471976145E+02 -0.25402180918E+02 -0.35971402200E+03  0.37077865121E+03  0.79893244605E+02 0.  0.
         -6    2    1    2    0  502  0.33429601966E+02  0.13303019370E+03 -0.33385984655E+03  0.40005598396E+03  0.17253354004E+03 0.  0.
        -24    2    5    5    0    0 -0.22274247148E+02  0.11671292233E+03 -0.14939279904E+03  0.20661515639E+03  0.79079492423E+02 0.  0.
          5    1    3    3  501    0 -0.95762582028E+00 -0.10762801278E+03 -0.11150922036E+04  0.11202845257E+04  0.47000000000E+01 0. -1.
        -11    1    4    4    0    0  0.26633149586E+02 -0.65098083111E+01 -0.94092765473E+02  0.98005871127E+02  0.00000000000E+00 0.  1.
         12    1    4    4    0    0 -0.59105125732E+02 -0.18892372607E+02 -0.26562125653E+03  0.27277278008E+03  0.00000000000E+00 0. -1.
         -5    1    5    5    0  502  0.55703849114E+02  0.16317271367E+02 -0.18446704751E+03  0.19344082757E+03  0.47000000000E+01 0.  1.
         13    1    6    6    0    0  0.96039995213E+01  0.10025785178E+03 -0.13386974319E+03  0.16752606302E+03  0.00000000000E+00 0. -1.
        -14    1    6    6    0    0 -0.31878246670E+02  0.16455070546E+02 -0.15523055848E+02  0.39089093367E+02  0.00000000000E+00 0.  1.
</event>
<event>
12    1  0.8416569E-002  0.2162977E+03  0.7818608E-02  0.1136716E+00
         21   -1    0    0  501  502  0.00000000000E+00  0.00000000000E+00  0.10923173851E+04  0.10923173851E+04  0.00000000000E+00 0. -1.
         21   -1    0    0  502  503 -0.00000000000E+00 -0.00000000000E+00 -0.14268371699E+03  0.14268371699E+03  0.00000000000E+00 0. -1.
         -6    2    1    2    0  503 -0.13106946390E+03  0.16077210561E+00 -0.41795557383E+02  0.22029882929E+03  0.17206241704E+03 0.  0.
        -24    2    3    3    0    0 -0.62585369752E+02  0.42163361783E+02  0.27419515566E+02  0.11415220893E+03  0.81143202959E+02 0.  0.
          6    2    1    2  501    0  0.13106946390E+03 -0.16077210561E+00  0.99142922546E+03  0.10147022728E+04  0.17178347720E+03 0.  0.
         24    2    5    5    0    0  0.83060808092E+02  0.39201038730E+02  0.36066368455E+03  0.38087150608E+03  0.80925839614E+02 0.  0.
          5    1    5    5  501    0  0.48008655804E+02 -0.39361810836E+02  0.63076554092E+03  0.63383076668E+03  0.47000000000E+01 0. -1.
        -11    1    6    6    0    0 -0.25407658720E+01 -0.18768286373E+02  0.50743751428E+02  0.54163016659E+02  0.00000000000E+00 0.  1.
         12    1    6    6    0    0  0.85601573964E+02  0.57969325103E+02  0.30991993312E+03  0.32670848942E+03  0.00000000000E+00 0. -1.
         -5    1    3    3    0  503 -0.68484094144E+02 -0.42002589677E+02 -0.69215072949E+02  0.10614662036E+03  0.47000000000E+01 0.  1.
         13    1    4    4    0    0 -0.50784949062E+02  0.29460063424E+02 -0.21287406425E+02  0.62451261480E+02  0.00000000000E+00 0. -1.
        -14    1    4    4    0    0 -0.11800420690E+02  0.12703298359E+02  0.48706921990E+02  0.51700947452E+02  0.00000000000E+00 0.  1.
</event>
<event>
12    1  0.8416569E-002  0.1983958E+03  0.7818608E-02  0.1151290E+00
         21   -1    0    0  503  502  0.00000000000E+00  0.00000000000E+00  0.15675416493E+04  0.15675416493E+04  0.00000000000E+00 0. -1.
         21   -1    0    0  501  503 -0.00000000000E+00 -0.00000000000E+00 -0.25389800536E+02  0.25389800536E+02  0.00000000000E+00 0.  1.
          6    2    1    2  501    0 -0.63674911116E+02 -0.75239446501E+02  0.87184381173E+03  0.89413227943E+03  0.17217849008E+03 0.  0.
         24    2    3    3    0    0 -0.47380996738E+02 -0.60424959309E+02  0.86258527642E+03  0.86978538737E+03  0.81099484813E+02 0.  0.
         -6    2    1    2    0  502  0.63674911116E+02  0.75239446501E+02  0.67030803708E+03  0.69879917046E+03  0.17114890429E+03 0.  0.
        -24    2    5    5    0    0  0.94086883640E+02  0.27622210503E+02  0.56737404147E+03  0.58128412167E+03  0.79765901206E+02 0.  0.
          5    1    3    3  501    0 -0.16293914377E+02 -0.14814487191E+02  0.92585353120E+01  0.24346892052E+02  0.47000000000E+01 0. -1.
        -13    1    4    4    0    0 -0.15300177128E+02  0.23473639667E+01  0.26173997481E+02  0.30408611969E+02  0.00000000000E+00 0.  1.
         14    1    4    4    0    0 -0.32080819610E+02 -0.62772323276E+02  0.83641127894E+03  0.83937677540E+03  0.00000000000E+00 0. -1.
         -5    1    5    5    0  502 -0.30411972525E+02  0.47617235998E+02  0.10293399562E+03  0.11751504878E+03  0.47000000000E+01 0.  1.
         11    1    6    6    0    0  0.21521832469E+02  0.16115186272E+02  0.36494625139E+03  0.36593531519E+03  0.00000000000E+00 0. -1.
        -12    1    6    6    0    0  0.72565051171E+02  0.11507024230E+02  0.20242779008E+03  0.21534880648E+03  0.00000000000E+00 0.  1.
</event>
<event>
12    1  0.8416569E-002  0.1920533E+03  0.7818608E-02  0.1157715E+00
         21   -1    0    0  501  502  0.00000000000E+00  0.00000000000E+00  0.15209096212E+03  0.15209096212E+03  0.00000000000E+00 0. -1.
         21   -1    0    0  502  503 -0.00000000000E+00 -0.00000000000E+00 -0.27463279430E+03  0.27463279430E+03  0.00000000000E+00 0. -1.
         -6    2    1    2    0  503 -0.68908303897E+02 -0.17767617446E+02 -0.14151029697E+03  0.23855737249E+03  0.17838277172E+03 0.  0.
        -24    2    3    3    0    0 -0.91406270926E+02 -0.52153953177E+02 -0.14598748474E+03  0.19695552378E+03  0.80024942690E+02 0.  0.
          6    2    1    2  501    0  0.68908303897E+02  0.17767617446E+02  0.18968464790E+02  0.18816638393E+03  0.17315525637E+03 0.  0.
         24    2    5    5    0    0  0.77842520342E+02  0.64663447581E+02 -0.14114588779E+02  0.12989445637E+03  0.80203047038E+02 0.  0.
          5    1    5    5  501    0 -0.89342164446E+01 -0.46895830135E+02  0.33083053569E+02  0.58271927555E+02  0.47000000000E+01 0. -1.
        -13    1    6    6    0    0  0.31018274705E+02 -0.71323688023E+01 -0.28807542389E+02  0.42928761326E+02  0.00000000000E+00 0.  1.
         14    1    6    6    0    0  0.46824245636E+02  0.71795816383E+02  0.14692953610E+02  0.86965695049E+02  0.00000000000E+00 0. -1.
         -5    1    3    3    0  503  0.22497967029E+02  0.34386335731E+02  0.44771877687E+01  0.41601848706E+02  0.47000000000E+01 0.  1.
         13    1    4    4    0    0 -0.55038784434E+02 -0.51519027212E+02 -0.14146927878E+03  0.16030294693E+03  0.00000000000E+00 0. -1.
        -14    1    4    4    0    0 -0.36367486491E+02 -0.63492596479E+00 -0.45182059565E+01  0.36652576850E+02  0.00000000000E+00 0.  1.
</event>
<event>
12    1  0.8416569E-002  0.2724655E+03  0.7818608E-02  0.1099924E+00
         21   -1    0    0  503  502  0.00000000000E+00  0.00000000000E+00  0.31293566170E+03  0.31293566170E+03  0.00000000000E+00 0.  1.
         21   -1    0    0  501  503 -0.00000000000E+00 -0.00000000000E+00 -0.56620024060E+03  0.56620024060E+03  0.00000000000E+00 0.  1.
          6    2    1    2  501    0 -0.18372822345E+03 -0.10310441541E+03 -0.46180665237E+03  0.53602189636E+03  0.17224258661E+03 0.  0.
         24    2    3    3    0    0 -0.17016423743E+03 -0.56286054884E+02 -0.21858192306E+03  0.28791647614E+03  0.54716107946E+02 0.  0.
         -6    2    1    2    0  502  0.18372822345E+03  0.10310441541E+03  0.20854207347E+03  0.34311400593E+03  0.17277396821E+03 0.  0.
        -24    2    5    5    0    0  0.65820716300E+02 -0.76284561604E+01  0.49163419707E+02  0.11598498013E+03  0.81516340325E+02 0.  0.
          5    1    3    3  501    0 -0.13563986018E+02 -0.46818360529E+02 -0.24322472930E+03  0.24810542022E+03  0.47000000000E+01 0. -1.
        -11    1    4    4    0    0 -0.12045242138E+03 -0.56407937056E+02 -0.18529346726E+03  0.22808838240E+03  0.00000000000E+00 0.  1.
         12    1    4    4    0    0 -0.49711816052E+02  0.12188217146E+00 -0.33288455806E+02  0.59828093739E+02  0.00000000000E+00 0. -1.
         -5    1    5    5    0  502  0.11790750715E+03  0.11073287157E+03  0.15937865376E+03  0.22712902581E+03  0.47000000000E+01 0.  1.
         11    1    6    6    0    0  0.80267061610E+02 -0.19763604310E+02  0.50834828398E+02  0.97044221946E+02  0.00000000000E+00 0. -1.
        -12    1    6    6    0    0 -0.14446345310E+02  0.12135148149E+02 -0.16714086915E+01  0.18940758180E+02  0.00000000000E+00 0.  1.
</event>
<event>
12    1  0.8416569E-002  0.1839277E+03  0.7818608E-02  0.1164255E+00
         21   -1    0    0  503  502  0.00000000000E+00  0.00000000000E+00  0.72959828089E+03  0.72959828089E+03  0.00000000000E+00 0.  1.
         21   -1    0    0  501  503 -0.00000000000E+00 -0.00000000000E+00 -0.66599682597E+02  0.66599682597E+02  0.00000000000E+00 0.  1.
          6    2    1    2  501    0  0.63063228998E+02  0.12596977458E+01  0.11145517356E+03  0.21506197439E+03  0.17277395471E+03 0.  0.
         24    2    3    3    0    0 -0.13415198111E+02  0.33460835237E+02  0.15547811370E+02  0.88151867658E+02  0.78926689390E+02 0.  0.
         -6    2    1    2    0  502 -0.63063228998E+02 -0.12596977458E+01  0.55154342473E+03  0.58113598909E+03  0.17187300768E+03 0.  0.
        -24    2    5    5    0    0  0.14573022240E+02  0.39543356052E+02  0.31847658780E+03  0.33206869461E+03  0.84060876616E+02 0.  0.
          5    1    3    3  501    0  0.76478427110E+02 -0.32201137491E+02  0.95907362193E+02  0.12691010674E+03  0.47000000000E+01 0. -1.
        -13    1    4    4    0    0  0.18391190945E+02 -0.38412341758E+01 -0.20119610141E+02  0.27527980249E+02  0.00000000000E+00 0.  1.
         14    1    4    4    0    0 -0.31806389056E+02  0.37302069413E+02  0.35667421511E+02  0.60623887409E+02  0.00000000000E+00 0. -1.
         -5    1    5    5    0  502 -0.77636251239E+02 -0.40803053798E+02  0.23306683693E+03  0.24906729448E+03  0.47000000000E+01 0.  1.
         13    1    6    6    0    0  0.22051582973E+02  0.50742310776E+02  0.31245789349E+03  0.31731843567E+03  0.00000000000E+00 0. -1.
        -14    1    6    6    0    0 -0.74785607323E+01 -0.11198954724E+02  0.60186943162E+01  0.14750258941E+02  0.00000000000E+00 0.  1.
</event>
<event>
12    1  0.8416569E-002  0.1942241E+03  0.7818608E-02  0.1154852E+00
         21   -1    0    0  501  502  0.00000000000E+00  0.00000000000E+00  0.10031033935E+03  0.10031033935E+03  0.00000000000E+00 0. -1.
         21   -1    0    0  502  503 -0.00000000000E+00 -0.00000000000E+00 -0.41585992789E+03  0.41585992789E+03  0.00000000000E+00 0. -1.
         -6    2    1    2    0  503 -0.79929884657E+02 -0.33202872094E+02 -0.23914289713E+03  0.30807841851E+03  0.17387285450E+03 0.  0.
        -24    2    3    3    0    0 -0.95978912097E+02 -0.77306805506E+02 -0.16911630257E+03  0.22364772404E+03  0.78928365800E+02 0.  0.
          6    2    1    2  501    0  0.79929884657E+02  0.33202872094E+02 -0.76406691412E+02  0.20809184873E+03  0.17312717244E+03 0.  0.
         24    2    5    5    0    0 -0.13251366342E+02  0.26904349614E+02  0.60635914736E+00  0.86949300961E+02  0.81611093168E+02 0.  0.
          5    1    5    5  501    0  0.93181250999E+02  0.62985224796E+01 -0.77013050559E+02  0.12114254777E+03  0.47000000000E+01 0. -1.
        -11    1    6    6    0    0  0.90348009884E+01  0.50610488843E+02  0.11417619002E+02  0.52663186701E+02  0.00000000000E+00 0.  1.
         12    1    6    6    0    0 -0.22286167331E+02 -0.23706139229E+02 -0.10811259855E+02  0.34286114260E+02  0.00000000000E+00 0. -1.
         -5    1    3    3    0  503  0.16049027440E+02  0.44103933412E+02 -0.70026594562E+02  0.84430694479E+02  0.47000000000E+01 0.  1.
         13    1    4    4    0    0  0.63185400501E+01  0.34476809812E+01 -0.38366221229E+02  0.39035591245E+02  0.00000000000E+00 0. -1.
        -14    1    4    4    0    0 -0.10229745215E+03 -0.80754486487E+02 -0.13075008134E+03  0.18461213279E+03  0.00000000000E+00 0.  1.
</event>
<event>
12    1  0.8416569E-002  0.1777317E+03  0.7818608E-02  0.1171597E+00
         21   -1    0    0  503  502  0.00000000000E+00  0.00000000000E+00  0.12415726955E+04  0.12415726955E+04  0.00000000000E+00 0.  1.
         21   -1    0    0  501  503 -0.00000000000E+00 -0.00000000000E+00 -0.95473517725E+02  0.95473517725E+02  0.00000000000E+00 0.  1.
          6    2    1    2  501    0 -0.17616638935E+02  0.26594415005E+02 -0.47005046744E+00  0.17773229594E+03  0.17484547234E+03 0.  0.
         24    2    3    3    0    0 -0.39468522035E+02  0.57172613350E+02 -0.53300664334E+02  0.11272695178E+03  0.70992484738E+02 0.  0.
         -6    2    1    2    0  502  0.17616638935E+02 -0.26594415005E+02  0.11465692282E+04  0.11593139173E+04  0.16843442277E+03 0.  0.
        -24    2    5    5    0    0  0.52550412753E+01 -0.61509630588E+02  0.42108533436E+03  0.43286994032E+03  0.79072601503E+02 0.  0.
          5    1    3    3  501    0  0.21851883099E+02 -0.30578198344E+02  0.52830613867E+02  0.65005344169E+02  0.47000000000E+01 0. -1.
        -11    1    4    4    0    0 -0.42082307852E+02  0.63654093298E+02 -0.20253842960E+02  0.78949239277E+02  0.00000000000E+00 0.  1.
         12    1    4    4    0    0  0.26137858180E+01 -0.64814799489E+01 -0.33046821375E+02  0.33777712498E+02  0.00000000000E+00 0. -1.
         -5    1    5    5    0  502  0.12361597660E+02  0.34915215583E+02  0.72548389385E+03  0.72644397693E+03  0.47000000000E+01 0.  1.
         11    1    6    6    0    0  0.41783201529E+02 -0.37284193290E+02  0.21482795591E+03  0.22200675133E+03  0.00000000000E+00 0. -1.
        -12    1    6    6    0    0 -0.36528160254E+02 -0.24225437298E+02  0.20625737845E+03  0.21086318899E+03  0.00000000000E+00 0.  1.
</event>
<event>
12    1  0.8416569E-002  0.2066731E+03  0.7818608E-02  0.1144561E+00
         21   -1    0    0  503  502  0.00000000000E+00  0.00000000000E+00  0.42779253261E+03  0.42779253261E+03  0.00000000000E+00 0.  1.
         21   -1    0    0  501  503 -0.00000000000E+00 -0.00000000000E+00 -0.12356472974E+03  0.12356472974E+03  0.00000000000E+00 0.  1.
          6    2    1    2  501    0 -0.68133488239E+02  0.92177628796E+02  0.29821336132E+02  0.20881348474E+03  0.17197346263E+03 0.  0.
         24    2    3    3    0    0 -0.50964119665E+02  0.56444274006E+02 -0.49003333026E+02  0.12045581201E+03  0.79529733050E+02 0.  0.
         -6    2    1    2    0  502  0.68133488239E+02 -0.92177628796E+02  0.27440646674E+03  0.34254377761E+03  0.16999542090E+03 0.  0.
        -24    2    5    5    0    0  0.83067894967E+02 -0.63930524028E+02  0.99262470280E+02  0.16444704849E+03  0.78755359643E+02 0.  0.
          5    1    3    3  501    0 -0.17169368574E+02  0.35733354790E+02  0.78824669158E+02  0.88357672726E+02  0.47000000000E+01 0. -1.
        -11    1    4    4    0    0 -0.25633730537E+02 -0.10746467821E+02  0.78325639361E+01  0.28877738306E+02  0.00000000000E+00 0.  1.
         12    1    4    4    0    0 -0.25330389129E+02  0.67190741827E+02 -0.56835896962E+02  0.91578073708E+02  0.00000000000E+00 0. -1.
         -5    1    5    5    0  502 -0.14934406728E+02 -0.28247104768E+02  0.17514399646E+03  0.17809672913E+03  0.47000000000E+01 0.  1.
         13    1    6    6    0    0  0.45374425824E+01  0.30428842848E+01 -0.11695011288E+02  0.12908168692E+02  0.00000000000E+00 0. -1.
        -14    1    6    6    0    0  0.78530452385E+02 -0.66973408312E+02  0.11095748157E+03  0.15153887979E+03  0.00000000000E+00 0.  1.
</event>
<event>
12    1  0.8416569E-002  0.3218791E+03  0.7818608E-02  0.1074972E+00
         21   -1    0    0  501  502  0.00000000000E+00  0.00000000000E+00  0.24138077283E+03  0.24138077283E+03  0.00000000000E+00 0. -1.
         21   -1    0    0  502  503 -0.00000000000E+00 -0.00000000000E+00 -0.45571754581E+03  0.45571754581E+03  0.00000000000E+00 0. -1.
         -6    2    1    2    0  503 -0.14502028412E+02  0.27106214113E+03 -0.19480062725E+03  0.37623586238E+03  0.17297730076E+03 0.  0.
        -24    2    3    3    0    0  0.36011360732E+02  0.24666982607E+03 -0.13398550725E+03  0.29336755519E+03  0.77263090066E+02 0.  0.
          6    2    1    2  501    0  0.14502028412E+02 -0.27106214113E+03 -0.19536145734E+02  0.32086245626E+03  0.16995899994E+03 0.  0.
         24    2    5    5    0    0 -0.12615200464E+02 -0.13110847759E+03  0.48757180359E+02  0.16272188451E+03  0.82174040216E+02 0.  0.
          5    1    5    5  501    0  0.27117228876E+02 -0.13995366355E+03 -0.68293326093E+02  0.15814057174E+03  0.47000000000E+01 0. -1.
        -11    1    6    6    0    0  0.27267767104E+02 -0.47536047904E+02 -0.60216338449E+01  0.55131361740E+02  0.00000000000E+00 0.  1.
         12    1    6    6    0    0 -0.39882967569E+02 -0.83572429682E+02  0.54778814203E+02  0.10759052277E+03  0.00000000000E+00 0. -1.
         -5    1    3    3    0  503 -0.50513389144E+02  0.24392315063E+02 -0.60815119992E+02  0.82868307190E+02  0.47000000000E+01 0.  1.
         13    1    4    4    0    0  0.10487840284E+02  0.84047100611E+02 -0.88687757313E+02  0.12263534650E+03  0.00000000000E+00 0. -1.
        -14    1    4    4    0    0  0.25523520448E+02  0.16262272546E+03 -0.45297749941E+02  0.17073220868E+03  0.00000000000E+00 0.  1.
</event>
<event>
12    1  0.8416569E-002  0.2236023E+03  0.7818608E-02  0.1131440E+00
         21   -1    0    0  503  502  0.00000000000E+00  0.00000000000E+00  0.22939230239E+04  0.22939230239E+04  0.00000000000E+00 0.  1.
         21   -1    0    0  501  503 -0.00000000000E+00 -0.00000000000E+00 -0.22927977504E+02  0.22927977504E+02  0.00000000000E+00 0. -1.
          6    2    1    2  501    0 -0.90205316436E+02  0.11123141309E+03  0.86826130820E+03  0.89659115990E+03  0.17172239905E+03 0.  0.
         24    2    3    3    0    0 -0.67163368060E+02  0.58793374110E+02  0.79229938195E+03  0.80133894966E+03  0.80238536587E+02 0.  0.
         -6    2    1    2    0  502  0.90205316436E+02 -0.11123141309E+03  0.14027337382E+04  0.14202598415E+04  0.17019591863E+03 0.  0.
        -24    2    5    5    0    0  0.10178518534E+03 -0.64802028433E+02  0.12802263009E+04  0.12886545859E+04  0.84212429223E+02 0.  0.
          5    1    3    3  501    0 -0.23041948376E+02  0.52438038984E+02  0.75961926246E+02  0.95252210245E+02  0.47000000000E+01 0. -1.
        -11    1    4    4    0    0 -0.80639384826E+02  0.36525843884E+02  0.49093619482E+03  0.49885388146E+03  0.00000000000E+00 0.  1.
         12    1    4    4    0    0  0.13476016766E+02  0.22267530226E+02  0.30136318713E+03  0.30248506820E+03  0.00000000000E+00 0. -1.
         -5    1    5    5    0  502 -0.11579868900E+02 -0.46429384662E+02  0.12250743724E+03  0.13160525561E+03  0.47000000000E+01 0.  1.
         11    1    6    6    0    0  0.62985767363E+02 -0.47985647650E+02  0.42058256154E+03  0.42797140131E+03  0.00000000000E+00 0. -1.
        -12    1    6    6    0    0  0.38799417973E+02 -0.16816380783E+02  0.85964373938E+03  0.86068318455E+03  0.00000000000E+00 0.  1.
</event>
<event>
12    1  0.8416569E-002  0.2368085E+03  0.7818608E-02  0.1122098E+00
         21   -1    0    0  503  502  0.00000000000E+00  0.00000000000E+00  0.11309096991E+04  0.11309096991E+04  0.00000000000E+00 0.  1.
         21   -1    0    0  501  503 -0.00000000000E+00 -0.00000000000E+00 -0.71014348437E+02  0.71014348437E+02  0.00000000000E+00 0.  1.
          6    2    1    2  501    0 -0.16065206385E+03 -0.14114953169E+02  0.19905596801E+03  0.30935669860E+03  0.17340695213E+03 0.  0.
         24    2    3    3    0    0 -0.14793021390E+03 -0.57030336941E+02  0.10576868073E+03  0.20577975330E+03  0.77604674666E+02 0.  0.
         -6    2    1    2    0  502  0.16065206385E+03  0.14114953169E+02  0.86083938269E+03  0.89256734897E+03  0.17211540354E+03 0.  0.
        -24    2    5    5    0    0  0.93112066983E+02 -0.48522717289E+01  0.75805649814E+03  0.76803695849E+03  0.80856129459E+02 0.  0.
          5    1    3    3  501    0 -0.12721849953E+02  0.42915383771E+02  0.93287287276E+02  0.10357694530E+03  0.47000000000E+01 0. -1.
        -11    1    4    4    0    0 -0.79938368613E+02  0.58281707234E+01  0.28136121499E+02  0.84945580718E+02  0.00000000000E+00 0.  1.
         12    1    4    4    0    0 -0.67991845284E+02 -0.62858507664E+02  0.77632559236E+02  0.12083417259E+03  0.00000000000E+00 0. -1.
         -5    1    5    5    0  502  0.67539996867E+02  0.18967224898E+02  0.10278288455E+03  0.12453039048E+03  0.47000000000E+01 0.  1.
         13    1    6    6    0    0  0.83346158893E+02  0.23974206832E-01  0.74962508843E+03  0.75424422834E+03  0.00000000000E+00 0. -1.
        -14    1    6    6    0    0  0.97659080905E+01 -0.48762459357E+01  0.84314097079E+01  0.13792730147E+02  0.00000000000E+00 0.  1.
</event>
<event>
12    1  0.8416569E-002  0.1812227E+03  0.7818608E-02  0.1166948E+00
         21   -1    0    0  501  502  0.00000000000E+00  0.00000000000E+00  0.25248324615E+02  0.25248324615E+02  0.00000000000E+00 0.  1.
         21   -1    0    0  502  503 -0.00000000000E+00 -0.00000000000E+00 -0.13686017368E+04  0.13686017368E+04  0.00000000000E+00 0.  1.
         -6    2    1    2    0  503  0.43288571285E+02 -0.16865205668E+02 -0.83983019214E+03  0.85916029093E+03  0.17516654453E+03 0.  0.
        -24    2    3    3    0    0 -0.44108536794E+02  0.65882678888E+01 -0.40870868885E+03  0.41861953172E+03  0.78807053690E+02 0.  0.
          6    2    1    2  501    0 -0.43288571285E+02  0.16865205668E+02 -0.50352322005E+03  0.53468977049E+03  0.17377911833E+03 0.  0.
         24    2    5    5    0    0 -0.82959722309E+02  0.10472688841E+02 -0.22103791740E+03  0.24932211166E+03  0.79446596484E+02 0.  0.
          5    1    5    5  501    0  0.39671151024E+02  0.63925168269E+01 -0.28248530265E+03  0.28536765883E+03  0.47000000000E+01 0. -1.
        -11    1    6    6    0    0 -0.75121886953E+02 -0.14886028074E+02 -0.20369623959E+03  0.21761674971E+03  0.00000000000E+00 0.  1.
         12    1    6    6    0    0 -0.78378353560E+01  0.25358716914E+02 -0.17341677810E+02  0.31705361942E+02  0.00000000000E+00 0. -1.
         -5    1    3    3    0  503  0.87397108079E+02 -0.23453473556E+02 -0.43112150329E+03  0.44054075921E+03  0.47000000000E+01 0.  1.
         11    1    4    4    0    0 -0.11743807753E+02 -0.17410224598E+02 -0.24351679128E+02  0.32156449080E+02  0.00000000000E+00 0. -1.
        -12    1    4    4    0    0 -0.32364729041E+02  0.23998492487E+02 -0.38435700972E+03  0.38646308264E+03  0.00000000000E+00 0.  1.
</event>
<event>
12    1  0.8416569E-002  0.1872685E+03  0.7818608E-02  0.1161906E+00
         21   -1    0    0  501  502  0.00000000000E+00  0.00000000000E+00  0.11173833042E+03  0.11173833042E+03  0.00000000000E+00 0. -1.
         21   -1    0    0  502  503 -0.00000000000E+00 -0.00000000000E+00 -0.31033201647E+03  0.31033201647E+03  0.00000000000E+00 0. -1.
         -6    2    1    2    0  503  0.75356786286E+02 -0.12690919482E+02 -0.12010650221E+03  0.21901932705E+03  0.16644575414E+03 0.  0.
        -24    2    3    3    0    0 -0.27632283308E+02 -0.55470581793E+01 -0.63047689216E+02  0.10097026373E+03  0.73659148161E+02 0.  0.
          6    2    1    2  501    0 -0.75356786286E+02  0.12690919482E+02 -0.78487183841E+02  0.20305101983E+03  0.17096717215E+03 0.  0.
         24    2    5    5    0    0 -0.18506268965E+02  0.59776129887E+01  0.23378726486E+02  0.86107428771E+02  0.80558739994E+02 0.  0.
          5    1    5    5  501    0 -0.56850517321E+02  0.67133064933E+01 -0.10186591033E+03  0.11694359106E+03  0.47000000000E+01 0. -1.
        -13    1    6    6    0    0  0.23708956784E+02  0.17335845177E+02 -0.10084220213E+02  0.31053786518E+02  0.00000000000E+00 0.  1.
         14    1    6    6    0    0 -0.42215225749E+02 -0.11358232188E+02  0.33462946699E+02  0.55053642253E+02  0.00000000000E+00 0. -1.
         -5    1    3    3    0  503  0.10298906959E+03 -0.71438613027E+01 -0.57058812990E+02  0.11804906332E+03  0.47000000000E+01 0.  1.
         13    1    4    4    0    0  0.14963033780E+02  0.47914726993E+01 -0.53966943359E+02  0.56207486744E+02  0.00000000000E+00 0. -1.
        -14    1    4    4    0    0 -0.42595317088E+02 -0.10338530879E+02 -0.90807458566E+01  0.44762776990E+02  0.00000000000E+00 0.  1.
</event>
<event>
12    1  0.8416569E-002  0.2673461E+03  0.7818608E-02  0.1102855E+00
         21   -1    0    0  501  502  0.00000000000E+00  0.00000000000E+00  0.19460770990E+03  0.19460770990E+03  0.00000000000E+00 0. -1.
         21   -1    0    0  502  503 -0.00000000000E+00 -0.00000000000E+00 -0.39018060673E+03  0.39018060673E+03  0.00000000000E+00 0. -1.
         -6    2    1    2    0  503 -0.18214746114E+03 -0.95088201576E+02 -0.16925861900E+03  0.31615029657E+03  0.17053758013E+03 0.  0.
        -24    2    3    3    0    0 -0.13573055331E+03 -0.10261298987E+03 -0.18748392004E+03  0.26550048541E+03  0.79925457073E+02 0.  0.
          6    2    1    2  501    0  0.18214746114E+03  0.95088201576E+02 -0.26314277835E+02  0.26863802006E+03  0.17103941337E+03 0.  0.
         24    2    5    5    0    0  0.10823373901E+03 -0.12262020764E+02 -0.43241112412E+02  0.13712408056E+03  0.71192136168E+02 0.  0.
          5    1    5    5  501    0  0.73913722131E+02  0.10735022234E+03  0.16926834576E+02  0.13151393951E+03  0.47000000000E+01 0. -1.
        -13    1    6    6    0    0  0.32812007037E+02 -0.20797193234E+02  0.14801275178E+02  0.41571971317E+02  0.00000000000E+00 0.  1.
         14    1    6    6    0    0  0.75421731976E+02  0.85351724710E+01 -0.58042387590E+02  0.95552109241E+02  0.00000000000E+00 0. -1.
         -5    1    3    3    0  503 -0.46416907838E+02  0.75247882924E+01  0.18225301046E+02  0.50649811158E+02  0.47000000000E+01 0.  1.
         11    1    4    4    0    0 -0.56568432172E+02 -0.50483742324E+02 -0.29686554752E+02  0.81424119832E+02  0.00000000000E+00 0. -1.
        -12    1    4    4    0    0 -0.79162121134E+02 -0.52129247544E+02 -0.15779736529E+03  0.18407636558E+03  0.00000000000E+00 0.  1.
</event>
<event>
12    1  0.8416569E-002  0.1838995E+03  0.7818608E-02  0.1164207E+00
         21   -1    0    0  503  502  0.00000000000E+00  0.00000000000E+00  0.13798684178E+04  0.13798684178E+04  0.00000000000E+00 0. -1.
         21   -1    0    0  501  503 -0.00000000000E+00 -0.00000000000E+00 -0.57681264416E+02  0.57681264416E+02  0.00000000000E+00 0. -1.
          6    2    1    2  501    0  0.53022312654E+02  0.35812307976E+02  0.11583332861E+03  0.21733930199E+03  0.17240975939E+03 0.  0.
         24    2    3    3    0    0 -0.98650350314E+00  0.80290030655E+02  0.64818603370E+02  0.13062245110E+03  0.80083151641E+02 0.  0.
         -6    2    1    2    0  502 -0.53022312654E+02 -0.35812307976E+02  0.12063538247E+04  0.12202103802E+04  0.17184276072E+03 0.  0.
        -24    2    5    5    0    0 -0.20930685656E+02 -0.26225326349E+02  0.11539223095E+04  0.11578169788E+04  0.88755838189E+02 0.  0.
          5    1    3    3  501    0  0.54008816158E+02 -0.44477722679E+02  0.51014725238E+02  0.86716850892E+02  0.47000000000E+01 0. -1.
        -11    1    4    4    0    0 -0.57118668345E+01 -0.14248818320E+02  0.21765764070E+02  0.26634615293E+02  0.00000000000E+00 0.  1.
         12    1    4    4    0    0  0.47253633314E+01  0.94538848974E+02  0.43052839300E+02  0.10398783581E+03  0.00000000000E+00 0. -1.
         -5    1    5    5    0  502 -0.32091626998E+02 -0.95869816274E+01  0.52431515253E+02  0.62393401348E+02  0.47000000000E+01 0.  1.
         11    1    6    6    0    0 -0.43702159016E+02 -0.28887255066E+02  0.38440193084E+03  0.38795514772E+03  0.00000000000E+00 0. -1.
        -12    1    6    6    0    0  0.22771473359E+02  0.26619287179E+01  0.76952037864E+03  0.76986183111E+03  0.00000000000E+00 0.  1.
</event>
<event>
12    1  0.8416569E-002  0.1855902E+03  0.7818608E-02  0.1163469E+00
         21   -1    0    0  501  502  0.00000000000E+00  0.00000000000E+00  0.35363310670E+04  0.35363310670E+04  0.00000000000E+00 0.  1.
         21   -1    0    0  502  503 -0.00000000000E+00 -0.00000000000E+00 -0.99831617447E+01  0.99831617447E+01  0.00000000000E+00 0.  1.
         -6    2    1    2    0  503  0.12157225560E+02  0.55617768654E+02  0.21618635614E+04  0.21698151453E+04  0.17664249862E+03 0.  0.
        -24    2    3    3    0    0 -0.44938298744E+02 -0.16936793374E+02  0.12154986645E+04  0.12189457161E+04  0.78008651048E+02 0.  0.
          6    2    1    2  501    0 -0.12157225560E+02 -0.55617768654E+02  0.13644843438E+04  0.13764990834E+04  0.17231096247E+03 0.  0.
         24    2    5    5    0    0  0.46709577295E+02 -0.75448697996E+02  0.65187522689E+03  0.66117229812E+03  0.65827089561E+02 0.  0.
          5    1    5    5  501    0 -0.58866802855E+02  0.19830929342E+02  0.71260911696E+03  0.71532678533E+03  0.47000000000E+01 0. -1.
        -11    1    6    6    0    0  0.51088972059E+01 -0.65125282195E+02  0.45652044118E+03  0.46117059363E+03  0.00000000000E+00 0.  1.
         12    1    6    6    0    0  0.41600680089E+02 -0.10323415801E+02  0.19535478571E+03  0.20000170449E+03  0.00000000000E+00 0. -1.
         -5    1    3    3    0  503  0.57095524304E+02  0.72554562028E+02  0.94636489689E+03  0.95086942922E+03  0.47000000000E+01 0.  1.
         11    1    4    4    0    0  0.48128394695E+01 -0.17212319184E+02  0.83705190500E+03  0.83724268825E+03  0.00000000000E+00 0. -1.
        -12    1    4    4    0    0 -0.49751138213E+02  0.27552581021E+00  0.37844675953E+03  0.38170302784E+03  0.00000000000E+00 0.  1.
</event>
<event>
12    1  0.8416569E-002  0.2506136E+03  0.7818608E-02  0.1112951E+00
         21   -1    0    0  503  502  0.00000000000E+00  0.00000000000E+00  0.35415186424E+03  0.35415186424E+03  0.00000000000E+00 0. -1.
         21   -1    0    0  501  503 -0.00000000000E+00 -0.00000000000E+00 -0.32804763334E+03  0.32804763334E+03  0.00000000000E+00 0.  1.
          6    2    1    2  501    0 -0.50791119020E-01 -0.18225290989E+03 -0.21825619553E+03  0.33217206007E+03  0.17171600059E+03 0.  0.
         24    2    3    3    0    0  0.11099089079E+02 -0.29782300561E+02 -0.10510453302E+03  0.14191698059E+03  0.89907126041E+02 0.  0.
         -6    2    1    2    0  502  0.50791119020E-01  0.18225290989E+03  0.24436042643E+03  0.35002743751E+03  0.17202053150E+03 0.  0.
        -24    2    5    5    0    0  0.43160410459E+02  0.79747007995E+02  0.20093642122E+03  0.23055512510E+03  0.67511584349E+02 0.  0.
          5    1    3    3  501    0 -0.11149880198E+02 -0.15247060933E+03 -0.11315166251E+03  0.19025507948E+03  0.47000000000E+01 0. -1.
        -13    1    4    4    0    0  0.24821433885E+02 -0.56743746535E+02 -0.52313348556E+02  0.81071837207E+02  0.00000000000E+00 0.  1.
         14    1    4    4    0    0 -0.13722344807E+02  0.26961445974E+02 -0.52791184465E+02  0.60845143382E+02  0.00000000000E+00 0. -1.
         -5    1    5    5    0  502 -0.43109619340E+02  0.10250590190E+03  0.43424005211E+02  0.11947231241E+03  0.47000000000E+01 0.  1.
         13    1    6    6    0    0 -0.14796067201E+02  0.41640628050E+01  0.47844562090E+02  0.50253011305E+02  0.00000000000E+00 0. -1.
        -14    1    6    6    0    0  0.57956477661E+02  0.75582945190E+02  0.15309185913E+03  0.18030211379E+03  0.00000000000E+00 0.  1.
</event>
<event>
12    1  0.8416569E-002  0.3225124E+03  0.7818608E-02  0.1074544E+00
         21   -1    0    0  503  502  0.00000000000E+00  0.00000000000E+00  0.25447394050E+03  0.25447394050E+03  0.00000000000E+00 0. -1.
         21   -1    0    0  501  503 -0.00000000000E+00 -0.00000000000E+00 -0.11547997850E+04  0.11547997850E+04  0.00000000000E+00 0.  1.
          6    2    1    2  501    0  0.27091959970E+03 -0.18811340095E+02 -0.10166228268E+04  0.10664337422E+04  0.17322718785E+03 0.  0.
         24    2    3    3    0    0  0.24056917461E+03 -0.32301650906E+02 -0.99322101554E+03  0.10255329897E+04  0.79454406931E+02 0.  0.
         -6    2    1    2    0  502 -0.27091959970E+03  0.18811340095E+02  0.11629698231E+03  0.34283998324E+03  0.17396255343E+03 0.  0.
        -24    2    5    5    0    0 -0.23125889267E+03  0.66098753307E+02  0.62118379636E+02  0.26058135380E+03  0.78703419437E+02 0.  0.
          5    1    3    3  501    0  0.30350425096E+02  0.13490310811E+02 -0.23401811218E+02  0.40900752531E+02  0.47000000000E+01 0. -1.
        -13    1    4    4    0    0  0.16418671156E+03 -0.56018464632E+02 -0.61830734073E+03  0.64218323883E+03  0.00000000000E+00 0.  1.
         14    1    4    4    0    0  0.76382463045E+02  0.23716813726E+02 -0.37491367482E+03  0.38334975085E+03  0.00000000000E+00 0. -1.
         -5    1    5    5    0  502 -0.39660707031E+02 -0.47287413212E+02  0.54178602671E+02  0.82258629443E+02  0.47000000000E+01 0.  1.
         11    1    6    6    0    0 -0.21259063678E+03  0.55704482573E+02  0.78806276646E+02  0.23346990698E+03  0.00000000000E+00 0. -1.
        -12    1    6    6    0    0 -0.18668255888E+02  0.10394270734E+02 -0.16687897010E+02  0.27111446819E+02  0.00000000000E+00 0.  1.
</event>
<event>
12    1  0.8416569E-002  0.2093684E+03  0.7818608E-02  0.1142264E+00
         21   -1    0    0  501  502  0.00000000000E+00  0.00000000000E+00  0.18279524091E+04  0.18279524091E+04  0.00000000000E+00 0.  1.
         21   -1    0    0  502  503 -0.00000000000E+00 -0.00000000000E+00 -0.25142328437E+02  0.25142328437E+02  0.00000000000E+00 0. -1.
         -6    2    1    2    0  503  0.63478389321E+02 -0.10230068520E+03  0.69072388359E+03  0.72147163937E+03  0.17007911969E+03 0.  0.
        -24    2    3    3    0    0 -0.83633513840E+01  0.30687013652E+01  0.24573640766E+03  0.25854628139E+03  0.79877625119E+02 0.  0.
          6    2    1    2  501    0 -0.63478389321E+02  0.10230068520E+03  0.11120861971E+04  0.11316230982E+04  0.17128978508E+03 0.  0.
         24    2    5    5    0    0 -0.68116739362E+02  0.58274663091E+02  0.10397566770E+04  0.10466910407E+04  0.80201999581E+02 0.  0.
          5    1    5    5  501    0  0.46383500412E+01  0.44026022111E+02  0.72329520070E+02  0.84932057479E+02  0.47000000000E+01 0. -1.
        -13    1    6    6    0    0 -0.52062230273E+01  0.47128214543E+02  0.25745452999E+03  0.26178427833E+03  0.00000000000E+00 0.  1.
         14    1    6    6    0    0 -0.62910516335E+02  0.11146448548E+02  0.78230214705E+03  0.78490676240E+03  0.00000000000E+00 0. -1.
         -5    1    3    3    0  503  0.71841740705E+02 -0.10536938657E+03  0.44498747593E+03  0.46292535799E+03  0.47000000000E+01 0.  1.
         11    1    4    4    0    0 -0.84823013486E+01 -0.20546813629E+02  0.15493848003E+02  0.27095761891E+02  0.00000000000E+00 0. -1.
        -12    1    4    4    0    0  0.11894996455E+00  0.23615514995E+02  0.23024255966E+03  0.23145051950E+03  0.00000000000E+00 0.  1.
</event>
<event>
12    1  0.8416569E-002  0.2215481E+03  0.7818608E-02  0.1133870E+00
         21   -1    0    0  501  502  0.00000000000E+00  0.00000000000E+00  0.96431968622E+03  0.96431968622E+03  0.00000000000E+00 0. -1.
         21   -1    0    0  502  503 -0.00000000000E+00 -0.00000000000E+00 -0.99945948412E+02  0.99945948412E+02  0.00000000000E+00 0. -1.
         -6    2    1    2    0  503  0.82878713177E+01  0.12848842863E+03  0.51248949146E+02  0.22149906881E+03  0.17279299058E+03 0.  0.
        -24    2    3    3    0    0  0.35285049591E+02  0.14842295074E+03  0.16030986678E+02  0.17262547997E+03  0.79171691713E+02 0.  0.
          6    2    1    2  501    0 -0.82878713177E+01 -0.12848842863E+03  0.81312478866E+03  0.84276656582E+03  0.18029308755E+03 0.  0.
         24    2    5    5    0    0  0.11225242149E+02 -0.13378741115E+03  0.40266491263E+03  0.43178208844E+03  0.79193829254E+02 0.  0.
          5    1    5    5  501    0 -0.19513113467E+02  0.52989825118E+01  0.41045987603E+03  0.41098447738E+03  0.47000000000E+01 0. -1.
        -11    1    6    6    0    0 -0.19597317970E+02 -0.32683229041E+02  0.45736175277E+02  0.59531891127E+02  0.00000000000E+00 0.  1.
         12    1    6    6    0    0  0.30822560119E+02 -0.10110418210E+03  0.35692873736E+03  0.37225019732E+03  0.00000000000E+00 0. -1.
         -5    1    3    3    0  503 -0.26997178273E+02 -0.19934522108E+02  0.35217962469E+02  0.48873588847E+02  0.47000000000E+01 0.  1.
         13    1    4    4    0    0  0.18460397020E+02 -0.12975945625E+01 -0.78126909662E+01  0.20087512288E+02  0.00000000000E+00 0. -1.
        -14    1    4    4    0    0  0.16824652571E+02  0.14972054530E+03  0.23843677644E+02  0.15253796768E+03  0.00000000000E+00 0.  1.
</event>
<event>
12    1  0.8416569E-002  0.1844194E+03  0.7818608E-02  0.1163796E+00
         21   -1    0    0  501  502  0.00000000000E+00  0.00000000000E+00  0.13711193914E+03  0.13711193914E+03  0.00000000000E+00 0. -1.
         21   -1    0    0  502  503 -0.00000000000E+00 -0.00000000000E+00 -0.26853639685E+03  0.26853639685E+03  0.00000000000E+00 0. -1.
         -6    2    1    2    0  503 -0.47993365419E+02 -0.44898345295E+02 -0.12315510169E+03  0.22104361255E+03  0.17138808314E+03 0.  0.
        -24    2    3    3    0    0 -0.70614246905E+02  0.21729945412E+02 -0.67384484022E+02  0.13113540827E+03  0.84836691477E+02 0.  0.
          6    2    1    2  501    0  0.47993365419E+02  0.44898345295E+02 -0.82693560221E+01  0.18460472344E+03  0.17231162797E+03 0.  0.
         24    2    5    5    0    0  0.19095093086E+02 -0.18765688717E+02 -0.68814516397E+02  0.91997888838E+02  0.54876226461E+02 0.  0.
          5    1    5    5  501    0  0.28898272333E+02  0.63664034012E+02  0.60545160375E+02  0.92606834604E+02  0.47000000000E+01 0. -1.
        -11    1    6    6    0    0  0.18048988961E+02 -0.37830765436E+02 -0.48970382692E+02  0.64459531467E+02  0.00000000000E+00 0.  1.
         12    1    6    6    0    0  0.10461041249E+01  0.19065076719E+02 -0.19844133706E+02  0.27538357371E+02  0.00000000000E+00 0. -1.
         -5    1    3    3    0  503  0.22620881486E+02 -0.66628290707E+02 -0.55770617666E+02  0.89908204279E+02  0.47000000000E+01 0.  1.
         13    1    4    4    0    0 -0.10496306182E+02 -0.30249448126E+02 -0.11674812507E+02  0.34080827490E+02  0.00000000000E+00 0. -1.
        -14    1    4    4    0    0 -0.60117940723E+02  0.51979393538E+02 -0.55709671515E+02  0.97054580776E+02  0.00000000000E+00 0.  1.
</event>
<event>
12    1  0.8416569E-002  0.2158521E+03  0.7818608E-02  0.1137636E+00
         21   -1    0    0  503  502  0.00000000000E+00  0.00000000000E+00  0.15352328905E+03  0.15352328905E+03  0.00000000000E+00 0. -1.
         21   -1    0    0  501  503 -0.00000000000E+00 -0.00000000000E+00 -0.97737929790E+03  0.97737929790E+03  0.00000000000E+00 0. -1.
          6    2    1    2  501    0 -0.11445683965E+03  0.56764890378E+02 -0.88397418281E+03  0.90994642757E+03  0.17398139054E+03 0.  0.
         24    2    3    3    0    0 -0.36939553699E+02  0.37626146445E+02 -0.21423109784E+03  0.23544430675E+03  0.82211925970E+02 0.  0.
         -6    2    1    2    0  502  0.11445683965E+03 -0.56764890378E+02  0.60118173950E+02  0.22095615938E+03  0.16995531356E+03 0.  0.
        -24    2    5    5    0    0  0.34850502627E+02 -0.82301998099E+02  0.67365127357E+02  0.13690902321E+03  0.78853305749E+02 0.  0.
          5    1    3    3  501    0 -0.77517285954E+02  0.19138743934E+02 -0.66974308496E+03  0.67450212082E+03  0.47000000000E+01 0. -1.
        -13    1    4    4    0    0 -0.63420996388E+02  0.25144252423E+02 -0.14341149493E+03  0.15881219440E+03  0.00000000000E+00 0.  1.
         14    1    4    4    0    0  0.26481442690E+02  0.12481894021E+02 -0.70819602912E+02  0.76632112342E+02  0.00000000000E+00 0. -1.
         -5    1    5    5    0  502  0.79606337025E+02  0.25537107721E+02 -0.72469534063E+01  0.84047136174E+02  0.47000000000E+01 0.  1.
         11    1    6    6    0    0  0.59205952390E+02 -0.65750745794E+02  0.41553361932E+02  0.97750638150E+02  0.00000000000E+00 0. -1.
        -12    1    6    6    0    0 -0.24355449763E+02 -0.16551252306E+02  0.25811765425E+02  0.39158385059E+02  0.00000000000E+00 0.  1.
</event>
<event>
12    1  0.8416569E-002  0.1740243E+03  0.7818608E-02  0.1175590E+00
         21   -1    0    0  503  502  0.00000000000E+00  0.00000000000E+00  0.23594386625E+02  0.23594386625E+02  0.00000000000E+00 0.  1.
         21   -1    0    0  501  503 -0.00000000000E+00 -0.00000000000E+00 -0.14479246486E+04  0.14479246486E+04  0.00000000000E+00 0.  1.
          6    2    1    2  501    0  0.24281437942E+02 -0.12817390029E+02 -0.44007609969E+03  0.47323506506E+03  0.17184463788E+03 0.  0.
         24    2    3    3    0    0  0.71283745416E+02  0.23874281253E+02 -0.33134658753E+03  0.34913956771E+03  0.80352492203E+02 0.  0.
         -6    2    1    2    0  502 -0.24281437942E+02  0.12817390029E+02 -0.98425416234E+03  0.99828397022E+03  0.16450153615E+03 0.  0.
        -24    2    5    5    0    0  0.45082201296E+02  0.29161963407E+02 -0.53363766122E+03  0.54204304635E+03  0.78477293821E+02 0.  0.
          5    1    3    3  501    0 -0.47002307474E+02 -0.36691671282E+02 -0.10872951216E+03  0.12409549735E+03  0.47000000000E+01 0. -1.
        -13    1    4    4    0    0 -0.29586788523E+01 -0.12791074594E+02 -0.80333566703E+01  0.15391562273E+02  0.00000000000E+00 0.  1.
         14    1    4    4    0    0  0.74242424269E+02  0.36665355846E+02 -0.32331323086E+03  0.33374800543E+03  0.00000000000E+00 0. -1.
         -5    1    5    5    0  502 -0.69363639238E+02 -0.16344573378E+02 -0.45061650112E+03  0.45624092387E+03  0.47000000000E+01 0.  1.
         13    1    6    6    0    0  0.22239254258E+02  0.15642129495E+02 -0.44248027844E+02  0.51934079497E+02  0.00000000000E+00 0. -1.
        -14    1    6    6    0    0  0.22842947038E+02  0.13519833911E+02 -0.48938963337E+03  0.49010896685E+03  0.00000000000E+00 0.  1.
</event>
<event>
12    1  0.8416569E-002  0.1731330E+03  0.7818608E-02  0.1174900E+00
         21   -1    0    0  501  502  0.00000000000E+00  0.00000000000E+00  0.42490610872E+03  0.42490610872E+03  0.00000000000E+00 0. -1.
         21   -1    0    0  502  503 -0.00000000000E+00 -0.00000000000E+00 -0.33607743123E+03  0.33607743123E+03  0.00000000000E+00 0. -1.
         -6    2    1    2    0  503 -0.14921746093E+02 -0.15197901694E+02 -0.29404906001E+03  0.34123291495E+03  0.17181797877E+03 0.  0.
        -24    2    3    3    0    0  0.44172420310E+02 -0.10560518499E+02 -0.25252310938E+03  0.26870622744E+03  0.79827242372E+02 0.  0.
          6    2    1    2  501    0  0.14921746093E+02  0.15197901694E+02  0.38287773749E+03  0.41975062500E+03  0.17070908176E+03 0.  0.
         24    2    5    5    0    0  0.47614929308E+02  0.59464912300E+02  0.30839791477E+03  0.32702659117E+03  0.77677926128E+02 0.  0.
          5    1    5    5  501    0 -0.32693183215E+02 -0.44267010607E+02  0.74479822726E+02  0.92724033832E+02  0.47000000000E+01 0. -1.
        -13    1    6    6    0    0  0.43007525745E+02 -0.57192760251E+01  0.11753443034E+03  0.12528647056E+03  0.00000000000E+00 0.  1.
         14    1    6    6    0    0  0.46074035629E+01  0.65184188326E+02  0.19086348442E+03  0.20174012061E+03  0.00000000000E+00 0. -1.
         -5    1    3    3    0  503 -0.59094166403E+02 -0.46373831947E+01 -0.41525950622E+02  0.72526687508E+02  0.47000000000E+01 0.  1.
         11    1    4    4    0    0  0.12433815022E+02  0.26786801461E+02 -0.17141054402E+03  0.17393592811E+03  0.00000000000E+00 0. -1.
        -12    1    4    4    0    0  0.31738605288E+02 -0.37347319960E+02 -0.81112565366E+02  0.94770299325E+02  0.00000000000E+00 0.  1.
</event>
<event>
12    1  0.8416569E-002  0.3222131E+03  0.7818608E-02  0.1074640E+00
         21   -1    0    0  503  502  0.00000000000E+00  0.00000000000E+00  0.10102639945E+04  0.10102639945E+04  0.00000000000E+00 0.  1.
         21   -1    0    0  501  503 -0.00000000000E+00 -0.00000000000E+00 -0.11134958241E+03  0.11134958241E+03  0.00000000000E+00 0. -1.
          6    2    1    2  501    0 -0.27182739317E+03 -0.86831763338E+01  0.60530026392E+03  0.68571836276E+03  0.17278811963E+03 0.  0.
         24    2    3    3    0    0 -0.19318796862E+03 -0.10908404403E+00  0.55057288197E+03  0.58941233757E+03  0.83395456672E+02 0.  0.
         -6    2    1    2    0  502  0.27182739317E+03  0.86831763338E+01  0.29361414821E+03  0.43589521420E+03  0.17271317408E+03 0.  0.
        -24    2    5    5    0    0  0.27554463191E+03 -0.23143480906E+02  0.24855802582E+03  0.38040739445E+03  0.80425298702E+02 0.  0.
          5    1    3    3  501    0 -0.78639424553E+02 -0.85740922898E+01  0.54727381951E+02  0.96306025189E+02  0.47000000000E+01 0. -1.
        -11    1    4    4    0    0 -0.67154383139E+02  0.36863780356E+02  0.24796670789E+03  0.25953061033E+03  0.00000000000E+00 0.  1.
         12    1    4    4    0    0 -0.12603358548E+03 -0.36972864400E+02  0.30260617408E+03  0.32988172724E+03  0.00000000000E+00 0. -1.
         -5    1    5    5    0  502 -0.37172387380E+01  0.31826657239E+02  0.45056122397E+02  0.55487819748E+02  0.47000000000E+01 0.  1.
         11    1    6    6    0    0  0.32510947614E+02  0.20834760501E+02  0.51937982610E+02  0.64719417469E+02  0.00000000000E+00 0. -1.
        -12    1    6    6    0    0  0.24303368430E+03 -0.43978241407E+02  0.19662004321E+03  0.31568797698E+03  0.00000000000E+00 0.  1.
</event>
<event>
12    1  0.8416569E-002  0.2169415E+03  0.7818608E-02  0.1136977E+00
         21   -1    0    0  503  502  0.00000000000E+00  0.00000000000E+00  0.51687481433E+02  0.51687481433E+02  0.00000000000E+00 0. -1.
         21   -1    0    0  501  503 -0.00000000000E+00 -0.00000000000E+00 -0.93164424620E+03  0.93164424620E+03  0.00000000000E+00 0.  1.
          6    2    1    2  501    0  0.30247644498E+02 -0.12979427822E+03 -0.54383099606E+03  0.58550471658E+03  0.17117869668E+03 0.  0.
         24    2    3    3    0    0 -0.73846102567E+01 -0.11435631815E+03 -0.27318224785E+03  0.31177610624E+03  0.97179729938E+02 0.  0.
         -6    2    1    2    0  502 -0.30247644498E+02  0.12979427822E+03 -0.33612576871E+03  0.39782701106E+03  0.16590456197E+03 0.  0.
        -24    2    5    5    0    0 -0.72377494770E+02  0.11793507179E+03 -0.30046344487E+03  0.34117494664E+03  0.83515744663E+02 0.  0.
          5    1    3    3  501    0  0.37632254754E+02 -0.15437960075E+02 -0.27064874821E+03  0.27372861034E+03  0.47000000000E+01 0. -1.
        -11    1    4    4    0    0 -0.52291120850E+02 -0.62004255014E+02 -0.15497259850E+03  0.17491539454E+03  0.00000000000E+00 0.  1.
         12    1    4    4    0    0  0.44906510593E+02 -0.52352063134E+02 -0.11820964935E+03  0.13686071170E+03  0.00000000000E+00 0. -1.
         -5    1    5    5    0  502  0.42129850273E+02  0.11859206434E+02 -0.35662323838E+02  0.56652064417E+02  0.47000000000E+01 0.  1.
         11    1    6    6    0    0 -0.65385692490E+00  0.39123044759E+02 -0.26611307824E+02  0.47320205665E+02  0.00000000000E+00 0. -1.
        -12    1    6    6    0    0 -0.71723637845E+02  0.78812027030E+02 -0.27385213705E+03  0.29385474098E+03  0.00000000000E+00 0.  1.
</event>
<event>
12    1  0.8416569E-002  0.2184836E+03  0.7818608E-02  0.1136504E+00
         21   -1    0    0  501  502  0.00000000000E+00  0.00000000000E+00  0.15928583939E+03  0.15928583939E+03  0.00000000000E+00 0.  1.
         21   -1    0    0  502  503 -0.00000000000E+00 -0.00000000000E+00 -0.28932299720E+03  0.28932299720E+03  0.00000000000E+00 0.  1.
         -6    2    1    2    0  503 -0.94337614453E+02  0.73715434874E+02 -0.71662929556E+02  0.22993624682E+03  0.18276091292E+03 0.  0.
        -24    2    3    3    0    0 -0.10262771467E+03 -0.14320241724E+02 -0.27104107901E+02  0.13080711537E+03  0.75088958070E+02 0.  0.
          6    2    1    2  501    0  0.94337614453E+02 -0.73715434874E+02 -0.58374228252E+02  0.21867258977E+03  0.17342606538E+03 0.  0.
         24    2    5    5    0    0  0.19910357913E+02 -0.99553878110E+02 -0.22309087502E+02  0.13189801952E+03  0.81191102765E+02 0.  0.
          5    1    5    5  501    0  0.74427256541E+02  0.25838443237E+02 -0.36065140750E+02  0.86774570252E+02  0.47000000000E+01 0. -1.
        -13    1    6    6    0    0  0.47530031338E+02 -0.57469391837E+02 -0.31091583411E+02  0.80799266309E+02  0.00000000000E+00 0.  1.
         14    1    6    6    0    0 -0.27619673425E+02 -0.42084486274E+02  0.87824959091E+01  0.51098753208E+02  0.00000000000E+00 0. -1.
         -5    1    3    3    0  503  0.82901002204E+01  0.88035676598E+02 -0.44558821655E+02  0.99129131455E+02  0.47000000000E+01 0.  1.
         13    1    4    4    0    0 -0.16335741865E+02 -0.11652621769E+02  0.23369434818E+02  0.30802119084E+02  0.00000000000E+00 0. -1.
        -14    1    4    4    0    0 -0.86291972809E+02 -0.26676199554E+01 -0.50473542719E+02  0.10000499629E+03  0.00000000000E+00 0.  1.
</event>
<event>
12    1  0.8416569E-002  0.1878257E+03  0.7818608E-02  0.1160442E+00
         21   -1    0    0  503  502  0.00000000000E+00  0.00000000000E+00  0.36086844422E+02  0.36086844422E+02  0.00000000000E+00 0. -1.
         21   -1    0    0  501  503 -0.00000000000E+00 -0.00000000000E+00 -0.97773164205E+03  0.97773164205E+03  0.00000000000E+00 0.  1.
          6    2    1    2  501    0  0.16138579666E+02  0.74228325271E+02 -0.47863704518E+03  0.51416394597E+03  0.17175809817E+03 0.  0.
         24    2    3    3    0    0  0.71262476685E+02  0.56448094339E+02 -0.38777648570E+03  0.40630982271E+03  0.80326466566E+02 0.  0.
         -6    2    1    2    0  502 -0.16138579666E+02 -0.74228325271E+02 -0.46300775245E+03  0.49965454051E+03  0.17177946034E+03 0.  0.
        -24    2    5    5    0    0 -0.52527148747E+01 -0.11134132506E+03 -0.26692317547E+03  0.29973673705E+03  0.78547108532E+02 0.  0.
          5    1    3    3  501    0 -0.55123897019E+02  0.17780230931E+02 -0.90860559478E+02  0.10785412326E+03  0.47000000000E+01 0. -1.
        -13    1    4    4    0    0  0.20158334927E+02  0.31130248315E+02 -0.29559264688E+03  0.29791016048E+03  0.00000000000E+00 0.  1.
         14    1    4    4    0    0  0.51104141758E+02  0.25317846024E+02 -0.92183838818E+02  0.10839966223E+03  0.00000000000E+00 0. -1.
         -5    1    5    5    0  502 -0.10885864792E+02  0.37112999794E+02 -0.19608457699E+03  0.19991780346E+03  0.47000000000E+01 0.  1.
         13    1    6    6    0    0 -0.91472812700E+00  0.11109139871E+02 -0.95192609224E+01  0.14658309750E+02  0.00000000000E+00 0. -1.
        -14    1    6    6    0    0 -0.43379867477E+01 -0.12245046494E+03 -0.25740391454E+03  0.28507842730E+03  0.00000000000E+00 0.  1.
</event>
<event>
12    1  0.8416569E-002  0.1788270E+03  0.7818608E-02  0.1169024E+00
         21   -1    0    0  503  502  0.00000000000E+00  0.00000000000E+00  0.58889760573E+02  0.58889760573E+02  0.00000000000E+00 0.  1.
         21   -1    0    0  501  503 -0.00000000000E+00 -0.00000000000E+00 -0.13981853795E+04  0.13981853795E+04  0.00000000000E+00 0.  1.
          6    2    1    2  501    0 -0.49014409316E+02 -0.12730729888E+02 -0.12395014069E+04  0.12522874612E+04  0.17115976201E+03 0.  0.
         24    2    3    3    0    0  0.18104507894E+02  0.25554302916E+02 -0.42661080056E+03  0.43571908038E+03  0.82906852855E+02 0.  0.
         -6    2    1    2    0  502  0.49014409316E+02  0.12730729888E+02 -0.99794212092E+02  0.20478767887E+03  0.17150692361E+03 0.  0.
        -24    2    5    5    0    0  0.91109182367E+02 -0.22571755071E+02 -0.68553940004E+02  0.14141355195E+03  0.80546773665E+02 0.  0.
          5    1    3    3  501    0 -0.67118917209E+02 -0.38285032805E+02 -0.81289060630E+03  0.81656838085E+03  0.47000000000E+01 0. -1.
        -11    1    4    4    0    0  0.12515216170E+02 -0.12903812218E+02 -0.18619032572E+02  0.25880637153E+02  0.00000000000E+00 0.  1.
         12    1    4    4    0    0  0.55892917239E+01  0.38458115134E+02 -0.40799176799E+03  0.40983844323E+03  0.00000000000E+00 0. -1.
         -5    1    5    5    0  502 -0.42094773051E+02  0.35302484959E+02 -0.31240272088E+02  0.63374126918E+02  0.47000000000E+01 0.  1.
         11    1    6    6    0    0  0.10170753902E+03 -0.40931354055E+01 -0.51221860172E+02  0.11395111325E+03  0.00000000000E+00 0. -1.
        -12    1    6    6    0    0 -0.10598356652E+02 -0.18478619665E+02 -0.17332079832E+02  0.27462438707E+02  0.00000000000E+00 0.  1.
</event>
<event>
12    1  0.8416569E-002  0.2149195E+03  0.7818608E-02  0.1137781E+00
         21   -1    0    0  501  502  0.00000000000E+00  0.00000000000E+00  0.20623519039E+03  0.20623519039E+03  0.00000000000E+00 0.  1.
         21   -1    0    0  502  503 -0.00000000000E+00 -0.00000000000E+00 -0.22726315131E+03  0.22726315131E+03  0.00000000000E+00 0. -1.
         -6    2    1    2    0  503 -0.10254696946E+03  0.75406668126E+02 -0.37723868006E+02  0.21820508874E+03  0.17317137174E+03 0.  0.
        -24    2    3    3    0    0 -0.88249856202E+02 -0.81511799166E+01 -0.61421714018E+02  0.13005748910E+03  0.72717567777E+02 0.  0.
          6    2    1    2  501    0  0.10254696946E+03 -0.75406668126E+02  0.16695907086E+02  0.21529325297E+03  0.17283050922E+03 0.  0.
         24    2    5    5    0    0  0.39190692203E+02  0.24816267182E+02 -0.13198458479E+02  0.92923249612E+02  0.79427788210E+02 0.  0.
          5    1    5    5  501    0  0.63356277253E+02 -0.10022293531E+03  0.29894365565E+02  0.12237000336E+03  0.47000000000E+01 0. -1.
        -11    1    6    6    0    0  0.49698721409E+02  0.44344278430E+02  0.96007972420E+00  0.66613059472E+02  0.00000000000E+00 0.  1.
         12    1    6    6    0    0 -0.10508029207E+02 -0.19528011248E+02 -0.14158538203E+02  0.26310190139E+02  0.00000000000E+00 0. -1.
         -5    1    3    3    0  503 -0.14297113254E+02  0.83557848042E+02  0.23697846012E+02  0.88147599641E+02  0.47000000000E+01 0.  1.
         13    1    4    4    0    0 -0.26648070330E+02 -0.19711284038E+02 -0.58590590137E+02  0.67316503350E+02  0.00000000000E+00 0. -1.
        -14    1    4    4    0    0 -0.61601785872E+02  0.11560104121E+02 -0.28311238810E+01  0.62740985746E+02  0.00000000000E+00 0.  1.
</event>
<event>
12    1  0.8416569E-002  0.1745806E+03  0.7818608E-02  0.1173438E+00
         21   -1    0    0  501  502  0.00000000000E+00  0.00000000000E+00  0.48864043364E+03  0.48864043364E+03  0.00000000000E+00 0. -1.
         21   -1    0    0  502  503 -0.00000000000E+00 -0.00000000000E+00 -0.66551607133E+02  0.66551607133E+02  0.00000000000E+00 0. -1.
         -6    2    1    2    0  503  0.15614757021E+02 -0.23111669533E+02  0.13886577894E+03  0.22307414725E+03  0.17233804196E+03 0.  0.
        -24    2    3    3    0    0  0.58741803924E+02 -0.60701639698E+02  0.10295770969E+03  0.15536574697E+03  0.80018352631E+02 0.  0.
          6    2    1    2  501    0 -0.15614757021E+02  0.23111669533E+02  0.28322304757E+03  0.33211789352E+03  0.17119880436E+03 0.  0.
         24    2    5    5    0    0  0.24962649332E+02  0.66652975360E+02  0.13593063268E+03  0.17318546542E+03  0.80313856486E+02 0.  0.
          5    1    5    5  501    0 -0.40577406353E+02 -0.43541305827E+02  0.14729241488E+03  0.15893242810E+03  0.47000000000E+01 0. -1.
        -13    1    6    6    0    0  0.34427465606E+01 -0.11790674065E+02 -0.25849752775E+01  0.12552075365E+02  0.00000000000E+00 0.  1.
         14    1    6    6    0    0  0.21519902771E+02  0.78443649425E+02  0.13851560796E+03  0.16063339005E+03  0.00000000000E+00 0. -1.
         -5    1    3    3    0  503 -0.43127046903E+02  0.37589970165E+02  0.35908069246E+02  0.67708400281E+02  0.47000000000E+01 0.  1.
         11    1    4    4    0    0  0.39078868438E+02  0.31125903310E+01  0.71522124307E+02  0.81561390635E+02  0.00000000000E+00 0. -1.
        -12    1    4    4    0    0  0.19662935486E+02 -0.63814230029E+02  0.31435585383E+02  0.73804356338E+02  0.00000000000E+00 0.  1.
</event>
<event>
12    1  0.8416569E-002  0.2460613E+03  0.7818608E-02  0.1116391E+00
         21   -1    0    0  501  502  0.00000000000E+00  0.00000000000E+00  0.40104971464E+02  0.40104971464E+02  0.00000000000E+00 0.  1.
         21   -1    0    0  502  503 -0.00000000000E+00 -0.00000000000E+00 -0.26038033304E+04  0.26038033304E+04  0.00000000000E+00 0.  1.
         -6    2    1    2    0  503  0.11227228372E+02  0.16930088363E+03 -0.21418648054E+04  0.21555542105E+04  0.17332129136E+03 0.  0.
        -24    2    3    3    0    0 -0.27004884986E+02  0.81173063409E+02 -0.66220924164E+03  0.67277611366E+03  0.82391075694E+02 0.  0.
          6    2    1    2  501    0 -0.11227228372E+02 -0.16930088363E+03 -0.42183355359E+03  0.48835409139E+03  0.17820586913E+03 0.  0.
         24    2    5    5    0    0 -0.63538058361E+02 -0.47328608640E+02 -0.17146566153E+03  0.20494655766E+03  0.79533240586E+02 0.  0.
          5    1    5    5  501    0  0.52310829989E+02 -0.12197227499E+03 -0.25036789206E+03  0.28340753373E+03  0.47000000000E+01 0. -1.
        -11    1    6    6    0    0 -0.41041406787E+02  0.13811679569E+01 -0.22963902069E+02  0.47049394196E+02  0.00000000000E+00 0.  1.
         12    1    6    6    0    0 -0.22496651574E+02 -0.48709776597E+02 -0.14850175946E+03  0.15789716347E+03  0.00000000000E+00 0. -1.
         -5    1    3    3    0  503  0.38232113358E+02  0.88127820223E+02 -0.14796555637E+04  0.14827780969E+04  0.47000000000E+01 0.  1.
         11    1    4    4    0    0 -0.33380073716E+02  0.77242746056E+02 -0.33251878813E+03  0.34300060583E+03  0.00000000000E+00 0. -1.
        -12    1    4    4    0    0  0.63751887300E+01  0.39303173528E+01 -0.32969045351E+03  0.32977550782E+03  0.00000000000E+00 0.  1.
</event>
<event>
12    1  0.8416569E-002  0.2702033E+03  0.7818608E-02  0.1101964E+00
         21   -1    0    0  501  502  0.00000000000E+00  0.00000000000E+00  0.27773047125E+03  0.27773047125E+03  0.00000000000E+00 0. -1.
         21   -1    0    0  502  503 -0.00000000000E+00 -0.00000000000E+00 -0.44074149789E+03  0.44074149789E+03  0.00000000000E+00 0.  1.
         -6    2    1    2    0  503  0.56806034722E+02  0.19323589606E+03 -0.31361438656E+03  0.41396109256E+03  0.18011875412E+03 0.  0.
        -24    2    3    3    0    0  0.33329531934E+02  0.71717415444E+02 -0.38622277773E+02  0.11236428022E+03  0.69855606449E+02 0.  0.
          6    2    1    2  501    0 -0.56806034722E+02 -0.19323589606E+03  0.15060335992E+03  0.30451087658E+03  0.17169293761E+03 0.  0.
         24    2    5    5    0    0  0.64922652941E+00 -0.70721879572E+02  0.70322225944E+01  0.10716460031E+03  0.80204698491E+02 0.  0.
          5    1    5    5  501    0 -0.57455261251E+02 -0.12251401649E+03  0.14357113733E+03  0.19734627626E+03  0.47000000000E+01 0. -1.
        -11    1    6    6    0    0 -0.19038486208E+02 -0.47520634597E+00 -0.21597271059E+02  0.28794650465E+02  0.00000000000E+00 0.  1.
         12    1    6    6    0    0  0.19687712738E+02 -0.70246673226E+02  0.28629493653E+02  0.78369949847E+02  0.00000000000E+00 0. -1.
         -5    1    3    3    0  503  0.23476502787E+02  0.12151848062E+03 -0.27499210879E+03  0.30159681234E+03  0.47000000000E+01 0.  1.
         13    1    4    4    0    0  0.25411004790E+02  0.12373089450E+02 -0.43954333876E+02  0.52257018413E+02  0.00000000000E+00 0. -1.
        -14    1    4    4    0    0  0.79185271447E+01  0.59344325994E+02  0.53320561032E+01  0.60107261809E+02  0.00000000000E+00 0.  1.
</event>
<event>
12    1  0.8416569E-002  0.2218424E+03  0.7818608E-02  0.1132909E+00
         21   -1    0    0  501  502  0.00000000000E+00  0.00000000000E+00  0.46425294950E+03  0.46425294950E+03  0.00000000000E+00 0. -1.
         21   -1    0    0  502  503 -0.00000000000E+00 -0.00000000000E+00 -0.16823264606E+03  0.16823264606E+03  0.00000000000E+00 0. -1.
         -6    2    1    2    0  503  0.13381450008E+03  0.31196741398E+02 -0.45430918870E+02  0.22644647426E+03  0.17416796551E+03 0.  0.
        -24    2    3    3    0    0  0.16367017710E+03  0.40757371757E+02 -0.49667128320E+02  0.19446518951E+03  0.83071030280E+02 0.  0.
          6    2    1    2  501    0 -0.13381450008E+03 -0.31196741398E+02  0.34145122231E+03  0.40603912129E+03  0.17146216405E+03 0.  0.
         24    2    5    5    0    0 -0.11134412723E+01 -0.16562081272E+01  0.94424335734E+02  0.12403453480E+03  0.80402909570E+02 0.  0.
          5    1    5    5  501    0 -0.13270105880E+03 -0.29540533271E+02  0.24702688657E+03  0.28200458649E+03  0.47000000000E+01 0. -1.
        -11    1    6    6    0    0  0.46992877793E+00 -0.40548276959E+02  0.38641981000E+02  0.56014161540E+02  0.00000000000E+00 0.  1.
         12    1    6    6    0    0 -0.15833700502E+01  0.38892068832E+02  0.55782354733E+02  0.68020373259E+02  0.00000000000E+00 0. -1.
         -5    1    3    3    0  503 -0.29855677027E+02 -0.95606303590E+01  0.42362094503E+01  0.31981284747E+02  0.47000000000E+01 0.  1.
         11    1    4    4    0    0  0.19570325907E+02 -0.56267734432E+01 -0.37404465231E+02  0.42588170361E+02  0.00000000000E+00 0. -1.
        -12    1    4    4    0    0  0.14409985120E+03  0.46384145200E+02 -0.12262663089E+02  0.15187701915E+03  0.00000000000E+00 0.  1.
</event>
<event>
12    1  0.8416569E-002  0.2347266E+03  0.7818608E-02  0.1123411E+00
         21   -1    0    0  501  502  0.00000000000E+00  0.00000000000E+00  0.54393865806E+03  0.54393865806E+03  0.00000000000E+00 0.  1.
         21   -1    0    0  502  503 -0.00000000000E+00 -0.00000000000E+00 -0.10562852691E+03  0.10562852691E+03  0.00000000000E+00 0. -1.
         -6    2    1    2    0  503  0.88185908161E+02  0.13260800671E+03  0.15246408399E+03  0.27989619951E+03  0.17243824329E+03 0.  0.
        -24    2    3    3    0    0 -0.12581042282E+02  0.26430071378E+02  0.78025324399E+02  0.11560696924E+03  0.80126080592E+02 0.  0.
          6    2    1    2  501    0 -0.88185908161E+02 -0.13260800671E+03  0.28584604715E+03  0.36967098547E+03  0.17200882820E+03 0.  0.
         24    2    5    5    0    0 -0.53922689289E+02 -0.40331946412E+02  0.24453783099E+03  0.26281922744E+03  0.68853999171E+02 0.  0.
          5    1    5    5  501    0 -0.34263218872E+02 -0.92276060298E+02  0.41308216161E+02  0.10685175803E+03  0.47000000000E+01 0. -1.
        -13    1    6    6    0    0 -0.54421084471E+02 -0.48305246208E+02  0.24421323624E+03  0.25482377441E+03  0.00000000000E+00 0.  1.
         14    1    6    6    0    0  0.49839518104E+00  0.79732997968E+01  0.32459474994E+00  0.79954530301E+01  0.00000000000E+00 0. -1.
         -5    1    3    3    0  503  0.10076695044E+03  0.10617793533E+03  0.74438759592E+02  0.16428923027E+03  0.47000000000E+01 0.  1.
         11    1    4    4    0    0 -0.10044425348E+02  0.47453602998E+02  0.17634626307E+02  0.51611190289E+02  0.00000000000E+00 0. -1.
        -12    1    4    4    0    0 -0.25366169342E+01 -0.21023531621E+02  0.60390698092E+02  0.63995778949E+02  0.00000000000E+00 0.  1.
</event>
<event>
12    1  0.8416569E-002  0.2375502E+03  0.7818608E-02  0.1121571E+00
         21   -1    0    0  503  502  0.00000000000E+00  0.00000000000E+00  0.52324685765E+02  0.52324685765E+02  0.00000000000E+00 0. -1.
         21   -1    0    0  501  503 -0.00000000000E+00 -0.00000000000E+00 -0.11021560926E+04  0.11021560926E+04  0.00000000000E+00 0. -1.
          6    2    1    2  501    0  0.12748122464E+03  0.10226555057E+03 -0.61493740010E+03  0.65893776988E+03  0.17129294513E+03 0.  0.
         24    2    3    3    0    0  0.51391426592E+01  0.58378507224E+01 -0.23864109558E+03  0.25164563256E+03  0.79469872269E+02 0.  0.
         -6    2    1    2    0  502 -0.12748122464E+03 -0.10226555057E+03 -0.43489400670E+03  0.49554300846E+03  0.17239597067E+03 0.  0.
        -24    2    5    5    0    0 -0.96527158647E+02 -0.11593932466E+03 -0.22237619894E+03  0.28029655689E+03  0.79721807495E+02 0.  0.
          5    1    3    3  501    0  0.12234208198E+03  0.96427699845E+02 -0.37629630452E+03  0.40729213731E+03  0.47000000000E+01 0. -1.
        -11    1    4    4    0    0  0.27895591887E+02 -0.21570686498E+02 -0.60923501334E+02  0.70392695484E+02  0.00000000000E+00 0.  1.
         12    1    4    4    0    0 -0.22756449227E+02  0.27408537220E+02 -0.17771759425E+03  0.18125293708E+03  0.00000000000E+00 0. -1.
         -5    1    5    5    0  502 -0.30954065989E+02  0.13673774088E+02 -0.21251780776E+03  0.21524645157E+03  0.47000000000E+01 0.  1.
         11    1    6    6    0    0 -0.11939291742E+02 -0.34823370255E+02 -0.10690129988E+02  0.38333962518E+02  0.00000000000E+00 0. -1.
        -12    1    6    6    0    0 -0.84587866905E+02 -0.81115954401E+02 -0.21168606895E+03  0.24196259437E+03  0.00000000000E+00 0.  1.
</event>
<event>
12    1  0.8416569E-002  0.1748765E+03  0.7818608E-02  0.1173232E+00
         21   -1    0    0  503  502  0.00000000000E+00  0.00000000000E+00  0.77425296216E+02  0.77425296216E+02  0.00000000000E+00 0.  1.
         21   -1    0    0  501  503 -0.00000000000E+00 -0.00000000000E+00 -0.40322552943E+03  0.40322552943E+03  0.00000000000E+00 0.  1.
          6    2    1    2  501    0  0.32555749149E+02 -0.57633159213E+01 -0.20434164282E+03  0.26895595846E+03  0.17172276491E+03 0.  0.
         24    2    3    3    0    0  0.32140987010E+02 -0.67093521953E+02 -0.99004991176E+02  0.14697454029E+03  0.79151395950E+02 0.  0.
         -6    2    1    2    0  502 -0.32555749149E+02  0.57633159213E+01 -0.12145859039E+03  0.21169486719E+03  0.17020409807E+03 0.  0.
        -24    2    5    5    0    0 -0.41936259939E+02 -0.17346614831E+02 -0.15003900247E+03  0.17347193118E+03  0.74305139135E+02 0.  0.
          5    1    3    3  501    0  0.41476213929E+00  0.61330206032E+02 -0.10533665165E+03  0.12198141817E+03  0.47000000000E+01 0. -1.
        -13    1    4    4    0    0 -0.12001380398E+02 -0.60379291434E+02 -0.72259502288E+02  0.94926959482E+02  0.00000000000E+00 0.  1.
         14    1    4    4    0    0  0.44142367408E+02 -0.67142305193E+01 -0.26745488888E+02  0.52047580806E+02  0.00000000000E+00 0. -1.
         -5    1    5    5    0  502  0.93805107901E+01  0.23109930752E+02  0.28580412079E+02  0.38222936002E+02  0.47000000000E+01 0.  1.
         13    1    6    6    0    0  0.20712592921E+02  0.21524796988E+01 -0.45642687129E+02  0.50168710993E+02  0.00000000000E+00 0. -1.
        -14    1    6    6    0    0 -0.62648852860E+02 -0.19499094529E+02 -0.10439631534E+03  0.12330322019E+03  0.00000000000E+00 0.  1.
</event>
<event>
12    1  0.8416569E-002  0.2148886E+03  0.7818608E-02  0.1137824E+00
         21   -1    0    0  501  502  0.00000000000E+00  0.00000000000E+00  0.33853138679E+03  0.33853138679E+03  0.00000000000E+00 0. -1.
         21   -1    0    0  502  503 -0.00000000000E+00 -0.00000000000E+00 -0.53141313257E+03  0.53141313257E+03  0.00000000000E+00 0. -1.
         -6    2    1    2    0  503  0.14029384067E+02 -0.12811907702E+03 -0.47154747413E+03  0.51804722256E+03  0.17147764555E+03 0.  0.
        -24    2    3    3    0    0 -0.34962648596E+02 -0.13130804388E+03 -0.40915587829E+03  0.43851615940E+03  0.80147988981E+02 0.  0.
          6    2    1    2  501    0 -0.14029384067E+02  0.12811907702E+03  0.27866572835E+03  0.35189729681E+03  0.17194707857E+03 0.  0.
         24    2    5    5    0    0  0.30909088600E+02  0.12881761330E+03  0.14712720904E+03  0.21281305492E+03  0.78061715652E+02 0.  0.
          5    1    5    5  501    0 -0.44938472667E+02 -0.69853628328E+00  0.13153851931E+03  0.13908424189E+03  0.47000000000E+01 0. -1.
        -11    1    6    6    0    0  0.25653251912E+01  0.11543594803E+02  0.66868620617E+02  0.67906169805E+02  0.00000000000E+00 0.  1.
         12    1    6    6    0    0  0.28343763409E+02  0.11727401850E+03  0.80258588426E+02  0.14490688512E+03  0.00000000000E+00 0. -1.
         -5    1    3    3    0  503  0.48992032663E+02  0.31889668580E+01 -0.62391595845E+02  0.79531063153E+02  0.47000000000E+01 0.  1.
         13    1    4    4    0    0  0.52283858656E+01 -0.11087104517E+03 -0.26017407240E+03  0.28286087150E+03  0.00000000000E+00 0. -1.
        -14    1    4    4    0    0 -0.40191034462E+02 -0.20436998705E+02 -0.14898180589E+03  0.15565528791E+03  0.00000000000E+00 0.  1.
</event>
<event>
12    1  0.8416569E-002  0.2020427E+03  0.7818608E-02  0.1148255E+00
         21   -1    0    0  503  502  0.00000000000E+00  0.00000000000E+00  0.32599412754E+02  0.32599412754E+02  0.00000000000E+00 0. -1.
         21   -1    0    0  501  503 -0.00000000000E+00 -0.00000000000E+00 -0.15553509857E+04  0.15553509857E+04  0.00000000000E+00 0. -1.
          6    2    1    2  501    0  0.67316071408E+02 -0.78662665716E+02 -0.11141368973E+04  0.11321135728E+04  0.17222324845E+03 0.  0.
         24    2    3    3    0    0 -0.85487264163E+01 -0.44248660965E+02 -0.21156648944E+03  0.22569467271E+03  0.64394728926E+02 0.  0.
         -6    2    1    2    0  502 -0.67316071408E+02  0.78662665716E+02 -0.40861467570E+03  0.45583682573E+03  0.17349925084E+03 0.  0.
        -24    2    5    5    0    0 -0.35894152272E+02  0.11474009885E+03 -0.36084115879E+03  0.38806281078E+03  0.77024170104E+02 0.  0.
          5    1    3    3  501    0  0.75864797825E+02 -0.34414004751E+02 -0.90257040783E+03  0.90641890005E+03  0.47000000000E+01 0. -1.
        -11    1    4    4    0    0  0.25340578161E+02 -0.62159368429E+01 -0.51743457610E+02  0.57949703863E+02  0.00000000000E+00 0.  1.
         12    1    4    4    0    0 -0.33889304577E+02 -0.38032724122E+02 -0.15982303183E+03  0.16774496884E+03  0.00000000000E+00 0. -1.
         -5    1    5    5    0  502 -0.31421919136E+02 -0.36077433137E+02 -0.47773516910E+02  0.67774014946E+02  0.47000000000E+01 0.  1.
         13    1    6    6    0    0 -0.32982223122E+02  0.70353420348E+01 -0.11019435967E+03  0.11523940291E+03  0.00000000000E+00 0. -1.
        -14    1    6    6    0    0 -0.29119291501E+01  0.10770475682E+03 -0.25064679912E+03  0.27282340787E+03  0.00000000000E+00 0.  1.
</event>
<event>
12    1  0.8416569E-002  0.1916713E+03  0.7818608E-02  0.1157162E+00
         21   -1    0    0  501  502  0.00000000000E+00  0.00000000000E+00  0.28006625061E+03  0.28006625061E+03  0.00000000000E+00 0. -1.
         21   -1    0    0  502  503 -0.00000000000E+00 -0.00000000000E+00 -0.19073399218E+03  0.19073399218E+03  0.00000000000E+00 0.  1.
         -6    2    1    2    0  503  0.76644974051E+02 -0.24966595973E+02  0.17695243018E+03  0.26086400985E+03  0.17389676860E+03 0.  0.
        -24    2    3    3    0    0  0.35716953541E+02 -0.26077564290E+02  0.19464949111E+03  0.21601300007E+03  0.82567861058E+02 0.  0.
          6    2    1    2  501    0 -0.76644974051E+02  0.24966595973E+02 -0.87620171750E+02  0.20993623294E+03  0.17291079908E+03 0.  0.
         24    2    5    5    0    0 -0.63333684411E+02  0.21932221681E+02 -0.12896693875E+03  0.16614076513E+03  0.80486673532E+02 0.  0.
          5    1    5    5  501    0 -0.13311289640E+02  0.30343742917E+01  0.41346767002E+02  0.43795467811E+02  0.47000000000E+01 0. -1.
        -11    1    6    6    0    0 -0.56106245055E+02 -0.21955572462E+02 -0.72997845154E+02  0.94650109843E+02  0.00000000000E+00 0.  1.
         12    1    6    6    0    0 -0.72274393565E+01  0.43887794143E+02 -0.55969093599E+02  0.71490655282E+02  0.00000000000E+00 0. -1.
         -5    1    3    3    0  503  0.40928020509E+02  0.11109683172E+01 -0.17697060928E+02  0.44851009787E+02  0.47000000000E+01 0.  1.
         11    1    4    4    0    0 -0.25164860457E+02  0.43596631579E+01  0.49740465345E+02  0.55914137366E+02  0.00000000000E+00 0. -1.
        -12    1    4    4    0    0  0.60881813998E+02 -0.30437227448E+02  0.14490902576E+03  0.16009886270E+03  0.00000000000E+00 0.  1.
</event>
<event>
12    1  0.8416569E-002  0.1963840E+03  0.7818608E-02  0.1154809E+00
         21   -1    0    0  503  502  0.00000000000E+00  0.00000000000E+00  0.11696383082E+03  0.11696383082E+03  0.00000000000E+00 0.  1.
         21   -1    0    0  501  503 -0.00000000000E+00 -0.00000000000E+00 -0.39248074322E+03  0.39248074322E+03  0.00000000000E+00 0.  1.
          6    2    1    2  501    0  0.78569642456E+02  0.12889479856E+02 -0.25358298167E+03  0.32073510926E+03  0.17951978807E+03 0.  0.
         24    2    3    3    0    0  0.77901924662E+02 -0.29851047993E+02 -0.25293607737E+03  0.27772688849E+03  0.78713216320E+02 0.  0.
         -6    2    1    2    0  502 -0.78569642456E+02 -0.12889479856E+02 -0.21933930734E+02  0.18870946478E+03  0.16967862969E+03 0.  0.
        -24    2    5    5    0    0 -0.76820869240E+02  0.32549727626E+02 -0.53473550145E+02  0.13317013298E+03  0.88960289080E+02 0.  0.
          5    1    3    3  501    0  0.66771779466E+00  0.42740527849E+02 -0.64690429808E+00  0.43008220761E+02  0.47000000000E+01 0. -1.
        -13    1    4    4    0    0  0.81041042981E+02 -0.20553989688E+02 -0.13106297933E+03  0.15545938920E+03  0.00000000000E+00 0.  1.
         14    1    4    4    0    0 -0.31391183193E+01 -0.92970583051E+01 -0.12187309805E+03  0.12226749930E+03  0.00000000000E+00 0. -1.
         -5    1    5    5    0  502 -0.17487732160E+01 -0.45439207483E+02  0.31539619411E+02  0.55539331802E+02  0.47000000000E+01 0.  1.
         11    1    6    6    0    0  0.93938592090E+01 -0.12478746714E+02 -0.28896627034E+02  0.32847812169E+02  0.00000000000E+00 0. -1.
        -12    1    6    6    0    0 -0.86214728449E+02  0.45028474341E+02 -0.24576923111E+02  0.10032232081E+03  0.00000000000E+00 0.  1.
</event>
<event>
12    1  0.8416569E-002  0.1970558E+03  0.7818608E-02  0.1152412E+00
         21   -1    0    0  503  502  0.00000000000E+00  0.00000000000E+00  0.52630057775E+03  0.52630057775E+03  0.00000000000E+00 0.  1.
         21   -1    0    0  501  503 -0.00000000000E+00 -0.00000000000E+00 -0.17788703266E+03  0.17788703266E+03  0.00000000000E+00 0.  1.
          6    2    1    2  501    0 -0.66073177718E+02 -0.66881010778E+02 -0.95378027079E+02  0.21892453707E+03  0.17318270833E+03 0.  0.
         24    2    3    3    0    0 -0.67242712989E+02 -0.43170981654E+02  0.63658355449E+01  0.11434233555E+03  0.81537290423E+02 0.  0.
         -6    2    1    2    0  502  0.66073177718E+02  0.66881010778E+02  0.44379157217E+03  0.48526307334E+03  0.17230947856E+03 0.  0.
        -24    2    5    5    0    0  0.38792215642E+02  0.28583644780E+02  0.95825326669E+02  0.13410280061E+03  0.80493522456E+02 0.  0.
          5    1    3    3  501    0  0.11695352707E+01 -0.23710029124E+02 -0.10174386262E+03  0.10458220152E+03  0.47000000000E+01 0. -1.
        -11    1    4    4    0    0 -0.78074758019E+02 -0.94075259493E+01  0.61992582584E+01  0.78883459528E+02  0.00000000000E+00 0.  1.
         12    1    4    4    0    0  0.10832045030E+02 -0.33763455705E+02  0.16657728652E+00  0.35458876021E+02  0.00000000000E+00 0. -1.
         -5    1    5    5    0  502  0.27280962076E+02  0.38297365998E+02  0.34796624550E+03  0.35116027273E+03  0.47000000000E+01 0.  1.
         11    1    6    6    0    0 -0.22232172335E+02 -0.35244840174E+01  0.11832316384E+02  0.25430202227E+02  0.00000000000E+00 0. -1.
        -12    1    6    6    0    0  0.61024387977E+02  0.32108128797E+02  0.83993010285E+02  0.10867259838E+03  0.00000000000E+00 0.  1.
</event>
<event>
12    1  0.8416569E-002  0.1991166E+03  0.7818608E-02  0.1151271E+00
         21   -1    0    0  501  502  0.00000000000E+00  0.00000000000E+00  0.33107990340E+03  0.33107990340E+03  0.00000000000E+00 0. -1.
         21   -1    0    0  502  503 -0.00000000000E+00 -0.00000000000E+00 -0.23614705756E+03  0.23614705756E+03  0.00000000000E+00 0. -1.
         -6    2    1    2    0  503  0.27864842876E+02 -0.82624195839E+02 -0.15329062414E+03  0.25128753267E+03  0.17900894229E+03 0.  0.
        -24    2    3    3    0    0  0.46450088666E+02 -0.36963920876E+02 -0.17183873157E+03  0.19840658752E+03  0.79452389017E+02 0.  0.
          6    2    1    2  501    0 -0.27864842876E+02  0.82624195839E+02  0.24822346998E+03  0.31593942829E+03  0.17492748239E+03 0.  0.
         24    2    5    5    0    0 -0.81285294507E+02  0.40544668323E+02  0.11576935643E+03  0.16697428645E+03  0.78909436789E+02 0.  0.
          5    1    5    5  501    0  0.53420451631E+02  0.42079527515E+02  0.13245411355E+03  0.14896514184E+03  0.47000000000E+01 0. -1.
        -11    1    6    6    0    0 -0.35416032722E+02  0.57260120459E+02  0.88024532720E+02  0.11082118538E+03  0.00000000000E+00 0.  1.
         12    1    6    6    0    0 -0.45869261785E+02 -0.16715452136E+02  0.27744823713E+02  0.56153101069E+02  0.00000000000E+00 0. -1.
         -5    1    3    3    0  503 -0.18585245790E+02 -0.45660274962E+02  0.18548107431E+02  0.52880945150E+02  0.47000000000E+01 0.  1.
         13    1    4    4    0    0 -0.42324646897E+01 -0.32751136355E+02 -0.12492383556E+03  0.12921499673E+03  0.00000000000E+00 0. -1.
        -14    1    4    4    0    0  0.50682553356E+02 -0.42127845207E+01 -0.46914896010E+02  0.69191590787E+02  0.00000000000E+00 0.  1.
</event>
<event>
12    1  0.8416569E-002  0.1822012E+03  0.7818608E-02  0.1167111E+00
         21   -1    0    0  501  502  0.00000000000E+00  0.00000000000E+00  0.15114196782E+04  0.15114196782E+04  0.00000000000E+00 0.  1.
         21   -1    0    0  502  503 -0.00000000000E+00 -0.00000000000E+00 -0.22714508046E+02  0.22714508046E+02  0.00000000000E+00 0.  1.
         -6    2    1    2    0  503  0.51415063433E+02 -0.31399539055E+02  0.94965200133E+03  0.96697270678E+03  0.17195305236E+03 0.  0.
        -24    2    3    3    0    0 -0.21535476673E+02 -0.30565608316E+02  0.72729828524E+03  0.73290916454E+03  0.82431878498E+02 0.  0.
          6    2    1    2  501    0 -0.51415063433E+02  0.31399539055E+02  0.53905316879E+03  0.56716147944E+03  0.16572382199E+03 0.  0.
         24    2    5    5    0    0 -0.50342511805E+02  0.49116750850E+02  0.53864847804E+03  0.54879564879E+03  0.78023442178E+02 0.  0.
          5    1    5    5  501    0 -0.10725516275E+01 -0.17717211795E+02  0.40469075239E+00  0.18365830648E+02  0.47000000000E+01 0. -1.
        -13    1    6    6    0    0 -0.68286938301E+02  0.28781100667E+02  0.31982289644E+03  0.32829581597E+03  0.00000000000E+00 0.  1.
         14    1    6    6    0    0  0.17944426495E+02  0.20335650183E+02  0.21882558161E+03  0.22049983282E+03  0.00000000000E+00 0. -1.
         -5    1    3    3    0  503  0.72950540106E+02 -0.83393073894E+00  0.22235371609E+03  0.23406354223E+03  0.47000000000E+01 0.  1.
         11    1    4    4    0    0 -0.48372804685E+02 -0.38150471561E+01  0.51271055736E+03  0.51500155189E+03  0.00000000000E+00 0. -1.
        -12    1    4    4    0    0  0.26837328012E+02 -0.26750561160E+02  0.21458772788E+03  0.21790761265E+03  0.00000000000E+00 0.  1.
</event>
<event>
12    1  0.8416569E-002  0.2381963E+03  0.7818608E-02  0.1121388E+00
         21   -1    0    0  503  502  0.00000000000E+00  0.00000000000E+00  0.16024811868E+03  0.16024811868E+03  0.00000000000E+00 0. -1.
         21   -1    0    0  501  503 -0.00000000000E+00 -0.00000000000E+00 -0.44768925639E+03  0.44768925639E+03  0.00000000000E+00 0.  1.
          6    2    1    2  501    0  0.32389044852E+02 -0.16127800025E+03 -0.27557108195E+01  0.23821221374E+03  0.17227252027E+03 0.  0.
         24    2    3    3    0    0  0.12061481583E+02 -0.18770301522E+03 -0.13342125046E+01  0.20451352086E+03  0.80287600733E+02 0.  0.
         -6    2    1    2    0  502 -0.32389044852E+02  0.16127800025E+03 -0.28468542688E+03  0.36972516133E+03  0.16908950011E+03 0.  0.
        -24    2    5    5    0    0  0.19732626786E+01  0.85969145580E+02 -0.56190890858E+02  0.12665308402E+03  0.74087783877E+02 0.  0.
          5    1    3    3  501    0  0.20327563269E+02  0.26425014965E+02 -0.14214983148E+01  0.33698692880E+02  0.47000000000E+01 0. -1.
        -13    1    4    4    0    0  0.29919427873E+01  0.66359986891E+01  0.65653854862E+01  0.98026775335E+01  0.00000000000E+00 0.  1.
         14    1    4    4    0    0  0.90695387956E+01 -0.19433901391E+03 -0.78995979908E+01  0.19471084333E+03  0.00000000000E+00 0. -1.
         -5    1    5    5    0  502 -0.34362307531E+02  0.75308854673E+02 -0.22849453603E+03  0.24307207730E+03  0.47000000000E+01 0.  1.
         11    1    6    6    0    0 -0.10128904293E+02 -0.93410009831E+01  0.25935080130E+01  0.14020530852E+02  0.00000000000E+00 0. -1.
        -12    1    6    6    0    0  0.12102166972E+02  0.95310146563E+02 -0.58784398871E+02  0.11263255317E+03  0.00000000000E+00 0.  1.
</event>
<event>
12    1  0.8416569E-002  0.3217550E+03  0.7818608E-02  0.1075079E+00
         21   -1    0    0  501  502  0.00000000000E+00  0.00000000000E+00  0.11025232836E+03  0.11025232836E+03  0.00000000000E+00 0.  1.
         21   -1    0    0  502  503 -0.00000000000E+00 -0.00000000000E+00 -0.97042775477E+03  0.97042775477E+03  0.00000000000E+00 0. -1.
         -6    2    1    2    0  503  0.26744708823E+03 -0.42011435668E+02 -0.32271797331E+03  0.45427224701E+03  0.17006904002E+03 0.  0.
        -24    2    3    3    0    0  0.16211025640E+03 -0.87870085164E+02 -0.23703191876E+03  0.31087401194E+03  0.80359403288E+02 0.  0.
          6    2    1    2  501    0 -0.26744708823E+03  0.42011435668E+02 -0.53745745309E+03  0.62640783612E+03  0.17387742101E+03 0.  0.
         24    2    5    5    0    0 -0.15405431665E+03 -0.30146119224E+02 -0.38857069713E+03  0.42577386722E+03  0.75197595422E+02 0.  0.
          5    1    5    5  501    0 -0.11339277158E+03  0.72157554892E+02 -0.14888675596E+03  0.20063396889E+03  0.47000000000E+01 0. -1.
        -11    1    6    6    0    0 -0.83089972074E+02 -0.27715748545E+02 -0.29846957071E+03  0.31105657173E+03  0.00000000000E+00 0.  1.
         12    1    6    6    0    0 -0.70964344576E+02 -0.24303706787E+01 -0.90101126427E+02  0.11471729550E+03  0.00000000000E+00 0. -1.
         -5    1    3    3    0  503  0.10533683183E+03  0.45858649496E+02 -0.85686054558E+02  0.14339823506E+03  0.47000000000E+01 0.  1.
         11    1    4    4    0    0  0.13710432374E+03 -0.40155226579E+02 -0.14077622718E+03  0.20056915005E+03  0.00000000000E+00 0. -1.
        -12    1    4    4    0    0  0.25005932655E+02 -0.47714858585E+02 -0.96255691577E+02  0.11030486190E+03  0.00000000000E+00 0.  1.
</event>
<event>
12    1  0.8416569E-002  0.2068222E+03  0.7818608E-02  0.1144325E+00
         21   -1    0    0  501  502  0.00000000000E+00  0.00000000000E+00  0.10437092128E+04  0.10437092128E+04  0.00000000000E+00 0.  1.
         21   -1    0    0  502  503 -0.00000000000E+00 -0.00000000000E+00 -0.48854104882E+02  0.48854104882E+02  0.00000000000E+00 0. -1.
         -6    2    1    2    0  503  0.10550702307E+03  0.40953473898E+02  0.27631073635E+03  0.34514207520E+03  0.17310837678E+03 0.  0.
        -24    2    3    3    0    0  0.11478538432E+02 -0.18015734397E+02  0.16249875804E+03  0.18610126328E+03  0.88156169943E+02 0.  0.
          6    2    1    2  501    0 -0.10550702307E+03 -0.40953473898E+02  0.71854437158E+03  0.74742124249E+03  0.17182427320E+03 0.  0.
         24    2    5    5    0    0 -0.27299477119E+02  0.26732937399E+02  0.46660871334E+03  0.47504000891E+03  0.80494765691E+02 0.  0.
          5    1    5    5  501    0 -0.78207545951E+02 -0.67686411297E+02  0.25193565824E+03  0.27238123359E+03  0.47000000000E+01 0. -1.
        -11    1    6    6    0    0 -0.16658230365E+02 -0.23139922266E+02  0.28452479404E+03  0.28594984013E+03  0.00000000000E+00 0.  1.
         12    1    6    6    0    0 -0.10641246754E+02  0.49872859665E+02  0.18208391929E+03  0.18909016878E+03  0.00000000000E+00 0. -1.
         -5    1    3    3    0  503  0.94028484638E+02  0.58969208295E+02  0.11381197831E+03  0.15904081193E+03  0.47000000000E+01 0.  1.
         13    1    4    4    0    0 -0.28978078394E+02  0.18937103687E+02  0.78725438610E+02  0.86000218650E+02  0.00000000000E+00 0. -1.
        -14    1    4    4    0    0  0.40456616826E+02 -0.36952838084E+02  0.83773319428E+02  0.10010104463E+03  0.00000000000E+00 0.  1.
</event>
<event>
12    1  0.8416569E-002  0.1747834E+03  0.7818608E-02  0.1173816E+00
         21   -1    0    0  503  502  0.00000000000E+00  0.00000000000E+00  0.34151182937E+03  0.34151182937E+03  0.00000000000E+00 0.  1.
         21   -1    0    0  501  503 -0.00000000000E+00 -0.00000000000E+00 -0.87893481731E+02  0.87893481731E+02  0.00000000000E+00 0.  1.
          6    2    1    2  501    0  0.88614908752E+01  0.47071774061E+01  0.11593614166E+03  0.20690673531E+03  0.17108046246E+03 0.  0.
         24    2    3    3    0    0  0.31864194370E+02  0.63515788607E+01  0.14583784569E+03  0.16885374162E+03  0.78659007024E+02 0.  0.
         -6    2    1    2    0  502 -0.88614908752E+01 -0.47071774061E+01  0.13768220599E+03  0.22249857580E+03  0.17449510837E+03 0.  0.
        -24    2    5    5    0    0  0.22903193029E+02  0.60290935265E+02  0.71730300882E+02  0.12449095578E+03  0.78696943272E+02 0.  0.
          5    1    3    3  501    0 -0.23002703495E+02 -0.16444014546E+01 -0.29901704037E+02  0.38052993687E+02  0.47000000000E+01 0. -1.
        -13    1    4    4    0    0 -0.84418390803E+01  0.27875820625E+02  0.99905098067E+02  0.10406418520E+03  0.00000000000E+00 0.  1.
         14    1    4    4    0    0  0.40306033450E+02 -0.21524241765E+02  0.45932747626E+02  0.64789556415E+02  0.00000000000E+00 0. -1.
         -5    1    5    5    0  502 -0.31764683905E+02 -0.64998112671E+02  0.65951905106E+02  0.98007620017E+02  0.47000000000E+01 0.  1.
         11    1    6    6    0    0  0.28686785449E+02 -0.89270668913E+01  0.10288556839E+02  0.31756551836E+02  0.00000000000E+00 0. -1.
        -12    1    6    6    0    0 -0.57835924198E+01  0.69218002156E+02  0.61441744043E+02  0.92734403944E+02  0.00000000000E+00 0.  1.
</event>
<event>
12    1  0.8416569E-002  0.1768407E+03  0.7818608E-02  0.1170957E+00
         21   -1    0    0  503  502  0.00000000000E+00  0.00000000000E+00  0.49521947468E+03  0.49521947468E+03  0.00000000000E+00 0. -1.
         21   -1    0    0  501  503 -0.00000000000E+00 -0.00000000000E+00 -0.87634276471E+02  0.87634276471E+02  0.00000000000E+00 0. -1.
          6    2    1    2  501    0 -0.15095536257E+02 -0.39710641637E+02  0.49574814448E+02  0.18365812220E+03  0.17166197409E+03 0.  0.
         24    2    3    3    0    0 -0.60613619388E+02  0.17144394178E+02  0.13553940989E+02  0.10227025877E+03  0.79420119646E+02 0.  0.
         -6    2    1    2    0  502  0.15095536257E+02  0.39710641637E+02  0.35801038376E+03  0.39919562895E+03  0.17140859086E+03 0.  0.
        -24    2    5    5    0    0  0.63662927980E+02  0.24816316744E+02  0.31231546570E+03  0.33070659341E+03  0.84599543938E+02 0.  0.
          5    1    3    3  501    0  0.45518083131E+02 -0.56855035815E+02  0.36020873459E+02  0.81387863433E+02  0.47000000000E+01 0. -1.
        -11    1    4    4    0    0 -0.54947906709E+02 -0.23819280601E+02  0.10520461702E+02  0.60805515329E+02  0.00000000000E+00 0.  1.
         12    1    4    4    0    0 -0.56657126794E+01  0.40963674780E+02  0.30334792866E+01  0.41464743436E+02  0.00000000000E+00 0. -1.
         -5    1    5    5    0  502 -0.48567391723E+02  0.14894324893E+02  0.45694918060E+02  0.68489035541E+02  0.47000000000E+01 0.  1.
         11    1    6    6    0    0 -0.37198811205E+01  0.35322226477E+02  0.63981193717E+02  0.73178482823E+02  0.00000000000E+00 0. -1.
        -12    1    6    6    0    0  0.67382809101E+02 -0.10505909734E+02  0.24833427198E+03  0.25752811059E+03  0.00000000000E+00 0.  1.
</event>
<event>
12    1  0.8416569E-002  0.1774155E+03  0.7818608E-02  0.1170445E+00
         21   -1    0    0  501  502  0.00000000000E+00  0.00000000000E+00  0.24622494675E+03  0.24622494675E+03  0.00000000000E+00 0. -1.
         21   -1    0    0  502  503 -0.00000000000E+00 -0.00000000000E+00 -0.15546667992E+03  0.15546667992E+03  0.00000000000E+00 0. -1.
         -6    2    1    2    0  503 -0.32332396550E+02  0.24899055996E+02 -0.39864726886E+02  0.18137676651E+03  0.17217139171E+03 0.  0.
        -24    2    3    3    0    0  0.70762353122E+01 -0.40369538201E+02 -0.54091366028E+02  0.10367530633E+03  0.78376785738E+02 0.  0.
          6    2    1    2  501    0  0.32332396550E+02 -0.24899055996E+02  0.13062299371E+03  0.22031486016E+03  0.17265840340E+03 0.  0.
         24    2    5    5    0    0  0.50613145969E+02 -0.48576756564E+02  0.26095319505E+02  0.11148956908E+03  0.82629089858E+02 0.  0.
          5    1    5    5  501    0 -0.18280749419E+02  0.23677700568E+02  0.10452767421E+03  0.10882529108E+03  0.47000000000E+01 0. -1.
        -11    1    6    6    0    0  0.72482856801E+02 -0.26118158274E+02  0.18600949129E+02  0.79258551779E+02  0.00000000000E+00 0.  1.
         12    1    6    6    0    0 -0.21869710832E+02 -0.22458598290E+02  0.74943703767E+01  0.32231017302E+02  0.00000000000E+00 0. -1.
         -5    1    3    3    0  503 -0.39408631862E+02  0.65268594197E+02  0.14226639142E+02  0.77701460186E+02  0.47000000000E+01 0.  1.
         13    1    4    4    0    0  0.39251608968E+02 -0.36292774434E+02 -0.21275762341E+02  0.57537051940E+02  0.00000000000E+00 0. -1.
        -14    1    4    4    0    0 -0.32175373656E+02 -0.40767637665E+01 -0.32815603687E+02  0.46138254388E+02  0.00000000000E+00 0.  1.
</event>
<event>
12    1  0.8416569E-002  0.1793316E+03  0.7818608E-02  0.1168545E+00
         21   -1    0    0  503  502  0.00000000000E+00  0.00000000000E+00  0.17004077040E+03  0.17004077040E+03  0.00000000000E+00 0. -1.
         21   -1    0    0  501  503 -0.00000000000E+00 -0.00000000000E+00 -0.19704735444E+03  0.19704735444E+03  0.00000000000E+00 0.  1.
          6    2    1    2  501    0  0.15717832690E+02  0.48404053386E+02 -0.51233014020E+02  0.18650640522E+03  0.17195875905E+03 0.  0.
         24    2    3    3    0    0  0.28753336732E+02  0.63794823018E+02 -0.91385377758E+02  0.14132784317E+03  0.82010597905E+02 0.  0.
         -6    2    1    2    0  502 -0.15717832690E+02 -0.48404053386E+02  0.24226429980E+02  0.18058171962E+03  0.17156000380E+03 0.  0.
        -24    2    5    5    0    0 -0.37817583243E+02  0.30399159303E+02  0.29038268155E+02  0.98462360815E+02  0.80606060512E+02 0.  0.
          5    1    3    3  501    0 -0.13035504042E+02 -0.15390769632E+02  0.40152363738E+02  0.45178562054E+02  0.47000000000E+01 0. -1.
        -13    1    4    4    0    0  0.28015151526E+01  0.32183568264E+02  0.84902866362E+01  0.33402328070E+02  0.00000000000E+00 0.  1.
         14    1    4    4    0    0  0.25951821579E+02  0.31611254755E+02 -0.99875664394E+02  0.10792551510E+03  0.00000000000E+00 0. -1.
         -5    1    5    5    0  502  0.22099750554E+02 -0.78803212689E+02 -0.48118381748E+01  0.82119358809E+02  0.47000000000E+01 0.  1.
         13    1    6    6    0    0 -0.39451912597E+02 -0.19585626217E+02  0.12454326375E+02  0.45772922207E+02  0.00000000000E+00 0. -1.
        -14    1    6    6    0    0  0.16343293538E+01  0.49984785520E+02  0.16583941780E+02  0.52689438609E+02  0.00000000000E+00 0.  1.
</event>
<event>
12    1  0.8416569E-002  0.2654701E+03  0.7818608E-02  0.1103911E+00
         21   -1    0    0  501  502  0.00000000000E+00  0.00000000000E+00  0.25997487195E+03  0.25997487195E+03  0.00000000000E+00 0. -1.
         21   -1    0    0  502  503 -0.00000000000E+00 -0.00000000000E+00 -0.27825670396E+03  0.27825670396E+03  0.00000000000E+00 0.  1.
         -6    2    1    2    0  503 -0.20163103177E+03  0.16419242157E+02  0.34304944254E+02  0.26760318984E+03  0.17178467198E+03 0.  0.
        -24    2    3    3    0    0 -0.65382294167E+02  0.44460508329E+02  0.57343704797E+02  0.12652553182E+03  0.80429027906E+02 0.  0.
          6    2    1    2  501    0  0.20163103177E+03 -0.16419242157E+02 -0.52586776260E+02  0.27062838607E+03  0.17190023218E+03 0.  0.
         24    2    5    5    0    0  0.17652424461E+03 -0.61894677095E+02 -0.11166889833E+02  0.20402461038E+03  0.80681982036E+02 0.  0.
          5    1    5    5  501    0  0.25106787159E+02  0.45475434938E+02 -0.41419886426E+02  0.66603775687E+02  0.47000000000E+01 0. -1.
        -11    1    6    6    0    0  0.22304506044E+02  0.10895805605E+02 -0.21967614835E+02  0.33147936153E+02  0.00000000000E+00 0.  1.
         12    1    6    6    0    0  0.15421973857E+03 -0.72790482700E+02  0.10800725002E+02  0.17087667423E+03  0.00000000000E+00 0. -1.
         -5    1    3    3    0  503 -0.13624873761E+03 -0.28041266171E+02 -0.23038760543E+02  0.14107765803E+03  0.47000000000E+01 0.  1.
         13    1    4    4    0    0 -0.65686522623E+02  0.31952152603E+02  0.55658248842E+01  0.73257338996E+02  0.00000000000E+00 0. -1.
        -14    1    4    4    0    0  0.30422845562E+00  0.12508355726E+02  0.51777879913E+02  0.53268192819E+02  0.00000000000E+00 0.  1.
</event>
<event>
12    1  0.8416569E-002  0.1834237E+03  0.7818608E-02  0.1164851E+00
         21   -1    0    0  503  502  0.00000000000E+00  0.00000000000E+00  0.34155901890E+02  0.34155901890E+02  0.00000000000E+00 0.  1.
         21   -1    0    0  501  503 -0.00000000000E+00 -0.00000000000E+00 -0.10483495344E+04  0.10483495344E+04  0.00000000000E+00 0.  1.
          6    2    1    2  501    0  0.23024500042E+01  0.63520861564E+02 -0.64930369403E+03  0.67471440713E+03  0.17205825458E+03 0.  0.
         24    2    3    3    0    0  0.46655330554E+02 -0.13986989336E+02 -0.36798081019E+03  0.37952074199E+03  0.79080725791E+02 0.  0.
         -6    2    1    2    0  502 -0.23024500042E+01 -0.63520861564E+02 -0.36488993847E+03  0.40779102915E+03  0.17061258785E+03 0.  0.
        -24    2    5    5    0    0 -0.42719890679E+02 -0.47314083763E+02 -0.12344787233E+03  0.16240849013E+03  0.84104273975E+02 0.  0.
          5    1    3    3  501    0 -0.44352880550E+02  0.77507850900E+02 -0.28132288384E+03  0.29519366514E+03  0.47000000000E+01 0. -1.
        -13    1    4    4    0    0  0.15135960862E+02 -0.33598278779E+02 -0.29830710239E+03  0.30057456477E+03  0.00000000000E+00 0.  1.
         14    1    4    4    0    0  0.31519369692E+02  0.19611289442E+02 -0.69673707798E+02  0.78946177220E+02  0.00000000000E+00 0. -1.
         -5    1    5    5    0  502  0.40417440675E+02 -0.16206777801E+02 -0.24144206614E+03  0.24538253903E+03  0.47000000000E+01 0.  1.
         11    1    6    6    0    0  0.12658736288E+02  0.15259102560E+02 -0.38194381567E+02  0.43033644961E+02  0.00000000000E+00 0. -1.
        -12    1    6    6    0    0 -0.55378626967E+02 -0.62573186323E+02 -0.85253490760E+02  0.11937484516E+03  0.00000000000E+00 0.  1.
</event>
<event>
12    1  0.8416569E-002  0.2132980E+03  0.7818608E-02  0.1140017E+00
         21   -1    0    0  503  502  0.00000000000E+00  0.00000000000E+00  0.96588418342E+03  0.96588418342E+03  0.00000000000E+00 0.  1.
         21   -1    0    0  501  503 -0.00000000000E+00 -0.00000000000E+00 -0.80818661816E+02  0.80818661816E+02  0.00000000000E+00 0. -1.
          6    2    1    2  501    0  0.65031639850E+02 -0.98212070912E+02  0.10191740458E+03  0.23639630644E+03  0.17782387716E+03 0.  0.
         24    2    3    3    0    0  0.20767683363E+02 -0.91141390367E+02 -0.25417277981E+01  0.12262859263E+03  0.79330080303E+02 0.  0.
         -6    2    1    2    0  502 -0.65031639850E+02  0.98212070912E+02  0.78314811702E+03  0.81030653879E+03  0.17146716469E+03 0.  0.
        -24    2    5    5    0    0 -0.10752342260E+03  0.63555332674E+02  0.64291675982E+03  0.65966270504E+03  0.78818510783E+02 0.  0.
          5    1    3    3  501    0  0.44263956486E+02 -0.70706805452E+01  0.10445913238E+03  0.11376771380E+03  0.47000000000E+01 0. -1.
        -11    1    4    4    0    0  0.27307876193E+02 -0.11273327179E+02  0.24157213625E+02  0.38162533694E+02  0.00000000000E+00 0.  1.
         12    1    4    4    0    0 -0.65401928295E+01 -0.79868063188E+02 -0.26698941423E+02  0.84466058939E+02  0.00000000000E+00 0. -1.
         -5    1    5    5    0  502  0.42491782750E+02  0.34656738238E+02  0.14023135720E+03  0.15064383375E+03  0.47000000000E+01 0.  1.
         13    1    6    6    0    0 -0.95920327417E+02  0.61534176457E+02  0.38587962969E+03  0.40235587816E+03  0.00000000000E+00 0. -1.
        -14    1    6    6    0    0 -0.11603095183E+02  0.20211562175E+01  0.25703713013E+03  0.25730682688E+03  0.00000000000E+00 0.  1.
</event>
<event>
12    1  0.8416569E-002  0.1939823E+03  0.7818608E-02  0.1159503E+00
         21   -1    0    0  501  502  0.00000000000E+00  0.00000000000E+00  0.25411741335E+03  0.25411741335E+03  0.00000000000E+00 0. -1.
         21   -1    0    0  502  503 -0.00000000000E+00 -0.00000000000E+00 -0.13668364437E+03  0.13668364437E+03  0.00000000000E+00 0. -1.
         -6    2    1    2    0  503 -0.18798325759E+02  0.15217711845E+02  0.31543459659E+02  0.19653016634E+03  0.19246859648E+03 0.  0.
        -24    2    3    3    0    0 -0.33761344846E+02 -0.67452456446E+02  0.27628300091E+02  0.11229438333E+03  0.78466829139E+02 0.  0.
          6    2    1    2  501    0  0.18798325759E+02 -0.15217711845E+02  0.85890309316E+02  0.19427089138E+03  0.17256615600E+03 0.  0.
         24    2    5    5    0    0  0.16361892187E+02 -0.40330420233E+02 -0.11193520320E+02  0.93852046992E+02  0.82393309894E+02 0.  0.
          5    1    5    5  501    0  0.24364335719E+01  0.25112708388E+02  0.97083829636E+02  0.10041884439E+03  0.47000000000E+01 0. -1.
        -11    1    6    6    0    0  0.48478157035E+02 -0.26437627156E+02  0.47025405617E+01  0.55418351896E+02  0.00000000000E+00 0.  1.
         12    1    6    6    0    0 -0.32116264847E+02 -0.13892793078E+02 -0.15896060882E+02  0.38433695097E+02  0.00000000000E+00 0. -1.
         -5    1    3    3    0  503  0.14963019087E+02  0.82670168291E+02  0.39151595684E+01  0.84235783014E+02  0.47000000000E+01 0.  1.
         11    1    4    4    0    0  0.56475009772E+00 -0.65063841599E+02 -0.44946557560E+01  0.65221348933E+02  0.00000000000E+00 0. -1.
        -12    1    4    4    0    0 -0.34326094944E+02 -0.23886148471E+01  0.32122955847E+02  0.47073034397E+02  0.00000000000E+00 0.  1.
</event>
<event>
12    1  0.8416569E-002  0.1783328E+03  0.7818608E-02  0.1169829E+00
         21   -1    0    0  501  502  0.00000000000E+00  0.00000000000E+00  0.18014063082E+03  0.18014063082E+03  0.00000000000E+00 0.  1.
         21   -1    0    0  502  503 -0.00000000000E+00 -0.00000000000E+00 -0.97381690139E+03  0.97381690139E+03  0.00000000000E+00 0.  1.
         -6    2    1    2    0  503  0.17765713503E+02  0.31868620758E+02 -0.91975950653E+03  0.93688854650E+03  0.17456050279E+03 0.  0.
        -24    2    3    3    0    0  0.18420648191E+02 -0.41835283897E+02 -0.68008073720E+03  0.68608843292E+03  0.78217756413E+02 0.  0.
          6    2    1    2  501    0 -0.17765713503E+02 -0.31868620758E+02  0.12608323596E+03  0.21706898571E+03  0.17288936521E+03 0.  0.
         24    2    5    5    0    0 -0.98521189272E+01 -0.85236647453E+02  0.11037080122E+03  0.16067978588E+03  0.79208140432E+02 0.  0.
          5    1    5    5  501    0 -0.79135945755E+01  0.53368026695E+02  0.15712434738E+02  0.56389199833E+02  0.47000000000E+01 0. -1.
        -11    1    6    6    0    0 -0.33991204147E+02 -0.11341512161E+02  0.53368601070E+02  0.64282497133E+02  0.00000000000E+00 0.  1.
         12    1    6    6    0    0  0.24139085219E+02 -0.73895135293E+02  0.57002200152E+02  0.96397288745E+02  0.00000000000E+00 0. -1.
         -5    1    3    3    0  503 -0.65493468829E+00  0.73703904656E+02 -0.23967876934E+03  0.25080011358E+03  0.47000000000E+01 0.  1.
         13    1    4    4    0    0 -0.17338882525E+02  0.59945988267E+01 -0.36108320060E+03  0.36154895909E+03  0.00000000000E+00 0. -1.
        -14    1    4    4    0    0  0.35759530716E+02 -0.47829882724E+02 -0.31899753660E+03  0.32453947383E+03  0.00000000000E+00 0.  1.
</event>
<event>
12    1  0.8416569E-002  0.1768568E+03  0.7818608E-02  0.1171304E+00
         21   -1    0    0  501  502  0.00000000000E+00  0.00000000000E+00  0.36369266400E+02  0.36369266400E+02  0.00000000000E+00 0.  1.
         21   -1    0    0  502  503 -0.00000000000E+00 -0.00000000000E+00 -0.10801907745E+04  0.10801907745E+04  0.00000000000E+00 0.  1.
         -6    2    1    2    0  503  0.32554493072E+02 -0.24394803910E+02 -0.77664643556E+03  0.79615270950E+03  0.17036592825E+03 0.  0.
        -24    2    3    3    0    0  0.72268098179E+01  0.35463086179E+02 -0.23373446993E+03  0.24934382976E+03  0.78934692910E+02 0.  0.
          6    2    1    2  501    0 -0.32554493072E+02  0.24394803910E+02 -0.26717507253E+03  0.32040733139E+03  0.17211460469E+03 0.  0.
         24    2    5    5    0    0  0.40946493020E+02  0.42950659054E+02 -0.17096701098E+03  0.19783165752E+03  0.79914150616E+02 0.  0.
          5    1    5    5  501    0 -0.73500986093E+02 -0.18555855144E+02 -0.96208061551E+02  0.12257567387E+03  0.47000000000E+01 0. -1.
        -13    1    6    6    0    0 -0.14451115640E+01  0.33820751651E+02 -0.17011368679E+02  0.37885594281E+02  0.00000000000E+00 0.  1.
         14    1    6    6    0    0  0.42391604584E+02  0.91299074027E+01 -0.15395564230E+03  0.15994606324E+03  0.00000000000E+00 0. -1.
         -5    1    3    3    0  503  0.25327683254E+02 -0.59857890089E+02 -0.54291196563E+03  0.54680887974E+03  0.47000000000E+01 0.  1.
         11    1    4    4    0    0  0.39461573124E+02  0.29468292214E+02 -0.17792771054E+03  0.18461816319E+03  0.00000000000E+00 0. -1.
        -12    1    4    4    0    0 -0.32234763307E+02  0.59947939654E+01 -0.55806759385E+02  0.64725666572E+02  0.00000000000E+00 0.  1.
</event>
<event>
12    1  0.8416569E-002  0.1871444E+03  0.7818608E-02  0.1161841E+00
         21   -1    0    0  503  502  0.00000000000E+00  0.00000000000E+00  0.55919562317E+02  0.55919562317E+02  0.00000000000E+00 0. -1.
         21   -1    0    0  501  503 -0.00000000000E+00 -0.00000000000E+00 -0.74543744447E+03  0.74543744447E+03  0.00000000000E+00 0.  1.
          6    2    1    2  501    0 -0.72313807996E+02  0.10424054533E+02 -0.50969636514E+03  0.54182127357E+03  0.16864744325E+03 0.  0.
         24    2    3    3    0    0  0.25412577823E+02 -0.75344967559E+01 -0.24879885340E+03  0.26260351324E+03  0.79731850356E+02 0.  0.
         -6    2    1    2    0  502  0.72313807996E+02 -0.10424054533E+02 -0.17982151701E+03  0.25953573321E+03  0.17229356081E+03 0.  0.
        -24    2    5    5    0    0  0.10684373582E+03 -0.38287153037E+02 -0.15667527885E+03  0.20927136696E+03  0.79786415238E+02 0.  0.
          5    1    3    3  501    0 -0.97726385819E+02  0.17958551289E+02 -0.26089751174E+03  0.27921776033E+03  0.47000000000E+01 0. -1.
        -13    1    4    4    0    0 -0.47965767562E+01 -0.19566736280E+02 -0.21411433497E+03  0.21506002129E+03  0.00000000000E+00 0.  1.
         14    1    4    4    0    0  0.30209154580E+02  0.12032239524E+02 -0.34684518430E+02  0.47543491953E+02  0.00000000000E+00 0. -1.
         -5    1    5    5    0  502 -0.34529927822E+02  0.27863098504E+02 -0.23146238159E+02  0.50264366251E+02  0.47000000000E+01 0.  1.
         13    1    6    6    0    0 -0.12629292453E+02 -0.61806983249E+01 -0.93142587510E+01  0.16865807888E+02  0.00000000000E+00 0. -1.
        -14    1    6    6    0    0  0.11947302827E+03 -0.32106454712E+02 -0.14736102010E+03  0.19240555907E+03  0.00000000000E+00 0.  1.
</event>
<event>
12    1  0.8416569E-002  0.2777141E+03  0.7818608E-02  0.1097064E+00
         21   -1    0    0  501  502  0.00000000000E+00  0.00000000000E+00  0.29474077677E+03  0.29474077677E+03  0.00000000000E+00 0. -1.
         21   -1    0    0  502  503 -0.00000000000E+00 -0.00000000000E+00 -0.45485029569E+03  0.45485029569E+03  0.00000000000E+00 0. -1.
         -6    2    1    2    0  503 -0.18398337259E+02 -0.21568784803E+03 -0.32475084313E+03  0.42674139702E+03  0.17258436551E+03 0.  0.
        -24    2    3    3    0    0  0.65116395986E+01 -0.19150349886E+03 -0.33082029508E+03  0.39118414827E+03  0.82867235350E+02 0.  0.
          6    2    1    2  501    0  0.18398337259E+02  0.21568784803E+03  0.16464132421E+03  0.32284967545E+03  0.17396953957E+03 0.  0.
         24    2    5    5    0    0  0.38081557290E+02  0.67250767160E+02  0.12609531574E+03  0.16816004782E+03  0.80030633776E+02 0.  0.
          5    1    5    5  501    0 -0.19683220031E+02  0.14843708087E+03  0.38546008472E+02  0.15468962763E+03  0.47000000000E+01 0. -1.
        -13    1    6    6    0    0 -0.12938876531E+02  0.60825847574E+01 -0.46737847802E+01  0.15041829257E+02  0.00000000000E+00 0.  1.
         14    1    6    6    0    0  0.51020433821E+02  0.61168182403E+02  0.13076910052E+03  0.15311821856E+03  0.00000000000E+00 0. -1.
         -5    1    3    3    0  503 -0.24909976858E+02 -0.24184349169E+02  0.60694519514E+01  0.35557248751E+02  0.47000000000E+01 0.  1.
         11    1    4    4    0    0  0.23392847027E+02 -0.60301435142E+02 -0.53535964884E+02  0.83961824112E+02  0.00000000000E+00 0. -1.
        -12    1    4    4    0    0 -0.16881207429E+02 -0.13120206372E+03 -0.27728433019E+03  0.30722232415E+03  0.00000000000E+00 0.  1.
</event>
<event>
12    1  0.8416569E-002  0.2647348E+03  0.7818608E-02  0.1104525E+00
         21   -1    0    0  503  502  0.00000000000E+00  0.00000000000E+00  0.26537393750E+03  0.26537393750E+03  0.00000000000E+00 0. -1.
         21   -1    0    0  501  503 -0.00000000000E+00 -0.00000000000E+00 -0.27730116473E+03  0.27730116473E+03  0.00000000000E+00 0. -1.
          6    2    1    2  501    0 -0.17081404671E+03  0.10415945791E+03  0.56127614175E+02  0.26933291041E+03  0.17135716013E+03 0.  0.
         24    2    3    3    0    0 -0.18270465394E+03  0.10383946559E+03  0.80661737402E+02  0.24166520111E+03  0.87932521623E+02 0.  0.
         -6    2    1    2    0  502  0.17081404671E+03 -0.10415945791E+03 -0.68054841410E+02  0.27334219182E+03  0.17337203109E+03 0.  0.
        -24    2    5    5    0    0  0.79019186839E+02 -0.12668646577E+03 -0.51075588283E+02  0.17719570245E+03  0.80598441353E+02 0.  0.
          5    1    3    3  501    0  0.11890607229E+02  0.31999231667E+00 -0.24534123227E+02  0.27667709299E+02  0.47000000000E+01 0. -1.
        -11    1    4    4    0    0 -0.31729265493E+02  0.53731308297E+02 -0.19266530743E+01  0.62430055038E+02  0.00000000000E+00 0.  1.
         12    1    4    4    0    0 -0.15097538845E+03  0.50108157296E+02  0.82588390477E+02  0.17923514607E+03  0.00000000000E+00 0. -1.
         -5    1    5    5    0  502  0.91794859876E+02  0.22527007861E+02 -0.16979253127E+02  0.96146489377E+02  0.47000000000E+01 0.  1.
         11    1    6    6    0    0  0.61218808979E+02 -0.26623978709E+02 -0.30974809672E+02  0.73593597883E+02  0.00000000000E+00 0. -1.
        -12    1    6    6    0    0  0.17800377860E+02 -0.10006248706E+03 -0.20100778611E+02  0.10360210456E+03  0.00000000000E+00 0.  1.
</event>
<event>
12    1  0.8416569E-002  0.2454671E+03  0.7818608E-02  0.1116205E+00
         21   -1    0    0  501  502  0.00000000000E+00  0.00000000000E+00  0.15684946400E+04  0.15684946400E+04  0.00000000000E+00 0. -1.
         21   -1    0    0  502  503 -0.00000000000E+00 -0.00000000000E+00 -0.93774499014E+02  0.93774499014E+02  0.00000000000E+00 0. -1.
         -6    2    1    2    0  503 -0.10569759672E+03  0.13925334681E+03  0.98753044460E+02  0.26457834158E+03  0.17229642623E+03 0.  0.
        -24    2    3    3    0    0 -0.85256872925E+02  0.55038666466E+02 -0.80650833909E+01  0.12694790159E+03  0.75846786089E+02 0.  0.
          6    2    1    2  501    0  0.10569759672E+03 -0.13925334681E+03  0.13759670965E+04  0.13976907974E+04  0.17230971524E+03 0.  0.
         24    2    5    5    0    0  0.43775179392E+02 -0.11398233897E+03  0.54673788062E+03  0.56575558835E+03  0.79049577586E+02 0.  0.
          5    1    5    5  501    0  0.61922417326E+02 -0.25271007840E+02  0.82922921590E+03  0.83193520908E+03  0.47000000000E+01 0. -1.
        -13    1    6    6    0    0  0.26505225729E+01  0.12319939656E+02  0.44555950692E+02  0.46303767937E+02  0.00000000000E+00 0.  1.
         14    1    6    6    0    0  0.41124656819E+02 -0.12630227863E+03  0.50218192993E+03  0.51945182041E+03  0.00000000000E+00 0. -1.
         -5    1    3    3    0  503 -0.20440723793E+02  0.84214680343E+02  0.10681812785E+03  0.13763043999E+03  0.47000000000E+01 0.  1.
         13    1    4    4    0    0 -0.64117650932E+02 -0.10579812581E+01  0.86663030531E+01  0.64709329265E+02  0.00000000000E+00 0. -1.
        -14    1    4    4    0    0 -0.21139221993E+02  0.56096647724E+02 -0.16731386444E+02  0.62238572322E+02  0.00000000000E+00 0.  1.
</event>
<event>
12    1  0.8416569E-002  0.1842428E+03  0.7818608E-02  0.1165824E+00
         21   -1    0    0  503  502  0.00000000000E+00  0.00000000000E+00  0.63662516873E+03  0.63662516873E+03  0.00000000000E+00 0.  1.
         21   -1    0    0  501  503 -0.00000000000E+00 -0.00000000000E+00 -0.10717709304E+03  0.10717709304E+03  0.00000000000E+00 0.  1.
          6    2    1    2  501    0  0.63299213549E+01 -0.36574126529E+02 -0.18131784326E+01  0.18425176820E+03  0.18046520948E+03 0.  0.
         24    2    3    3    0    0  0.17991569381E+01  0.36202633760E+02 -0.45861852944E+02  0.98932600419E+02  0.79815300621E+02 0.  0.
         -6    2    1    2    0  502 -0.63299213549E+01  0.36574126529E+02  0.53126125412E+03  0.55955049357E+03  0.17169886456E+03 0.  0.
        -24    2    5    5    0    0 -0.59280656712E+02 -0.74659803307E+01  0.41060569858E+03  0.42054270793E+03  0.68477677834E+02 0.  0.
          5    1    3    3  501    0  0.45307644169E+01 -0.72776760289E+02  0.44048674511E+02  0.85319167780E+02  0.47000000000E+01 0. -1.
        -11    1    4    4    0    0  0.32953376249E+02 -0.13054901430E+01 -0.36663144367E+02  0.49313441023E+02  0.00000000000E+00 0.  1.
         12    1    4    4    0    0 -0.31154219311E+02  0.37508123903E+02 -0.91987085773E+01  0.49619159395E+02  0.00000000000E+00 0. -1.
         -5    1    5    5    0  502  0.52950735357E+02  0.44040106859E+02  0.12065555554E+03  0.13900778565E+03  0.47000000000E+01 0.  1.
         13    1    6    6    0    0  0.31249021923E+01 -0.23590232639E+02  0.71208438581E+02  0.75079330144E+02  0.00000000000E+00 0. -1.
        -14    1    6    6    0    0 -0.62405558904E+02  0.16124252308E+02  0.33939726000E+03  0.34546337778E+03  0.00000000000E+00 0.  1.
</event>
<event>
12    1  0.8416569E-002  0.2434478E+03  0.7818608E-02  0.1118948E+00
         21   -1    0    0  501  502  0.00000000000E+00  0.00000000000E+00  0.17598422998E+04  0.17598422998E+04  0.00000000000E+00 0.  1.
         21   -1    0    0  502  503 -0.00000000000E+00 -0.00000000000E+00 -0.10196032666E+03  0.10196032666E+03  0.00000000000E+00 0.  1.
         -6    2    1    2    0  503 -0.14203501269E+03  0.73409959187E+02  0.65379180267E+02  0.25207388682E+03  0.18358605684E+03 0.  0.
        -24    2    3    3    0    0 -0.51834843407E+02  0.10901148203E+03  0.24075833490E+02  0.14656751060E+03  0.79574086245E+02 0.  0.
          6    2    1    2  501    0  0.14203501269E+03 -0.73409959187E+02  0.15925027929E+04  0.16097287397E+04  0.17204215462E+03 0.  0.
         24    2    5    5    0    0  0.13649401713E+03 -0.90663864949E+02  0.15687602031E+04  0.15794929915E+04  0.83300553825E+02 0.  0.
          5    1    5    5  501    0  0.55409955622E+01  0.17253905762E+02  0.23742589772E+02  0.30235748129E+02  0.47000000000E+01 0. -1.
        -11    1    6    6    0    0  0.82322663054E+02 -0.82495098725E+02  0.76048244904E+03  0.76936078498E+03  0.00000000000E+00 0.  1.
         12    1    6    6    0    0  0.54171354074E+02 -0.81687662249E+01  0.80827775409E+03  0.81013220656E+03  0.00000000000E+00 0. -1.
         -5    1    3    3    0  503 -0.90200169283E+02 -0.35601522840E+02  0.41303346778E+02  0.10550637622E+03  0.47000000000E+01 0.  1.
         13    1    4    4    0    0 -0.15706534308E+01  0.17145160898E+01  0.27921640447E+02  0.28018289078E+02  0.00000000000E+00 0. -1.
        -14    1    4    4    0    0 -0.50264189976E+02  0.10729696594E+03 -0.38458069569E+01  0.11854922153E+03  0.00000000000E+00 0.  1.
</event>
<event>
12    1  0.8416569E-002  0.1795715E+03  0.7818608E-02  0.1169241E+00
         21   -1    0    0  503  502  0.00000000000E+00  0.00000000000E+00  0.36560470997E+03  0.36560470997E+03  0.00000000000E+00 0. -1.
         21   -1    0    0  501  503 -0.00000000000E+00 -0.00000000000E+00 -0.11738526739E+03  0.11738526739E+03  0.00000000000E+00 0.  1.
          6    2    1    2  501    0 -0.18950669233E+02  0.28105106893E+02  0.64522990917E+00  0.17957267651E+03  0.17634314540E+03 0.  0.
         24    2    3    3    0    0 -0.80934904193E+02  0.18552401853E+02  0.10112062343E+02  0.11597227971E+03  0.80328485139E+02 0.  0.
         -6    2    1    2    0  502  0.18950669233E+02 -0.28105106893E+02  0.24757421267E+03  0.30341730085E+03  0.17210474362E+03 0.  0.
        -24    2    5    5    0    0 -0.25555890217E+02  0.38546234701E+02  0.15182361779E+03  0.17846330296E+03  0.81607743796E+02 0.  0.
          5    1    3    3  501    0  0.61984234960E+02  0.95527050410E+01 -0.94668324343E+01  0.63600396804E+02  0.47000000000E+01 0. -1.
        -13    1    4    4    0    0  0.15508451695E+02  0.29003119430E+01 -0.61298652387E+01  0.16926285216E+02  0.00000000000E+00 0.  1.
         14    1    4    4    0    0 -0.96443355889E+02  0.15652089910E+02  0.16241927582E+02  0.99045994493E+02  0.00000000000E+00 0. -1.
         -5    1    5    5    0  502  0.44506559450E+02 -0.66651341594E+02  0.95750594879E+02  0.12495399790E+03  0.47000000000E+01 0.  1.
         13    1    6    6    0    0  0.28280665363E+00  0.19165306729E+02  0.14394664970E+03  0.14521717158E+03  0.00000000000E+00 0. -1.
        -14    1    6    6    0    0 -0.25838696870E+02  0.19380927972E+02  0.78769680908E+01  0.33246131374E+02  0.00000000000E+00 0.  1.
</event>
<event>
12    1  0.8416569E-002  0.1728944E+03  0.7818608E-02  0.1174990E+00
         21   -1    0    0  501  502  0.00000000000E+00  0.00000000000E+00  0.39355443313E+03  0.39355443313E+03  0.00000000000E+00 0. -1.
         21   -1    0    0  502  503 -0.00000000000E+00 -0.00000000000E+00 -0.79963496319E+02  0.79963496319E+02  0.00000000000E+00 0. -1.
         -6    2    1    2    0  503  0.30540331772E+01  0.14713341042E+02  0.10257664584E+03  0.20103347089E+03  0.17224017714E+03 0.  0.
        -24    2    3    3    0    0  0.50473817463E+02  0.23263382328E+02  0.12824404409E+02  0.99056542169E+02  0.80987295246E+02 0.  0.
          6    2    1    2  501    0 -0.30540331772E+01 -0.14713341042E+02  0.21101429097E+03  0.27248445857E+03  0.17174090847E+03 0.  0.
         24    2    5    5    0    0  0.44048502550E+02 -0.55533263721E+02  0.15366878842E+03  0.18765809696E+03  0.81100251954E+02 0.  0.
          5    1    5    5  501    0 -0.47102535727E+02  0.40819922679E+02  0.57345502554E+02  0.84826361602E+02  0.47000000000E+01 0. -1.
        -13    1    6    6    0    0  0.60531423324E+02 -0.15552977888E+02  0.72751727013E+02  0.95910177323E+02  0.00000000000E+00 0.  1.
         14    1    6    6    0    0 -0.16482920774E+02 -0.39980285833E+02  0.80917061402E+02  0.91747919641E+02  0.00000000000E+00 0. -1.
         -5    1    3    3    0  503 -0.47419784286E+02 -0.85500412864E+01  0.89752241435E+02  0.10197692872E+03  0.47000000000E+01 0.  1.
         13    1    4    4    0    0 -0.95997989685E+01 -0.11752621725E+01 -0.23010568990E+02  0.24960442037E+02  0.00000000000E+00 0. -1.
        -14    1    4    4    0    0  0.60073616432E+02  0.24438644500E+02  0.35834973399E+02  0.74096100132E+02  0.00000000000E+00 0.  1.
</event>
<event>
12    1  0.8416569E-002  0.1824817E+03  0.7818608E-02  0.1165601E+00
         21   -1    0    0  501  502  0.00000000000E+00  0.00000000000E+00  0.69551977135E+03  0.69551977135E+03  0.00000000000E+00 0.  1.
         21   -1    0    0  502  503 -0.00000000000E+00 -0.00000000000E+00 -0.10733264663E+03  0.10733264663E+03  0.00000000000E+00 0. -1.
         -6    2    1    2    0  503  0.52259983034E+02  0.25851501397E+02 -0.48990256302E+01  0.18254746622E+03  0.17291665918E+03 0.  0.
        -24    2    3    3    0    0 -0.30437975882E+01 -0.38048004214E+02 -0.31660775174E+02  0.93778461456E+02  0.79593214660E+02 0.  0.
          6    2    1    2  501    0 -0.52259983034E+02 -0.25851501397E+02  0.59308615035E+03  0.62030495176E+03  0.17212682968E+03 0.  0.
         24    2    5    5    0    0 -0.42195953028E+02 -0.51958662880E+02  0.19428702264E+03  0.22049786973E+03  0.79947872328E+02 0.  0.
          5    1    5    5  501    0 -0.10064030006E+02  0.26107161483E+02  0.39879912771E+03  0.39980708203E+03  0.47000000000E+01 0. -1.
        -13    1    6    6    0    0  0.17516002241E+02 -0.14131940257E+02  0.10088053333E+03  0.10336055376E+03  0.00000000000E+00 0.  1.
         14    1    6    6    0    0 -0.59711955269E+02 -0.37826722624E+02  0.93406489309E+02  0.11713731597E+03  0.00000000000E+00 0. -1.
         -5    1    3    3    0  503  0.55303780622E+02  0.63899505611E+02  0.26761749544E+02  0.88769004766E+02  0.47000000000E+01 0.  1.
         11    1    4    4    0    0 -0.16070713203E+02  0.15636561262E+02  0.10036019582E+02  0.24566065212E+02  0.00000000000E+00 0. -1.
        -12    1    4    4    0    0  0.13026915615E+02 -0.53684565477E+02 -0.41696794756E+02  0.69212396244E+02  0.00000000000E+00 0.  1.
</event>
<event>
12    1  0.8416569E-002  0.2043031E+03  0.7818608E-02  0.1146884E+00
         21   -1    0    0  503  502  0.00000000000E+00  0.00000000000E+00  0.17984440853E+03  0.17984440853E+03  0.00000000000E+00 0.  1.
         21   -1    0    0  501  503 -0.00000000000E+00 -0.00000000000E+00 -0.50713632551E+03  0.50713632551E+03  0.00000000000E+00 0.  1.
          6    2    1    2  501    0  0.88955118683E+02  0.61362683853E+02 -0.41905706680E+03  0.46620660158E+03  0.17338217329E+03 0.  0.
         24    2    3    3    0    0  0.89284230318E+02  0.99366669699E+02 -0.38401360889E+03  0.41429759276E+03  0.79565285929E+02 0.  0.
         -6    2    1    2    0  502 -0.88955118683E+02 -0.61362683853E+02  0.91765149809E+02  0.22077413246E+03  0.16923942429E+03 0.  0.
        -24    2    5    5    0    0  0.20146175594E+01  0.31017933045E+01  0.71409822793E+02  0.10733872764E+03  0.80053481217E+02 0.  0.
          5    1    3    3  501    0 -0.32911163453E+00 -0.38003985846E+02 -0.35043457909E+02  0.51909008822E+02  0.47000000000E+01 0. -1.
        -11    1    4    4    0    0  0.83150675024E+02  0.38828064485E+02 -0.19067150779E+03  0.21160642058E+03  0.00000000000E+00 0.  1.
         12    1    4    4    0    0  0.61335552935E+01  0.60538605214E+02 -0.19334210110E+03  0.20269117218E+03  0.00000000000E+00 0. -1.
         -5    1    5    5    0  502 -0.90969736243E+02 -0.64464477158E+02  0.20355327016E+02  0.11343540481E+03  0.47000000000E+01 0.  1.
         11    1    6    6    0    0 -0.84601633767E+01 -0.78684450188E+01 -0.15378460159E+02  0.19234963692E+02  0.00000000000E+00 0. -1.
        -12    1    6    6    0    0  0.10474780936E+02  0.10970238323E+02  0.86788282952E+02  0.88103763951E+02  0.00000000000E+00 0.  1.
</event>
<event>
12    1  0.8416569E-002  0.2105852E+03  0.7818608E-02  0.1141202E+00
         21   -1    0    0  501  502  0.00000000000E+00  0.00000000000E+00  0.70036050649E+03  0.70036050649E+03  0.00000000000E+00 0.  1.
         21   -1    0    0  502  503 -0.00000000000E+00 -0.00000000000E+00 -0.92213824693E+02  0.92213824693E+02  0.00000000000E+00 0.  1.
         -6    2    1    2    0  503 -0.41894741416E+02 -0.11082471907E+03  0.81419168506E+02  0.22531071066E+03  0.17348933000E+03 0.  0.
        -24    2    3    3    0    0  0.24516050162E+02 -0.67089012552E+02  0.96087620124E+02  0.14431405187E+03  0.80571350401E+02 0.  0.
          6    2    1    2  501    0  0.41894741416E+02  0.11082471907E+03  0.52672751329E+03  0.56726362052E+03  0.17409438299E+03 0.  0.
         24    2    5    5    0    0 -0.86004372541E+01 -0.30135466352E+01  0.26429366863E+03  0.27674249111E+03  0.81561106690E+02 0.  0.
          5    1    5    5  501    0  0.50495178670E+02  0.11383826571E+03  0.26243384466E+03  0.29052112940E+03  0.47000000000E+01 0. -1.
        -13    1    6    6    0    0  0.20669292014E+02  0.25646020741E+02  0.18039210432E+03  0.18337461469E+03  0.00000000000E+00 0.  1.
         14    1    6    6    0    0 -0.29269729268E+02 -0.28659567376E+02  0.83901564315E+02  0.93367876425E+02  0.00000000000E+00 0. -1.
         -5    1    3    3    0  503 -0.66410791577E+02 -0.43735706520E+02 -0.14668451618E+02  0.80996658793E+02  0.47000000000E+01 0.  1.
         13    1    4    4    0    0  0.14023941418E+02 -0.68134377362E+02  0.10796327097E+03  0.12843298716E+03  0.00000000000E+00 0. -1.
        -14    1    4    4    0    0  0.10492108743E+02  0.10453648100E+01 -0.11875650845E+02  0.15881064714E+02  0.00000000000E+00 0.  1.
</event>
<event>
12    1  0.8416569E-002  0.1839857E+03  0.7818608E-02  0.1164144E+00
         21   -1    0    0  503  502  0.00000000000E+00  0.00000000000E+00  0.18266671827E+04  0.18266671827E+04  0.00000000000E+00 0. -1.
         21   -1    0    0  501  503 -0.00000000000E+00 -0.00000000000E+00 -0.26857914664E+02  0.26857914664E+02  0.00000000000E+00 0. -1.
          6    2    1    2  501    0  0.60952553511E+02  0.28570854221E+02  0.38301593209E+03  0.42491404126E+03  0.17122859204E+03 0.  0.
         24    2    3    3    0    0  0.84671459541E+01  0.19756824105E+02  0.71198007980E+02  0.10855204460E+03  0.79071900107E+02 0.  0.
         -6    2    1    2    0  502 -0.60952553511E+02 -0.28570854221E+02  0.14167933359E+04  0.14286110561E+04  0.17057164290E+03 0.  0.
        -24    2    5    5    0    0 -0.95740315112E+02 -0.60320246714E+02  0.10554535998E+04  0.10641845104E+04  0.75509143776E+02 0.  0.
          5    1    3    3  501    0  0.52485407557E+02  0.88140301155E+01  0.31181792411E+03  0.31636199666E+03  0.47000000000E+01 0. -1.
        -11    1    4    4    0    0  0.12458976365E+02 -0.13036669226E+02  0.73265297085E+02  0.75451869384E+02  0.00000000000E+00 0.  1.
         12    1    4    4    0    0 -0.39918304109E+01  0.32793493331E+02 -0.20672891056E+01  0.33100175213E+02  0.00000000000E+00 0. -1.
         -5    1    5    5    0  502  0.34787761600E+02  0.31749392493E+02  0.36133973611E+03  0.36442654565E+03  0.47000000000E+01 0.  1.
         13    1    6    6    0    0 -0.35597795028E+01 -0.41048759959E+02  0.37152492096E+03  0.37380267471E+03  0.00000000000E+00 0. -1.
        -14    1    6    6    0    0 -0.92180535609E+02 -0.19271486755E+02  0.68392867883E+03  0.69038183571E+03  0.00000000000E+00 0.  1.
</event>
<event>
12    1  0.8416569E-002  0.5330133E+03  0.7818608E-02  0.1005521E+00
         21   -1    0    0  503  502  0.00000000000E+00  0.00000000000E+00  0.22960715095E+04  0.22960715095E+04  0.00000000000E+00 0. -1.
         21   -1    0    0  501  503 -0.00000000000E+00 -0.00000000000E+00 -0.21462542269E+03  0.21462542269E+03  0.00000000000E+00 0.  1.
          6    2    1    2  501    0  0.43897241337E+03 -0.24743465497E+03  0.22333274024E+03  0.57764536658E+03  0.17284666180E+03 0.  0.
         24    2    3    3    0    0  0.23374638279E+03 -0.20862745803E+03  0.14380430195E+03  0.35410435322E+03  0.80916178820E+02 0.  0.
         -6    2    1    2    0  502 -0.43897241337E+03  0.24743465497E+03  0.18581133466E+04  0.19330515656E+04  0.17373099433E+03 0.  0.
        -24    2    5    5    0    0 -0.16342399860E+03  0.35156535228E+02  0.65037037264E+03  0.67620865176E+03  0.79580989030E+02 0.  0.
          5    1    3    3  501    0  0.20522603057E+03 -0.38807196936E+02  0.79528438284E+02  0.22354101336E+03  0.47000000000E+01 0. -1.
        -13    1    4    4    0    0  0.47294233147E+02 -0.86747532331E+02  0.62841038091E+02  0.11709344526E+03  0.00000000000E+00 0.  1.
         14    1    4    4    0    0  0.18645214965E+03 -0.12187992570E+03  0.80963263863E+02  0.23701090796E+03  0.00000000000E+00 0. -1.
         -5    1    5    5    0  502 -0.27554841477E+03  0.21227811974E+03  0.12077429739E+04  0.12568429138E+04  0.47000000000E+01 0.  1.
         11    1    6    6    0    0 -0.14590361395E+03  0.49297074666E+02  0.61716300123E+03  0.63608822990E+03  0.00000000000E+00 0. -1.
        -12    1    6    6    0    0 -0.17520384644E+02 -0.14140539438E+02  0.33207371415E+02  0.40120421857E+02  0.00000000000E+00 0.  1.
</event>
<event>
12    1  0.8416569E-002  0.2383384E+03  0.7818608E-02  0.1120959E+00
         21   -1    0    0  501  502  0.00000000000E+00  0.00000000000E+00  0.23714569105E+03  0.23714569105E+03  0.00000000000E+00 0.  1.
         21   -1    0    0  502  503 -0.00000000000E+00 -0.00000000000E+00 -0.32830841788E+03  0.32830841788E+03  0.00000000000E+00 0. -1.
         -6    2    1    2    0  503 -0.13656504172E+03 -0.90492939014E+02 -0.19289000776E+03  0.30661332659E+03  0.17310746466E+03 0.  0.
        -24    2    3    3    0    0 -0.43895661312E+02  0.13221048209E+02 -0.44543266960E+02  0.10320966213E+03  0.81033983785E+02 0.  0.
          6    2    1    2  501    0  0.13656504172E+03  0.90492939014E+02  0.10172728092E+03  0.25884078233E+03  0.17265899422E+03 0.  0.
         24    2    5    5    0    0  0.11490915454E+03  0.96534365653E+02  0.13662434158E+03  0.21706314324E+03  0.76988310103E+02 0.  0.
          5    1    5    5  501    0  0.21655887182E+02 -0.60414266394E+01 -0.34897060658E+02  0.41777639091E+02  0.47000000000E+01 0. -1.
        -11    1    6    6    0    0  0.22638236361E+02  0.68212285136E+02  0.64544777345E+02  0.96599347159E+02  0.00000000000E+00 0.  1.
         12    1    6    6    0    0  0.92270918177E+02  0.28322080517E+02  0.72079564238E+02  0.12046379608E+03  0.00000000000E+00 0. -1.
         -5    1    3    3    0  503 -0.92669380407E+02 -0.10371398722E+03 -0.14834674080E+03  0.20340366446E+03  0.47000000000E+01 0.  1.
         11    1    4    4    0    0 -0.52853981080E+02  0.29972545290E+02 -0.54623443195E+02  0.81704451125E+02  0.00000000000E+00 0. -1.
        -12    1    4    4    0    0  0.89583197679E+01 -0.16751497082E+02  0.10080176234E+02  0.21505211007E+02  0.00000000000E+00 0.  1.
</event>
<event>
12    1  0.8416569E-002  0.1762063E+03  0.7818608E-02  0.1171581E+00
         21   -1    0    0  501  502  0.00000000000E+00  0.00000000000E+00  0.59509966702E+02  0.59509966702E+02  0.00000000000E+00 0. -1.
         21   -1    0    0  502  503 -0.00000000000E+00 -0.00000000000E+00 -0.52183944195E+03  0.52183944195E+03  0.00000000000E+00 0. -1.
         -6    2    1    2    0  503 -0.19234955002E+02  0.28960949291E+02 -0.24205227112E+03  0.29926661428E+03  0.17251806976E+03 0.  0.
        -24    2    3    3    0    0  0.33347790738E+02  0.17723634551E+02 -0.54200076442E+02  0.10381391045E+03  0.80084189121E+02 0.  0.
          6    2    1    2  501    0  0.19234955002E+02 -0.28960949291E+02 -0.22027720413E+03  0.28208279437E+03  0.17274239822E+03 0.  0.
         24    2    5    5    0    0 -0.28853256752E+02 -0.12365959748E+02 -0.22783753614E+02  0.78088620962E+02  0.67773932373E+02 0.  0.
          5    1    5    5  501    0  0.48088211755E+02 -0.16594989543E+02 -0.19749345052E+03  0.20399417341E+03  0.47000000000E+01 0. -1.
        -13    1    6    6    0    0 -0.10781523262E+02  0.14531664603E+02  0.18318743057E+02  0.25748531359E+02  0.00000000000E+00 0.  1.
         14    1    6    6    0    0 -0.18071733491E+02 -0.26897624351E+02 -0.41102496671E+02  0.52340089603E+02  0.00000000000E+00 0. -1.
         -5    1    3    3    0  503 -0.52582745740E+02  0.11237314740E+02 -0.18785219468E+03  0.19545270384E+03  0.47000000000E+01 0.  1.
         13    1    4    4    0    0  0.19146711955E+02  0.34870729384E+02  0.54418054803E+01  0.40151931378E+02  0.00000000000E+00 0. -1.
        -14    1    4    4    0    0  0.14201078783E+02 -0.17147094833E+02 -0.59641881923E+02  0.63661979070E+02  0.00000000000E+00 0.  1.
</event>
<event>
12    1  0.8416569E-002  0.1827901E+03  0.7818608E-02  0.1166701E+00
         21   -1    0    0  501  502  0.00000000000E+00  0.00000000000E+00  0.34300626039E+03  0.34300626039E+03  0.00000000000E+00 0. -1.
         21   -1    0    0  502  503 -0.00000000000E+00 -0.00000000000E+00 -0.12070409602E+03  0.12070409602E+03  0.00000000000E+00 0. -1.
         -6    2    1    2    0  503 -0.35036248267E+02  0.26454695709E+02  0.49712720242E+00  0.17629133115E+03  0.17073662960E+03 0.  0.
        -24    2    3    3    0    0 -0.23033180886E+02 -0.12156635017E+02 -0.59912949501E+02  0.10344645587E+03  0.80207833272E+02 0.  0.
          6    2    1    2  501    0  0.35036248267E+02 -0.26454695709E+02  0.22180503717E+03  0.28741902526E+03  0.17743965721E+03 0.  0.
         24    2    5    5    0    0 -0.21338149009E+01 -0.71162871581E+02  0.78671429333E+02  0.13285591751E+03  0.79954947107E+02 0.  0.
          5    1    5    5  501    0  0.37170063168E+02  0.44708175872E+02  0.14313360783E+03  0.15456310775E+03  0.47000000000E+01 0. -1.
        -13    1    6    6    0    0  0.99368840371E+01 -0.71310002346E+02  0.90707683329E+02  0.11580907527E+03  0.00000000000E+00 0.  1.
         14    1    6    6    0    0 -0.12070698938E+02  0.14713076526E+00 -0.12036253996E+02  0.17046842246E+02  0.00000000000E+00 0. -1.
         -5    1    3    3    0  503 -0.12003067381E+02  0.38611330727E+02  0.60410076703E+02  0.72844875278E+02  0.47000000000E+01 0.  1.
         13    1    4    4    0    0 -0.31126870161E+02 -0.55522610540E+01  0.96855117480E+01  0.33068395587E+02  0.00000000000E+00 0. -1.
        -14    1    4    4    0    0  0.80936892752E+01 -0.66043739633E+01 -0.69598461249E+02  0.70378060287E+02  0.00000000000E+00 0.  1.
</event>
<event>
12    1  0.8416569E-002  0.2883708E+03  0.7818608E-02  0.1091777E+00
         21   -1    0    0  501  502  0.00000000000E+00  0.00000000000E+00  0.31318679474E+04  0.31318679474E+04  0.00000000000E+00 0.  1.
         21   -1    0    0  502  503 -0.00000000000E+00 -0.00000000000E+00 -0.86306646932E+02  0.86306646932E+02  0.00000000000E+00 0. -1.
         -6    2    1    2    0  503  0.15811625973E+02  0.22574305693E+03  0.17597214387E+03  0.33413235500E+03  0.17166333321E+03 0.  0.
        -24    2    3    3    0    0 -0.34069527163E+00  0.36451265315E+02  0.19981280198E+02  0.88271582599E+02  0.77870468856E+02 0.  0.
          6    2    1    2  501    0 -0.15811625973E+02 -0.22574305693E+03  0.28695891566E+04  0.28840422393E+04  0.17873940626E+03 0.  0.
         24    2    5    5    0    0 -0.21416673901E+02 -0.11437244496E+03  0.87155418100E+03  0.88289239900E+03  0.79702996841E+02 0.  0.
          5    1    5    5  501    0  0.56050479281E+01 -0.11137061197E+03  0.19980349756E+04  0.20011498403E+04  0.47000000000E+01 0. -1.
        -13    1    6    6    0    0 -0.99549984369E+01 -0.10627999930E+03  0.85288314770E+03  0.85953720331E+03  0.00000000000E+00 0.  1.
         14    1    6    6    0    0 -0.11461675464E+02 -0.80924456588E+01  0.18671033304E+02  0.23355195692E+02  0.00000000000E+00 0. -1.
         -5    1    3    3    0  503  0.16152321245E+02  0.18929179161E+03  0.15599086367E+03  0.24586077240E+03  0.47000000000E+01 0.  1.
         13    1    4    4    0    0  0.32223426477E+02  0.34253624522E+02 -0.48267864078E+01  0.47275341076E+02  0.00000000000E+00 0. -1.
        -14    1    4    4    0    0 -0.32564121749E+02  0.21976407933E+01  0.24808066606E+02  0.40996241523E+02  0.00000000000E+00 0.  1.
</event>
<event>
12    1  0.8416569E-002  0.2402665E+03  0.7818608E-02  0.1119657E+00
         21   -1    0    0  503  502  0.00000000000E+00  0.00000000000E+00  0.34839328829E+03  0.34839328829E+03  0.00000000000E+00 0. -1.
         21   -1    0    0  501  503 -0.00000000000E+00 -0.00000000000E+00 -0.21638889262E+03  0.21638889262E+03  0.00000000000E+00 0.  1.
          6    2    1    2  501    0 -0.91557685667E+02 -0.14007010867E+03 -0.70932030507E+02  0.25028072139E+03  0.17206580544E+03 0.  0.
         24    2    3    3    0    0 -0.12727435468E+03 -0.11454389526E+03 -0.32652364677E+02  0.19184536538E+03  0.80121170716E+02 0.  0.
         -6    2    1    2    0  502  0.91557685667E+02  0.14007010867E+03  0.20293642618E+03  0.31450145953E+03  0.17241093304E+03 0.  0.
        -24    2    5    5    0    0  0.78640819255E+02  0.46423812961E+02  0.18144756992E+03  0.21744304887E+03  0.77580345499E+02 0.  0.
          5    1    3    3  501    0  0.35716669012E+02 -0.25526213404E+02 -0.38279665830E+02  0.58435356011E+02  0.47000000000E+01 0. -1.
        -11    1    4    4    0    0 -0.98211281673E+02 -0.92395980939E+02  0.10559356135E+02  0.13525521485E+03  0.00000000000E+00 0.  1.
         12    1    4    4    0    0 -0.29063073006E+02 -0.22147914323E+02 -0.43211720812E+02  0.56590150529E+02  0.00000000000E+00 0. -1.
         -5    1    5    5    0  502  0.12916866412E+02  0.93646295705E+02  0.21488856256E+02  0.97058410663E+02  0.47000000000E+01 0.  1.
         11    1    6    6    0    0  0.14009063427E+02 -0.13185176514E+02  0.84078963174E+02  0.86251810336E+02  0.00000000000E+00 0. -1.
        -12    1    6    6    0    0  0.64631755828E+02  0.59608989475E+02  0.97368606745E+02  0.13119123853E+03  0.00000000000E+00 0.  1.
</event>
<event>
12    1  0.8416569E-002  0.2007265E+03  0.7818608E-02  0.1150226E+00
         21   -1    0    0  501  502  0.00000000000E+00  0.00000000000E+00  0.81131343707E+02  0.81131343707E+02  0.00000000000E+00 0. -1.
         21   -1    0    0  502  503 -0.00000000000E+00 -0.00000000000E+00 -0.49029546176E+03  0.49029546176E+03  0.00000000000E+00 0. -1.
         -6    2    1    2    0  503 -0.86659371966E+02 -0.35642836454E+02 -0.23976417122E+03  0.31269472935E+03  0.17751303452E+03 0.  0.
        -24    2    3    3    0    0 -0.12218042535E+03 -0.55134320446E+02 -0.16406175206E+03  0.22670281433E+03  0.80684929863E+02 0.  0.
          6    2    1    2  501    0  0.86659371966E+02  0.35642836454E+02 -0.16939994684E+03  0.25873207612E+03  0.17165572139E+03 0.  0.
         24    2    5    5    0    0 -0.13892889449E+02 -0.15114132333E+02 -0.63798415009E+02  0.10426265947E+03  0.79868736237E+02 0.  0.
          5    1    5    5  501    0  0.10055226142E+03  0.50756968787E+02 -0.10560153183E+03  0.15446941665E+03  0.47000000000E+01 0. -1.
        -11    1    6    6    0    0 -0.29737702292E+02 -0.55642039451E+01 -0.76202773731E+02  0.81988743297E+02  0.00000000000E+00 0.  1.
         12    1    6    6    0    0  0.15844812843E+02 -0.95499283881E+01  0.12404358722E+02  0.22273916170E+02  0.00000000000E+00 0. -1.
         -5    1    3    3    0  503  0.35521053386E+02  0.19491483992E+02 -0.75702419158E+02  0.85991915016E+02  0.47000000000E+01 0.  1.
         13    1    4    4    0    0 -0.85379611309E+02 -0.46784788451E+02 -0.16188321565E+03  0.18890386435E+03  0.00000000000E+00 0. -1.
        -14    1    4    4    0    0 -0.36800814043E+02 -0.83495319952E+01 -0.21785364091E+01  0.37798949980E+02  0.00000000000E+00 0.  1.
</event>
<event>
12    1  0.8416569E-002  0.2528206E+03  0.7818608E-02  0.1111622E+00
         21   -1    0    0  501  502  0.00000000000E+00  0.00000000000E+00  0.22531754786E+03  0.22531754786E+03  0.00000000000E+00 0.  1.
         21   -1    0    0  502  503 -0.00000000000E+00 -0.00000000000E+00 -0.56404228139E+03  0.56404228139E+03  0.00000000000E+00 0. -1.
         -6    2    1    2    0  503 -0.74173309602E+02 -0.16988244006E+03 -0.44802619000E+03  0.51443730343E+03  0.17192018187E+03 0.  0.
        -24    2    3    3    0    0 -0.97627617382E+02 -0.13310347300E+03 -0.42778932747E+03  0.46612149260E+03  0.83772614640E+02 0.  0.
          6    2    1    2  501    0  0.74173309602E+02  0.16988244006E+03  0.10930145648E+03  0.27492252583E+03  0.17109606518E+03 0.  0.
         24    2    5    5    0    0  0.18033964383E+02  0.93773920806E+02 -0.22895140409E+01  0.12857100556E+03  0.86060963860E+02 0.  0.
          5    1    5    5  501    0  0.56139345219E+02  0.76108519250E+02  0.11159097052E+03  0.14635152027E+03  0.47000000000E+01 0. -1.
        -11    1    6    6    0    0 -0.31571408905E+02  0.40335343738E+02  0.15505543749E+02  0.53517433624E+02  0.00000000000E+00 0.  1.
         12    1    6    6    0    0  0.49605373288E+02  0.53438577067E+02 -0.17795057790E+02  0.75053571932E+02  0.00000000000E+00 0. -1.
         -5    1    3    3    0  503  0.23454307780E+02 -0.36778967057E+02 -0.20236862534E+02  0.48315810833E+02  0.47000000000E+01 0.  1.
         13    1    4    4    0    0 -0.49638641533E+02 -0.12329956523E+03 -0.27066588805E+03  0.30154071114E+03  0.00000000000E+00 0. -1.
        -14    1    4    4    0    0 -0.47988975849E+02 -0.98039077668E+01 -0.15712343942E+03  0.16458078146E+03  0.00000000000E+00 0.  1.
</event>
<event>
12    1  0.8416569E-002  0.1806940E+03  0.7818608E-02  0.1167354E+00
         21   -1    0    0  501  502  0.00000000000E+00  0.00000000000E+00  0.16134321221E+03  0.16134321221E+03  0.00000000000E+00 0.  1.
         21   -1    0    0  502  503 -0.00000000000E+00 -0.00000000000E+00 -0.23838215651E+03  0.23838215651E+03  0.00000000000E+00 0. -1.
         -6    2    1    2    0  503 -0.42244402969E+02 -0.32770456790E+02 -0.11738409313E+03  0.21547466622E+03  0.17260305341E+03 0.  0.
        -24    2    3    3    0    0 -0.54374865914E+02  0.40932194987E+02 -0.79743183324E+02  0.13170022441E+03  0.79711374306E+02 0.  0.
          6    2    1    2  501    0  0.42244402969E+02  0.32770456790E+02  0.40345148823E+02  0.18425070250E+03  0.17164526768E+03 0.  0.
         24    2    5    5    0    0 -0.29263825650E+02  0.67436260135E+01  0.60847077209E+02  0.10529982063E+03  0.80522279132E+02 0.  0.
          5    1    5    5  501    0  0.71508228619E+02  0.26026830777E+02 -0.20501928386E+02  0.78950881870E+02  0.47000000000E+01 0. -1.
        -11    1    6    6    0    0  0.99391450917E+01  0.30787149049E+02  0.46505303187E+01  0.32684286499E+02  0.00000000000E+00 0.  1.
         12    1    6    6    0    0 -0.39202970741E+02 -0.24043523035E+02  0.56196546890E+02  0.72615534132E+02  0.00000000000E+00 0. -1.
         -5    1    3    3    0  503  0.12130462945E+02 -0.73702651777E+02 -0.37640909801E+02  0.83774441812E+02  0.47000000000E+01 0.  1.
         13    1    4    4    0    0 -0.19149203316E+02 -0.22858055949E+02 -0.35854648255E+02  0.46634091724E+02  0.00000000000E+00 0. -1.
        -14    1    4    4    0    0 -0.35225662598E+02  0.63790250936E+02 -0.43888535069E+02  0.85066132688E+02  0.00000000000E+00 0.  1.
</event>
<event>
12    1  0.8416569E-002  0.1991227E+03  0.7818608E-02  0.1150538E+00
         21   -1    0    0  503  502  0.00000000000E+00  0.00000000000E+00  0.97002763147E+03  0.97002763147E+03  0.00000000000E+00 0.  1.
         21   -1    0    0  501  503 -0.00000000000E+00 -0.00000000000E+00 -0.44474314146E+02  0.44474314146E+02  0.00000000000E+00 0.  1.
          6    2    1    2  501    0 -0.98043898981E+02  0.25326369207E+02  0.31766604876E+03  0.37491541042E+03  0.17145207883E+03 0.  0.
         24    2    3    3    0    0 -0.12148169286E+03  0.37660397275E+02  0.17741446946E+03  0.23210765880E+03  0.78879427455E+02 0.  0.
         -6    2    1    2    0  502  0.98043898981E+02 -0.25326369207E+02  0.60788726857E+03  0.63958653520E+03  0.17114313778E+03 0.  0.
        -24    2    5    5    0    0  0.62243966004E+02  0.14131255860E+02  0.10172504780E+03  0.13060635570E+03  0.51342293529E+02 0.  0.
          5    1    3    3  501    0  0.23437793876E+02 -0.12334028068E+02  0.14025157929E+03  0.14280775163E+03  0.47000000000E+01 0. -1.
        -13    1    4    4    0    0 -0.86144105118E+02 -0.10468666416E+02  0.12779052993E+03  0.15446947712E+03  0.00000000000E+00 0.  1.
         14    1    4    4    0    0 -0.35337587738E+02  0.48129063691E+02  0.49623939534E+02  0.77638181675E+02  0.00000000000E+00 0. -1.
         -5    1    5    5    0  502  0.35799932977E+02 -0.39457625067E+02  0.50616222077E+03  0.50898017949E+03  0.47000000000E+01 0.  1.
         11    1    6    6    0    0  0.19490231871E+02  0.14217774518E+02  0.78138389921E+02  0.81777883502E+02  0.00000000000E+00 0. -1.
        -12    1    6    6    0    0  0.42753734133E+02 -0.86518658045E-01  0.23586657876E+02  0.48828472202E+02  0.00000000000E+00 0.  1.
</event>
<event>
12    1  0.8416569E-002  0.1905532E+03  0.7818608E-02  0.1158094E+00
         21   -1    0    0  503  502  0.00000000000E+00  0.00000000000E+00  0.30083605308E+03  0.30083605308E+03  0.00000000000E+00 0.  1.
         21   -1    0    0  501  503 -0.00000000000E+00 -0.00000000000E+00 -0.17234488367E+03  0.17234488367E+03  0.00000000000E+00 0.  1.
          6    2    1    2  501    0  0.80405013855E+02  0.68051456957E+01 -0.65798336613E+02  0.20104320822E+03  0.17198161009E+03 0.  0.
         24    2    3    3    0    0  0.94566964606E+02 -0.16952734059E+02 -0.97557300724E+02  0.15866727754E+03  0.80172140117E+02 0.  0.
         -6    2    1    2    0  502 -0.80405013855E+02 -0.68051456957E+01  0.19428950603E+03  0.27213772853E+03  0.17262460681E+03 0.  0.
        -24    2    5    5    0    0 -0.65467940626E+02 -0.16461649023E+02  0.33731751555E+02  0.11052941583E+03  0.80758179533E+02 0.  0.
          5    1    3    3  501    0 -0.14161950751E+02  0.23757879755E+02  0.31758964111E+02  0.42375930679E+02  0.47000000000E+01 0. -1.
        -13    1    4    4    0    0  0.10241135651E+03  0.33640944479E+01 -0.72805610849E+02  0.12569828974E+03  0.00000000000E+00 0.  1.
         14    1    4    4    0    0 -0.78443919004E+01 -0.20316828507E+02 -0.24751689874E+02  0.32968987799E+02  0.00000000000E+00 0. -1.
         -5    1    5    5    0  502 -0.14937073229E+02  0.96565033275E+01  0.16055775447E+03  0.16160831270E+03  0.47000000000E+01 0.  1.
         13    1    6    6    0    0 -0.63168341172E+00 -0.29412909239E+02 -0.10211189340E+02  0.31141397554E+02  0.00000000000E+00 0. -1.
        -14    1    6    6    0    0 -0.64836257214E+02  0.12951260216E+02  0.43942940895E+02  0.79388018272E+02  0.00000000000E+00 0.  1.
</event>
<event>
12    1  0.8416569E-002  0.2336324E+03  0.7818608E-02  0.1124292E+00
         21   -1    0    0  503  502  0.00000000000E+00  0.00000000000E+00  0.63706780574E+02  0.63706780574E+02  0.00000000000E+00 0. -1.
         21   -1    0    0  501  503 -0.00000000000E+00 -0.00000000000E+00 -0.11071731904E+04  0.11071731904E+04  0.00000000000E+00 0.  1.
          6    2    1    2  501    0 -0.18784920511E+02 -0.15363697578E+03 -0.80318583172E+03  0.83647569875E+03  0.17500548777E+03 0.  0.
         24    2    3    3    0    0  0.46973618062E+02 -0.78013037536E+02 -0.54962825391E+03  0.56379144783E+03  0.86469788559E+02 0.  0.
         -6    2    1    2    0  502  0.18784920511E+02  0.15363697578E+03 -0.24028057811E+03  0.33440427223E+03  0.17359224495E+03 0.  0.
        -24    2    5    5    0    0  0.15559008195E+02  0.30987761473E+02 -0.31544155248E+02  0.92234454730E+02  0.79434481253E+02 0.  0.
          5    1    3    3  501    0 -0.65758538573E+02 -0.75623938245E+02 -0.25355757782E+03  0.27268425092E+03  0.47000000000E+01 0. -1.
        -13    1    4    4    0    0  0.52457525643E+02 -0.89985565307E+02 -0.53011116553E+03  0.54024720432E+03  0.00000000000E+00 0.  1.
         14    1    4    4    0    0 -0.54839075814E+01  0.11972527771E+02 -0.19517088382E+02  0.23544243511E+02  0.00000000000E+00 0. -1.
         -5    1    5    5    0  502  0.32259123155E+01  0.12264921431E+03 -0.20873642286E+03  0.24216981750E+03  0.47000000000E+01 0.  1.
         11    1    6    6    0    0 -0.75459847001E+01  0.75834866286E+01  0.24791753957E+02  0.27001522528E+02  0.00000000000E+00 0. -1.
        -12    1    6    6    0    0  0.23104992896E+02  0.23404274845E+02 -0.56335909206E+02  0.65232932202E+02  0.00000000000E+00 0.  1.
</event>
<event>
12    1  0.8416569E-002  0.1959217E+03  0.7818608E-02  0.1153707E+00
         21   -1    0    0  501  502  0.00000000000E+00  0.00000000000E+00  0.41624014026E+03  0.41624014026E+03  0.00000000000E+00 0.  1.
         21   -1    0    0  502  503 -0.00000000000E+00 -0.00000000000E+00 -0.94821211858E+02  0.94821211858E+02  0.00000000000E+00 0.  1.
         -6    2    1    2    0  503 -0.55718115853E+02 -0.69576219014E+02  0.11153984315E+03  0.22544723382E+03  0.17447051310E+03 0.  0.
        -24    2    3    3    0    0 -0.38391052687E+02  0.27055912441E+02  0.79345229452E+02  0.12202296636E+03  0.79925237311E+02 0.  0.
          6    2    1    2  501    0  0.55718115853E+02  0.69576219014E+02  0.20987908525E+03  0.28561411829E+03  0.17199080050E+03 0.  0.
         24    2    5    5    0    0  0.66053360939E+02  0.10992492514E+03  0.17566308750E+03  0.23150626416E+03  0.79316419341E+02 0.  0.
          5    1    5    5  501    0 -0.10335245086E+02 -0.40348706127E+02  0.34215997751E+02  0.54107854135E+02  0.47000000000E+01 0. -1.
        -11    1    6    6    0    0  0.49430661711E+02  0.11215815833E+02  0.59840630668E+02  0.78422483516E+02  0.00000000000E+00 0.  1.
         12    1    6    6    0    0  0.16622699228E+02  0.98709109308E+02  0.11582245683E+03  0.15308378064E+03  0.00000000000E+00 0. -1.
         -5    1    3    3    0  503 -0.17327063167E+02 -0.96632131456E+02  0.32194613698E+02  0.10342426746E+03  0.47000000000E+01 0.  1.
         11    1    4    4    0    0  0.66919666524E+01  0.40482031912E+02  0.18224753995E+02  0.44896759166E+02  0.00000000000E+00 0. -1.
        -12    1    4    4    0    0 -0.45083019339E+02 -0.13426119471E+02  0.61120475457E+02  0.77126207198E+02  0.00000000000E+00 0.  1.
</event>
<event>
12    1  0.8416569E-002  0.1752921E+03  0.7818608E-02  0.1173537E+00
         21   -1    0    0  503  502  0.00000000000E+00  0.00000000000E+00  0.76411533916E+03  0.76411533916E+03  0.00000000000E+00 0.  1.
         21   -1    0    0  501  503 -0.00000000000E+00 -0.00000000000E+00 -0.26805841916E+03  0.26805841916E+03  0.00000000000E+00 0.  1.
          6    2    1    2  501    0 -0.16538442557E+02  0.29395274224E+02 -0.22834557165E+03  0.28786978429E+03  0.17201659916E+03 0.  0.
         24    2    3    3    0    0 -0.21628371719E+02 -0.32259995462E+02 -0.57886883743E+02  0.10647095866E+03  0.80477822766E+02 0.  0.
         -6    2    1    2    0  502  0.16538442557E+02 -0.29395274224E+02  0.72440249165E+03  0.74430397402E+03  0.16760618607E+03 0.  0.
        -24    2    5    5    0    0  0.56216822432E+02 -0.49103360274E+02  0.32627737698E+03  0.34369384008E+03  0.78083659413E+02 0.  0.
          5    1    3    3  501    0  0.50899291621E+01  0.61655269686E+02 -0.17045868791E+03  0.18139882563E+03  0.47000000000E+01 0. -1.
        -13    1    4    4    0    0  0.23008549316E+02  0.19431396373E+01 -0.42176020863E+02  0.48083114179E+02  0.00000000000E+00 0.  1.
         14    1    4    4    0    0 -0.44636921036E+02 -0.34203135099E+02 -0.15710862880E+02  0.58387844476E+02  0.00000000000E+00 0. -1.
         -5    1    5    5    0  502 -0.39678379875E+02  0.19708086050E+02  0.39812511467E+03  0.40061013394E+03  0.47000000000E+01 0.  1.
         13    1    6    6    0    0  0.29879164428E+02  0.11321849711E+02  0.18571342649E+03  0.18844210126E+03  0.00000000000E+00 0. -1.
        -14    1    6    6    0    0  0.26337658004E+02 -0.60425209985E+02  0.14056395049E+03  0.15525173883E+03  0.00000000000E+00 0.  1.
</event>
<event>
12    1  0.8416569E-002  0.2388157E+03  0.7818608E-02  0.1121369E+00
         21   -1    0    0  501  502  0.00000000000E+00  0.00000000000E+00  0.30772136767E+03  0.30772136767E+03  0.00000000000E+00 0. -1.
         21   -1    0    0  502  503 -0.00000000000E+00 -0.00000000000E+00 -0.25287607045E+03  0.25287607045E+03  0.00000000000E+00 0.  1.
         -6    2    1    2    0  503 -0.84532393983E+02  0.13916850576E+03 -0.12102408332E+03  0.26773081169E+03  0.17469791114E+03 0.  0.
        -24    2    3    3    0    0  0.17754237501E+02  0.99581460225E+02 -0.53371487467E+02  0.13877867762E+03  0.78608686022E+02 0.  0.
          6    2    1    2  501    0  0.84532393983E+02 -0.13916850576E+03  0.17586938054E+03  0.29286662643E+03  0.16830693163E+03 0.  0.
         24    2    5    5    0    0  0.80093398193E+02 -0.15960896532E+03  0.18202577712E+03  0.27056173258E+03  0.90444974201E+02 0.  0.
          5    1    5    5  501    0  0.44389957896E+01  0.20440459561E+02 -0.61563965732E+01  0.22304893846E+02  0.47000000000E+01 0. -1.
        -11    1    6    6    0    0  0.18955272801E+02 -0.22028762122E+02 -0.60144468872E+01  0.29677302757E+02  0.00000000000E+00 0.  1.
         12    1    6    6    0    0  0.61138125392E+02 -0.13758020320E+03  0.18804022401E+03  0.24088442982E+03  0.00000000000E+00 0. -1.
         -5    1    3    3    0  503 -0.10228663148E+03  0.39587045532E+02 -0.67652595858E+02  0.12895213407E+03  0.47000000000E+01 0.  1.
         13    1    4    4    0    0  0.26789936441E+02 -0.10043779236E+01 -0.15176375847E+02  0.30806360600E+02  0.00000000000E+00 0. -1.
        -14    1    4    4    0    0 -0.90356989408E+01  0.10058583815E+03 -0.38195111620E+02  0.10797231702E+03  0.00000000000E+00 0.  1.
</event>
<event>
12    1  0.8416569E-002  0.3022476E+03  0.7818608E-02  0.1084308E+00
         21   -1    0    0  503  502  0.00000000000E+00  0.00000000000E+00  0.13054691198E+04  0.13054691198E+04  0.00000000000E+00 0.  1.
         21   -1    0    0  501  503 -0.00000000000E+00 -0.00000000000E+00 -0.21345714479E+03  0.21345714479E+03  0.00000000000E+00 0. -1.
          6    2    1    2  501    0  0.18081557904E+03  0.16726094900E+03 -0.77840333812E+02  0.31065972401E+03  0.17256838607E+03 0.  0.
         24    2    3    3    0    0  0.15348903096E+03  0.97210810932E+02  0.77662357550E+01  0.19662316484E+03  0.74776534750E+02 0.  0.
         -6    2    1    2    0  502 -0.18081557904E+03 -0.16726094900E+03  0.11698523088E+04  0.12082665405E+04  0.17516594967E+03 0.  0.
        -24    2    5    5    0    0 -0.13084899949E+03 -0.31768552636E+02  0.54002393843E+03  0.56207716067E+03  0.78575943313E+02 0.  0.
          5    1    3    3  501    0  0.27326548084E+02  0.70050138068E+02 -0.85606569567E+02  0.11403655917E+03  0.47000000000E+01 0. -1.
        -13    1    4    4    0    0  0.84912824845E+01  0.23483461248E+02  0.22074547483E+02  0.33329573610E+02  0.00000000000E+00 0.  1.
         14    1    4    4    0    0  0.14499774847E+03  0.73727349684E+02 -0.14308311728E+02  0.16329359123E+03  0.00000000000E+00 0. -1.
         -5    1    5    5    0  502 -0.49966579552E+02 -0.13549239636E+03  0.62982837035E+03  0.64618937986E+03  0.47000000000E+01 0.  1.
         13    1    6    6    0    0 -0.96862974319E+02 -0.77768322450E+01  0.23604671607E+03  0.25526646290E+03  0.00000000000E+00 0. -1.
        -14    1    6    6    0    0 -0.33986025171E+02 -0.23991720391E+02  0.30397722235E+03  0.30681069777E+03  0.00000000000E+00 0.  1.
</event>
<event>
12    1  0.8416569E-002  0.2562007E+03  0.7818608E-02  0.1109736E+00
         21   -1    0    0  503  502  0.00000000000E+00  0.00000000000E+00  0.19777371885E+03  0.19777371885E+03  0.00000000000E+00 0. -1.
         21   -1    0    0  501  503 -0.00000000000E+00 -0.00000000000E+00 -0.36858677660E+03  0.36858677660E+03  0.00000000000E+00 0. -1.
          6    2    1    2  501    0  0.23854372317E+02 -0.18800785952E+03 -0.17738194988E+03  0.31007563751E+03  0.16960707095E+03 0.  0.
         24    2    3    3    0    0  0.57267256101E+02 -0.56631297813E+02 -0.46813871390E+02  0.12180366698E+03  0.78472620844E+02 0.  0.
         -6    2    1    2    0  502 -0.23854372317E+02  0.18800785952E+03  0.65688921230E+01  0.25628485794E+03  0.17240299228E+03 0.  0.
        -24    2    5    5    0    0 -0.78002728178E+02  0.89189157374E+02 -0.79870142570E+01  0.14256966658E+03  0.78887172820E+02 0.  0.
          5    1    3    3  501    0 -0.33412883784E+02 -0.13137656170E+03 -0.13056807849E+03  0.18827197053E+03  0.47000000000E+01 0. -1.
        -11    1    4    4    0    0  0.98496053728E+01 -0.18046775262E+02  0.21759955949E+02  0.29936541321E+02  0.00000000000E+00 0.  1.
         12    1    4    4    0    0  0.47417650728E+02 -0.38584522551E+02 -0.68573827339E+02  0.91867125660E+02  0.00000000000E+00 0. -1.
         -5    1    5    5    0  502  0.54148355861E+02  0.98818702144E+02  0.14555906380E+02  0.11371519136E+03  0.47000000000E+01 0.  1.
         13    1    6    6    0    0  0.86194262021E+01  0.37598598908E+02  0.10701056402E+02  0.40030760123E+02  0.00000000000E+00 0. -1.
        -14    1    6    6    0    0 -0.86622154380E+02  0.51590558465E+02 -0.18688070659E+02  0.10253890646E+03  0.00000000000E+00 0.  1.
</event>
<event>
12    1  0.8416569E-002  0.2105851E+03  0.7818608E-02  0.1141478E+00
         21   -1    0    0  503  502  0.00000000000E+00  0.00000000000E+00  0.34348165191E+02  0.34348165191E+02  0.00000000000E+00 0.  1.
         21   -1    0    0  501  503 -0.00000000000E+00 -0.00000000000E+00 -0.12930034354E+04  0.12930034354E+04  0.00000000000E+00 0.  1.
          6    2    1    2  501    0  0.32056001556E+02  0.11334679660E+03 -0.69433084111E+03  0.72501602815E+03  0.17227257656E+03 0.  0.
         24    2    3    3    0    0 -0.38065178005E+01  0.31764717924E+02 -0.13275074808E+03  0.15638957191E+03  0.76232868267E+02 0.  0.
         -6    2    1    2    0  502 -0.32056001556E+02 -0.11334679660E+03 -0.56432442915E+03  0.60233557248E+03  0.17455943689E+03 0.  0.
        -24    2    5    5    0    0 -0.50666468614E+02 -0.18138700078E+02 -0.16214993418E+03  0.18859973220E+03  0.79882127855E+02 0.  0.
          5    1    3    3  501    0  0.35862519356E+02  0.81582078675E+02 -0.56158009303E+03  0.56862645624E+03  0.47000000000E+01 0. -1.
        -13    1    4    4    0    0  0.24857075780E+02 -0.59548404666E+01 -0.86438904648E+02  0.90138884939E+02  0.00000000000E+00 0.  1.
         14    1    4    4    0    0 -0.28663593581E+02  0.37719558391E+02 -0.46311843432E+02  0.66250686972E+02  0.00000000000E+00 0. -1.
         -5    1    5    5    0  502  0.18610467058E+02 -0.95208096521E+02 -0.40217449497E+03  0.41373584028E+03  0.47000000000E+01 0.  1.
         13    1    6    6    0    0  0.86605510028E+01 -0.15538821399E+02 -0.10391484142E+03  0.10542653548E+03  0.00000000000E+00 0. -1.
        -14    1    6    6    0    0 -0.59327019617E+02 -0.25998786786E+01 -0.58235092754E+02  0.83173196727E+02  0.00000000000E+00 0.  1.
</event>
<event>
12    1  0.8416569E-002  0.3592489E+03  0.7818608E-02  0.1058901E+00
         21   -1    0    0  501  502  0.00000000000E+00  0.00000000000E+00  0.41568926031E+02  0.41568926031E+02  0.00000000000E+00 0. -1.
         21   -1    0    0  502  503 -0.00000000000E+00 -0.00000000000E+00 -0.32469453117E+04  0.32469453117E+04  0.00000000000E+00 0. -1.
         -6    2    1    2    0  503 -0.22472978133E+03  0.22154188990E+03 -0.19493130688E+04  0.19821405569E+04  0.17168419659E+03 0.  0.
        -24    2    3    3    0    0 -0.50421897433E+02  0.27864667833E+02 -0.54779784599E+03  0.55660167120E+03  0.80025826250E+02 0.  0.
          6    2    1    2  501    0  0.22472978133E+03 -0.22154188990E+03 -0.12560633169E+04  0.13063736809E+04  0.17126836978E+03 0.  0.
         24    2    5    5    0    0  0.23412137143E+03 -0.22283633368E+03 -0.10862089691E+04  0.11361900536E+04  0.81296156644E+02 0.  0.
          5    1    5    5  501    0 -0.93915900986E+01  0.12944437775E+01 -0.16985434772E+03  0.17018362726E+03  0.47000000000E+01 0. -1.
        -13    1    6    6    0    0  0.73246940517E+02 -0.26985507284E+02 -0.30854883794E+03  0.31826988123E+03  0.00000000000E+00 0.  1.
         14    1    6    6    0    0  0.16087443091E+03 -0.19585082640E+03 -0.77766013120E+03  0.81792017238E+03  0.00000000000E+00 0. -1.
         -5    1    3    3    0  503 -0.17430788390E+03  0.19367722207E+03 -0.14015152228E+04  0.14255388857E+04  0.47000000000E+01 0.  1.
         11    1    4    4    0    0 -0.36128067096E+02  0.55726290811E+02 -0.33589787783E+03  0.34240041041E+03  0.00000000000E+00 0. -1.
        -12    1    4    4    0    0 -0.14293830337E+02 -0.27861622978E+02 -0.21189996816E+03  0.21420126079E+03  0.00000000000E+00 0.  1.
</event>
<event>
12    1  0.8416569E-002  0.1766953E+03  0.7818608E-02  0.1171108E+00
         21   -1    0    0  503  502  0.00000000000E+00  0.00000000000E+00  0.90654423059E+02  0.90654423059E+02  0.00000000000E+00 0. -1.
         21   -1    0    0  501  503 -0.00000000000E+00 -0.00000000000E+00 -0.54061305299E+03  0.54061305299E+03  0.00000000000E+00 0. -1.
          6    2    1    2  501    0  0.42807302494E+02  0.35219310913E+01 -0.41528015019E+03  0.45120134199E+03  0.17111451931E+03 0.  0.
         24    2    3    3    0    0 -0.85549236356E+01  0.35900563273E+02 -0.35553130350E+03  0.36588739954E+03  0.78160374939E+02 0.  0.
         -6    2    1    2    0  502 -0.42807302494E+02 -0.35219310913E+01 -0.34678479738E+02  0.18006613406E+03  0.17139529321E+03 0.  0.
        -24    2    5    5    0    0 -0.75170437247E+02 -0.49288620808E+02 -0.18709678827E+02  0.12159344829E+03  0.79717951609E+02 0.  0.
          5    1    3    3  501    0  0.51362226130E+02 -0.32378632181E+02 -0.59748846694E+02  0.85313942449E+02  0.47000000000E+01 0. -1.
        -11    1    4    4    0    0 -0.10873294508E+02 -0.21551315162E+02 -0.57518918627E+02  0.62378792219E+02  0.00000000000E+00 0.  1.
         12    1    4    4    0    0  0.23183708728E+01  0.57451878434E+02 -0.29801238487E+03  0.30350860732E+03  0.00000000000E+00 0. -1.
         -5    1    5    5    0  502  0.32363134753E+02  0.45766689717E+02 -0.15968800911E+02  0.58472685770E+02  0.47000000000E+01 0.  1.
         13    1    6    6    0    0 -0.13501877575E+02  0.12436665592E+02  0.19108703755E+02  0.26497432107E+02  0.00000000000E+00 0. -1.
        -14    1    6    6    0    0 -0.61668559672E+02 -0.61725286400E+02 -0.37818382582E+02  0.95096016185E+02  0.00000000000E+00 0.  1.
</event>
<event>
12    1  0.8416569E-002  0.2725651E+03  0.7818608E-02  0.1099875E+00
         21   -1    0    0  503  502  0.00000000000E+00  0.00000000000E+00  0.14181038966E+04  0.14181038966E+04  0.00000000000E+00 0.  1.
         21   -1    0    0  501  503 -0.00000000000E+00 -0.00000000000E+00 -0.65138698248E+02  0.65138698248E+02  0.00000000000E+00 0. -1.
          6    2    1    2  501    0 -0.17816918817E+03 -0.11330337244E+03  0.34780082381E+03  0.44187912181E+03  0.17236540091E+03 0.  0.
         24    2    3    3    0    0 -0.12210308013E+03 -0.96267264714E-01  0.18284880962E+03  0.23405584564E+03  0.80245126050E+02 0.  0.
         -6    2    1    2    0  502  0.17816918817E+03  0.11330337244E+03  0.10051643745E+04  0.10413634730E+04  0.17175723947E+03 0.  0.
        -24    2    5    5    0    0  0.64680920993E+02  0.84085551027E+02  0.73413891868E+03  0.74604981673E+03  0.79852211569E+02 0.  0.
          5    1    3    3  501    0 -0.56066108046E+02 -0.11320710517E+03  0.16495201419E+03  0.20782327617E+03  0.47000000000E+01 0. -1.
        -13    1    4    4    0    0 -0.46746797818E+02  0.37719556479E+02  0.94148316125E+02  0.11167781103E+03  0.00000000000E+00 0.  1.
         14    1    4    4    0    0 -0.75356282308E+02 -0.37815823743E+02  0.88700493495E+02  0.12237803461E+03  0.00000000000E+00 0. -1.
         -5    1    5    5    0  502  0.11348826718E+03  0.29217821410E+02  0.27102545584E+03  0.29531365628E+03  0.47000000000E+01 0.  1.
         11    1    6    6    0    0 -0.15212658346E+02  0.29513792149E+02  0.12794365884E+03  0.13218195315E+03  0.00000000000E+00 0. -1.
        -12    1    6    6    0    0  0.79893579339E+02  0.54571758879E+02  0.60619525984E+03  0.61386786358E+03  0.00000000000E+00 0.  1.
</event>
<event>
12    1  0.8416569E-002  0.1976909E+03  0.7818608E-02  0.1152055E+00
         21   -1    0    0  501  502  0.00000000000E+00  0.00000000000E+00  0.56221540318E+03  0.56221540318E+03  0.00000000000E+00 0.  1.
         21   -1    0    0  502  503 -0.00000000000E+00 -0.00000000000E+00 -0.17306893779E+03  0.17306893779E+03  0.00000000000E+00 0. -1.
         -6    2    1    2    0  503  0.79461001616E+02  0.56637022655E+02 -0.90921783282E+02  0.21610497335E+03  0.17003760090E+03 0.  0.
        -24    2    3    3    0    0  0.10066307024E+02 -0.20327007475E+02 -0.88582264560E+02  0.11234250943E+03  0.65264876167E+02 0.  0.
          6    2    1    2  501    0 -0.79461001616E+02 -0.56637022655E+02  0.48006824867E+03  0.51917936761E+03  0.17192989635E+03 0.  0.
         24    2    5    5    0    0 -0.76784292834E+02 -0.91304823112E+02  0.27871116012E+03  0.31478810491E+03  0.84730406985E+02 0.  0.
          5    1    5    5  501    0 -0.26767087824E+01  0.34667800457E+02  0.20135708856E+03  0.20439126271E+03  0.47000000000E+01 0. -1.
        -11    1    6    6    0    0 -0.46320168887E+02 -0.37908459468E+02  0.22605274466E+03  0.23384279487E+03  0.00000000000E+00 0.  1.
         12    1    6    6    0    0 -0.30464123947E+02 -0.53396363644E+02  0.52658415455E+02  0.80945310034E+02  0.00000000000E+00 0. -1.
         -5    1    3    3    0  503  0.69394694592E+02  0.76964030130E+02 -0.23395187224E+01  0.10376246392E+03  0.47000000000E+01 0.  1.
         11    1    4    4    0    0 -0.25228915465E+02 -0.63576670483E+00 -0.17967796627E+02  0.30979736772E+02  0.00000000000E+00 0. -1.
        -12    1    4    4    0    0  0.35295222489E+02 -0.19691240770E+02 -0.70614467932E+02  0.81362772660E+02  0.00000000000E+00 0.  1.
</event>
<event>
12    1  0.8416569E-002  0.2302718E+03  0.7818608E-02  0.1126525E+00
         21   -1    0    0  503  502  0.00000000000E+00  0.00000000000E+00  0.19919554278E+04  0.19919554278E+04  0.00000000000E+00 0.  1.
         21   -1    0    0  501  503 -0.00000000000E+00 -0.00000000000E+00 -0.49321700253E+02  0.49321700253E+02  0.00000000000E+00 0.  1.
          6    2    1    2  501    0 -0.14361987680E+03  0.51786280027E+02  0.27762001145E+03  0.36041551179E+03  0.17180798168E+03 0.  0.
         24    2    3    3    0    0 -0.16875555567E+03  0.68759078640E+02  0.25578033605E+03  0.32274669621E+03  0.74401620530E+02 0.  0.
         -6    2    1    2    0  502  0.14361987680E+03 -0.51786280027E+02  0.16650137161E+04  0.16808616163E+04  0.17238506444E+03 0.  0.
        -24    2    5    5    0    0  0.56011382419E+02 -0.62206569091E+02  0.12613022521E+04  0.12675955193E+04  0.94382717107E+02 0.  0.
          5    1    3    3  501    0  0.25135678877E+02 -0.16972798614E+02  0.21839675404E+02  0.37668815580E+02  0.47000000000E+01 0. -1.
        -13    1    4    4    0    0 -0.14177355826E+03  0.64938673354E+02  0.16104659029E+03  0.22417131253E+03  0.00000000000E+00 0.  1.
         14    1    4    4    0    0 -0.26981997413E+02  0.38204052868E+01  0.94733745761E+02  0.98575383676E+02  0.00000000000E+00 0. -1.
         -5    1    5    5    0  502  0.87608494378E+02  0.10420289064E+02  0.40371146403E+03  0.41326609697E+03  0.47000000000E+01 0.  1.
         13    1    6    6    0    0 -0.45113312996E+01  0.78355062006E+01  0.12827315583E+02  0.15693543022E+02  0.00000000000E+00 0. -1.
        -14    1    6    6    0    0  0.60522713718E+02 -0.70042075291E+02  0.12484749365E+04  0.12519019763E+04  0.00000000000E+00 0.  1.
</event>
<event>
12    1  0.8416569E-002  0.1850112E+03  0.7818608E-02  0.1164872E+00
         21   -1    0    0  501  502  0.00000000000E+00  0.00000000000E+00  0.17851263911E+03  0.17851263911E+03  0.00000000000E+00 0. -1.
         21   -1    0    0  502  503 -0.00000000000E+00 -0.00000000000E+00 -0.21074946537E+03  0.21074946537E+03  0.00000000000E+00 0.  1.
         -6    2    1    2    0  503 -0.21491509098E+02 -0.35484214319E+02 -0.85906626141E+02  0.20398308878E+03  0.18030013218E+03 0.  0.
        -24    2    3    3    0    0 -0.24822396035E+01 -0.93792300491E+02 -0.52532254390E+02  0.13400363516E+03  0.79963612596E+02 0.  0.
          6    2    1    2  501    0  0.21491509098E+02  0.35484214319E+02  0.53669799885E+02  0.18527901569E+03  0.17241476679E+03 0.  0.
         24    2    5    5    0    0  0.71763572164E+02  0.80047928475E+01  0.70549858707E+00  0.10711440643E+03  0.79113281682E+02 0.  0.
          5    1    5    5  501    0 -0.50272063066E+02  0.27479421472E+02  0.52964301298E+02  0.78164609263E+02  0.47000000000E+01 0. -1.
        -13    1    6    6    0    0 -0.15125405122E+01  0.29214620811E+02 -0.80195831982E+01  0.30333077038E+02  0.00000000000E+00 0.  1.
         14    1    6    6    0    0  0.73276112676E+02 -0.21209827963E+02  0.87250817852E+01  0.76781329393E+02  0.00000000000E+00 0. -1.
         -5    1    3    3    0  503 -0.19009269495E+02  0.58308086172E+02 -0.33374371751E+02  0.69979453624E+02  0.47000000000E+01 0.  1.
         11    1    4    4    0    0  0.33306375716E+02 -0.27753038733E+02 -0.18547630186E+01  0.43393386225E+02  0.00000000000E+00 0. -1.
        -12    1    4    4    0    0 -0.35788615319E+02 -0.66039261758E+02 -0.50677491372E+02  0.90610248933E+02  0.00000000000E+00 0.  1.
</event>
<event>
12    1  0.8416569E-002  0.1851437E+03  0.7818608E-02  0.1162997E+00
         21   -1    0    0  501  502  0.00000000000E+00  0.00000000000E+00  0.54266904179E+03  0.54266904179E+03  0.00000000000E+00 0. -1.
         21   -1    0    0  502  503 -0.00000000000E+00 -0.00000000000E+00 -0.37786101044E+03  0.37786101044E+03  0.00000000000E+00 0. -1.
         -6    2    1    2    0  503  0.17746775968E+02 -0.64665575480E+02 -0.33772452370E+03  0.38497690924E+03  0.17219983167E+03 0.  0.
        -24    2    3    3    0    0  0.18275523660E+01  0.19501208554E+02 -0.24524062411E+03  0.25883083954E+03  0.80416433045E+02 0.  0.
          6    2    1    2  501    0 -0.17746775968E+02  0.64665575480E+02  0.50253255505E+03  0.53555314299E+03  0.17257350716E+03 0.  0.
         24    2    5    5    0    0  0.35740345323E+02 -0.14684792991E+02  0.27588018985E+03  0.28948254789E+03  0.78722620347E+02 0.  0.
          5    1    5    5  501    0 -0.53487121291E+02  0.79350368471E+02  0.22665236520E+03  0.24607059510E+03  0.47000000000E+01 0. -1.
        -11    1    6    6    0    0 -0.21105629204E+02 -0.83983221493E+01  0.33699740494E+02  0.40640520523E+02  0.00000000000E+00 0.  1.
         12    1    6    6    0    0  0.56845974527E+02 -0.62864708416E+01  0.24218044935E+03  0.24884202737E+03  0.00000000000E+00 0. -1.
         -5    1    3    3    0  503  0.15919223602E+02 -0.84166784034E+02 -0.92483899595E+02  0.12614606969E+03  0.47000000000E+01 0.  1.
         11    1    4    4    0    0  0.28700279285E+02  0.38418654817E+01 -0.31294578197E+02  0.42635860328E+02  0.00000000000E+00 0. -1.
        -12    1    4    4    0    0 -0.26872726918E+02  0.15659343072E+02 -0.21394604591E+03  0.21619497921E+03  0.00000000000E+00 0.  1.
</event>
<event>
12    1  0.8416569E-002  0.1829828E+03  0.7818608E-02  0.1165273E+00
         21   -1    0    0  501  502  0.00000000000E+00  0.00000000000E+00  0.22771852822E+03  0.22771852822E+03  0.00000000000E+00 0.  1.
         21   -1    0    0  502  503 -0.00000000000E+00 -0.00000000000E+00 -0.21596407302E+03  0.21596407302E+03  0.00000000000E+00 0. -1.
         -6    2    1    2    0  503 -0.46535238571E+02  0.30905317864E+02 -0.12046105236E+03  0.21793129780E+03  0.17280774960E+03 0.  0.
        -24    2    3    3    0    0 -0.32900401678E+02 -0.44603851857E+02 -0.43011004871E+02  0.10880685807E+03  0.83168778956E+02 0.  0.
          6    2    1    2  501    0  0.46535238571E+02 -0.30905317864E+02  0.13221550757E+03  0.22575130344E+03  0.17424707590E+03 0.  0.
         24    2    5    5    0    0 -0.10596272539E+02 -0.68964248098E+02  0.46987055541E+02  0.11621377212E+03  0.80184218735E+02 0.  0.
          5    1    5    5  501    0  0.57131511110E+02  0.38058930235E+02  0.85228452030E+02  0.10953753132E+03  0.47000000000E+01 0. -1.
        -13    1    6    6    0    0  0.22812101888E+02 -0.46554767164E+02  0.54577509285E+02  0.75275778694E+02  0.00000000000E+00 0.  1.
         14    1    6    6    0    0 -0.33408374427E+02 -0.22409480934E+02 -0.75904537437E+01  0.40937993425E+02  0.00000000000E+00 0. -1.
         -5    1    3    3    0  503 -0.13634836893E+02  0.75509169720E+02 -0.77450047491E+02  0.10912443973E+03  0.47000000000E+01 0.  1.
         13    1    4    4    0    0 -0.17220465402E+02 -0.30626689024E+02 -0.67770685713E+02  0.76337437417E+02  0.00000000000E+00 0. -1.
        -14    1    4    4    0    0 -0.15679936276E+02 -0.13977162833E+02  0.24759680842E+02  0.32469420658E+02  0.00000000000E+00 0.  1.
</event>
<event>
12    1  0.8416569E-002  0.1995029E+03  0.7818608E-02  0.1150182E+00
         21   -1    0    0  503  502  0.00000000000E+00  0.00000000000E+00  0.47013511709E+02  0.47013511709E+02  0.00000000000E+00 0.  1.
         21   -1    0    0  501  503 -0.00000000000E+00 -0.00000000000E+00 -0.10222969118E+04  0.10222969118E+04  0.00000000000E+00 0. -1.
          6    2    1    2  501    0 -0.79935401158E+01 -0.10143535180E+03 -0.70947535679E+03  0.73696221142E+03  0.17147883802E+03 0.  0.
         24    2    3    3    0    0  0.32568854442E+02  0.49964784445E+01 -0.28971048878E+03  0.30199361858E+03  0.78627496954E+02 0.  0.
         -6    2    1    2    0  502  0.79935401158E+01  0.10143535180E+03 -0.26580804329E+03  0.33234821208E+03  0.17160533475E+03 0.  0.
        -24    2    5    5    0    0 -0.47193947239E+02  0.10860530401E+03 -0.18993257492E+03  0.23813439316E+03  0.81309442704E+02 0.  0.
          5    1    3    3  501    0 -0.40562394558E+02 -0.10643183024E+03 -0.41976486801E+03  0.43496859284E+03  0.47000000000E+01 0. -1.
        -13    1    4    4    0    0  0.50741613194E+01  0.39727532672E+02 -0.15963712356E+03  0.16458443178E+03  0.00000000000E+00 0.  1.
         14    1    4    4    0    0  0.27494693123E+02 -0.34731054228E+02 -0.13007336522E+03  0.13740918680E+03  0.00000000000E+00 0. -1.
         -5    1    5    5    0  502  0.55187487355E+02 -0.71699522147E+01 -0.75875468370E+02  0.94213818921E+02  0.47000000000E+01 0.  1.
         11    1    6    6    0    0 -0.53540793006E+01  0.46380734611E+01 -0.82776274538E+02  0.83078815091E+02  0.00000000000E+00 0. -1.
        -12    1    6    6    0    0 -0.41839867938E+02  0.10396723055E+03 -0.10715630038E+03  0.15505557807E+03  0.00000000000E+00 0.  1.
</event>
<event>
12    1  0.8416569E-002  0.2115194E+03  0.7818608E-02  0.1140550E+00
         21   -1    0    0  503  502  0.00000000000E+00  0.00000000000E+00  0.75355290535E+02  0.75355290535E+02  0.00000000000E+00 0. -1.
         21   -1    0    0  501  503 -0.00000000000E+00 -0.00000000000E+00 -0.60465917339E+03  0.60465917339E+03  0.00000000000E+00 0.  1.
          6    2    1    2  501    0 -0.11285504143E+03 -0.46673316669E+02 -0.31605721836E+03  0.38030595901E+03  0.17270147167E+03 0.  0.
         24    2    3    3    0    0 -0.13477015703E+03 -0.67020605278E+02 -0.20348559062E+03  0.26373518301E+03  0.74128971455E+02 0.  0.
         -6    2    1    2    0  502  0.11285504143E+03  0.46673316669E+02 -0.21324666450E+03  0.29970850492E+03  0.17157036206E+03 0.  0.
        -24    2    5    5    0    0  0.48916837200E+02 -0.39556480463E+01 -0.23919781912E+02  0.93509221463E+02  0.75916496355E+02 0.  0.
          5    1    3    3  501    0  0.21915115599E+02  0.20347288609E+02 -0.11257162774E+03  0.11657077600E+03  0.47000000000E+01 0. -1.
        -13    1    4    4    0    0 -0.10112297278E+02  0.79795473110E+01 -0.52534181243E+02  0.54090405161E+02  0.00000000000E+00 0.  1.
         14    1    4    4    0    0 -0.12465785975E+03 -0.75000152589E+02 -0.15095140937E+03  0.20964477785E+03  0.00000000000E+00 0. -1.
         -5    1    5    5    0  502  0.63938204229E+02  0.50628964715E+02 -0.18932688259E+03  0.20619928346E+03  0.47000000000E+01 0.  1.
         13    1    6    6    0    0  0.39958918118E+02  0.32327321215E+02 -0.22507188353E+02  0.56110109264E+02  0.00000000000E+00 0. -1.
        -14    1    6    6    0    0  0.89579190823E+01 -0.36282969261E+02 -0.14125935594E+01  0.37399112199E+02  0.00000000000E+00 0.  1.
</event>
<event>
12    1  0.8416569E-002  0.1872589E+03  0.7818608E-02  0.1161270E+00
         21   -1    0    0  501  502  0.00000000000E+00  0.00000000000E+00  0.22564001413E+03  0.22564001413E+03  0.00000000000E+00 0. -1.
         21   -1    0    0  502  503 -0.00000000000E+00 -0.00000000000E+00 -0.30811367477E+03  0.30811367477E+03  0.00000000000E+00 0. -1.
         -6    2    1    2    0  503 -0.32512281624E+01 -0.71846301512E+02 -0.22973306580E+03  0.29552850381E+03  0.17142740014E+03 0.  0.
        -24    2    3    3    0    0  0.60103766473E+02 -0.40835503228E+02 -0.95786620262E+02  0.14407136391E+03  0.79381863232E+02 0.  0.
          6    2    1    2  501    0  0.32512281624E+01  0.71846301512E+02  0.14725940515E+03  0.23822518509E+03  0.17289720900E+03 0.  0.
         24    2    5    5    0    0  0.28130822590E+02  0.10171397559E+03  0.14808133860E+03  0.19906094441E+03  0.80994448807E+02 0.  0.
          5    1    5    5  501    0 -0.24879594428E+02 -0.29867674077E+02 -0.82193344606E+00  0.39164240683E+02  0.47000000000E+01 0. -1.
        -11    1    6    6    0    0  0.23479272085E+02 -0.35874437390E+01  0.48746021172E+02  0.54224722685E+02  0.00000000000E+00 0.  1.
         12    1    6    6    0    0  0.46515505056E+01  0.10530141933E+03  0.99335317429E+02  0.14483622172E+03  0.00000000000E+00 0. -1.
         -5    1    3    3    0  503 -0.63354994635E+02 -0.31010798284E+02 -0.13394644554E+03  0.15145713990E+03  0.47000000000E+01 0.  1.
         11    1    4    4    0    0  0.75488961178E+02 -0.44791267475E+02 -0.93109449566E+02  0.12796175405E+03  0.00000000000E+00 0. -1.
        -12    1    4    4    0    0 -0.15385194705E+02  0.39557642473E+01 -0.26771706960E+01  0.16109609860E+02  0.00000000000E+00 0.  1.
</event>
<event>
12    1  0.8416569E-002  0.2162019E+03  0.7818608E-02  0.1139072E+00
         21   -1    0    0  501  502  0.00000000000E+00  0.00000000000E+00  0.12650500569E+03  0.12650500569E+03  0.00000000000E+00 0. -1.
         21   -1    0    0  502  503 -0.00000000000E+00 -0.00000000000E+00 -0.43033723716E+03  0.43033723716E+03  0.00000000000E+00 0. -1.
         -6    2    1    2    0  503 -0.56655376310E+02  0.11171689476E+03 -0.26903980165E+03  0.33785869339E+03  0.16147936581E+03 0.  0.
        -24    2    3    3    0    0  0.18624642561E+02  0.97129594328E+02 -0.13780502773E+03  0.18579118712E+03  0.75809657297E+02 0.  0.
          6    2    1    2  501    0  0.56655376310E+02 -0.11171689476E+03 -0.34792429815E+02  0.21898354946E+03  0.17621800567E+03 0.  0.
         24    2    5    5    0    0  0.78631079126E+02 -0.80615055907E+02  0.32151203854E+02  0.14182270458E+03  0.79989660463E+02 0.  0.
          5    1    5    5  501    0 -0.21975702816E+02 -0.31101838857E+02 -0.66943633669E+02  0.77160844885E+02  0.47000000000E+01 0. -1.
        -11    1    6    6    0    0  0.26907127440E+02 -0.10488265600E+02 -0.24513594710E+02  0.37880252744E+02  0.00000000000E+00 0.  1.
         12    1    6    6    0    0  0.51723951687E+02 -0.70126790307E+02  0.56664798564E+02  0.10394245183E+03  0.00000000000E+00 0. -1.
         -5    1    3    3    0  503 -0.75280018871E+02  0.14587300435E+02 -0.13123477392E+03  0.15206750626E+03  0.47000000000E+01 0.  1.
         11    1    4    4    0    0 -0.27576060026E+02  0.57331557707E+02 -0.68940309625E+02  0.93808916883E+02  0.00000000000E+00 0. -1.
        -12    1    4    4    0    0  0.46200702587E+02  0.39798036621E+02 -0.68864718110E+02  0.91982270241E+02  0.00000000000E+00 0.  1.
</event>
<event>
12    1  0.8416569E-002  0.1779535E+03  0.7818608E-02  0.1170263E+00
         21   -1    0    0  501  502  0.00000000000E+00  0.00000000000E+00  0.31357768526E+02  0.31357768526E+02  0.00000000000E+00 0. -1.
         21   -1    0    0  502  503 -0.00000000000E+00 -0.00000000000E+00 -0.11980495933E+04  0.11980495933E+04  0.00000000000E+00 0. -1.
         -6    2    1    2    0  503 -0.36344412972E+02 -0.17409122358E+02 -0.83634215133E+03  0.85506469479E+03  0.17333044822E+03 0.  0.
        -24    2    3    3    0    0  0.12229992421E+02 -0.47366605025E+02 -0.71016936582E+03  0.71650573466E+03  0.81527735574E+02 0.  0.
          6    2    1    2  501    0  0.36344412972E+02  0.17409122358E+02 -0.33034967348E+03  0.37434266708E+03  0.17139875067E+03 0.  0.
         24    2    5    5    0    0  0.61706020095E+02  0.57332528036E+02 -0.28799963852E+03  0.31068180863E+03  0.80527900386E+02 0.  0.
          5    1    5    5  501    0 -0.25361607122E+02 -0.39923405678E+02 -0.42350034959E+02  0.63660858444E+02  0.47000000000E+01 0. -1.
        -13    1    6    6    0    0  0.62840941345E+00  0.71572078034E+01 -0.16054757382E+03  0.16070825735E+03  0.00000000000E+00 0.  1.
         14    1    6    6    0    0  0.61077610681E+02  0.50175320233E+02 -0.12745206470E+03  0.14997355128E+03  0.00000000000E+00 0. -1.
         -5    1    3    3    0  503 -0.48574405393E+02  0.29957482667E+02 -0.12617278551E+03  0.13855896012E+03  0.47000000000E+01 0.  1.
         13    1    4    4    0    0  0.63006575107E+01 -0.46255052528E+02 -0.16972916040E+03  0.17603186093E+03  0.00000000000E+00 0. -1.
        -14    1    4    4    0    0  0.59293349100E+01 -0.11115524971E+01 -0.54044020542E+03  0.54047387374E+03  0.00000000000E+00 0.  1.
</event>
<event>
12    1  0.8416569E-002  0.1830045E+03  0.7818608E-02  0.1166557E+00
         21   -1    0    0  503  502  0.00000000000E+00  0.00000000000E+00  0.93598470709E+02  0.93598470709E+02  0.00000000000E+00 0.  1.
         21   -1    0    0  501  503 -0.00000000000E+00 -0.00000000000E+00 -0.43052651918E+03  0.43052651918E+03  0.00000000000E+00 0. -1.
          6    2    1    2  501    0  0.43789059713E+02  0.10795585175E+02 -0.28289549954E+03  0.33331055628E+03  0.17038790114E+03 0.  0.
         24    2    3    3    0    0 -0.27019095108E+02 -0.91951013500E+01 -0.76877368204E+02  0.11449789033E+03  0.79906543910E+02 0.  0.
         -6    2    1    2    0  502 -0.43789059713E+02 -0.10795585175E+02 -0.54032548926E+02  0.19081443361E+03  0.17736010070E+03 0.  0.
        -24    2    5    5    0    0 -0.28597434324E+02  0.22664667452E+02 -0.84084016258E+02  0.14311165930E+03  0.10990598181E+03 0.  0.
          5    1    3    3  501    0  0.70808154821E+02  0.19990686525E+02 -0.20601813134E+03  0.21881266594E+03  0.47000000000E+01 0. -1.
        -13    1    4    4    0    0  0.20437789747E+02 -0.72578011728E+01  0.26676720514E+01  0.21851668169E+02  0.00000000000E+00 0.  1.
         14    1    4    4    0    0 -0.47456884855E+02 -0.19373001772E+01 -0.79545040256E+02  0.92646222165E+02  0.00000000000E+00 0. -1.
         -5    1    5    5    0  502 -0.15191625389E+02 -0.33460252626E+02  0.30051467333E+02  0.47702774308E+02  0.47000000000E+01 0.  1.
         11    1    6    6    0    0 -0.11973307050E+02  0.35293194718E+02  0.16229111669E+02  0.40649154243E+02  0.00000000000E+00 0. -1.
        -12    1    6    6    0    0 -0.16624127274E+02 -0.12628527266E+02 -0.10031312793E+03  0.10246250506E+03  0.00000000000E+00 0.  1.
</event>
<event>
12    1  0.8416569E-002  0.2387280E+03  0.7818608E-02  0.1120760E+00
         21   -1    0    0  501  502  0.00000000000E+00  0.00000000000E+00  0.10217233193E+03  0.10217233193E+03  0.00000000000E+00 0.  1.
         21   -1    0    0  502  503 -0.00000000000E+00 -0.00000000000E+00 -0.61204538811E+03  0.61204538811E+03  0.00000000000E+00 0. -1.
         -6    2    1    2    0  503  0.13904967646E+03  0.89583992457E+02 -0.36249632097E+03  0.43366299036E+03  0.17117214219E+03 0.  0.
        -24    2    3    3    0    0 -0.21646026321E+00  0.48723094099E+02 -0.14403662166E+03  0.17134371909E+03  0.78981864633E+02 0.  0.
          6    2    1    2  501    0 -0.13904967646E+03 -0.89583992457E+02 -0.14737673522E+03  0.28055472968E+03  0.17213642856E+03 0.  0.
         24    2    5    5    0    0 -0.98985957411E+02 -0.12946208415E+03 -0.12274981040E+03  0.21871672190E+03  0.78808866799E+02 0.  0.
          5    1    5    5  501    0 -0.40063719049E+02  0.39878091694E+02 -0.24626924813E+02  0.61838007786E+02  0.47000000000E+01 0. -1.
        -13    1    6    6    0    0 -0.99558725711E+02 -0.99563241388E+02 -0.68064887594E+02  0.15638928296E+03  0.00000000000E+00 0.  1.
         14    1    6    6    0    0  0.57276830013E+00 -0.29898842763E+02 -0.54684922809E+02  0.62327438939E+02  0.00000000000E+00 0. -1.
         -5    1    3    3    0  503  0.13926613672E+03  0.40860898358E+02 -0.21845969931E+03  0.26231927126E+03  0.47000000000E+01 0.  1.
         13    1    4    4    0    0 -0.24240253466E+02  0.86692439640E+01 -0.11147169348E+03  0.11440578712E+03  0.00000000000E+00 0. -1.
        -14    1    4    4    0    0  0.24023793203E+02  0.40053850135E+02 -0.32564928179E+02  0.56937931977E+02  0.00000000000E+00 0.  1.
</event>
<event>
12    1  0.8416569E-002  0.2120892E+03  0.7818608E-02  0.1140583E+00
         21   -1    0    0  503  502  0.00000000000E+00  0.00000000000E+00  0.41897173648E+03  0.41897173648E+03  0.00000000000E+00 0.  1.
         21   -1    0    0  501  503 -0.00000000000E+00 -0.00000000000E+00 -0.14420754402E+03  0.14420754402E+03  0.00000000000E+00 0. -1.
          6    2    1    2  501    0  0.48220683759E+02 -0.10637659001E+03 -0.73753143622E+01  0.21221741490E+03  0.17703282938E+03 0.  0.
         24    2    3    3    0    0  0.24232409513E+02 -0.15897923946E+01  0.42781821241E+02  0.93501204933E+02  0.79513860330E+02 0.  0.
         -6    2    1    2    0  502 -0.48220683759E+02  0.10637659001E+03  0.28213950683E+03  0.35096186561E+03  0.17300380502E+03 0.  0.
        -24    2    5    5    0    0 -0.35371948361E+02  0.13306657225E+03  0.15992028708E+03  0.22511643332E+03  0.78390196749E+02 0.  0.
          5    1    3    3  501    0  0.23988274246E+02 -0.10478679762E+03 -0.50157135603E+02  0.11871620996E+03  0.47000000000E+01 0. -1.
        -13    1    4    4    0    0 -0.21285812510E+02  0.22031093153E+02  0.84167671479E+01  0.31769432619E+02  0.00000000000E+00 0.  1.
         14    1    4    4    0    0  0.45518222023E+02 -0.23620885547E+02  0.34365054093E+02  0.61731772314E+02  0.00000000000E+00 0. -1.
         -5    1    5    5    0  502 -0.12848735398E+02 -0.26689982242E+02  0.12221921974E+03  0.12584543229E+03  0.47000000000E+01 0.  1.
         11    1    6    6    0    0 -0.78822893386E+01 -0.65661871073E+01  0.32552275907E+02  0.34130572293E+02  0.00000000000E+00 0. -1.
        -12    1    6    6    0    0 -0.27489659022E+02  0.13963275936E+03  0.12736801118E+03  0.19098586102E+03  0.00000000000E+00 0.  1.
</event>
<event>
12    1  0.8416569E-002  0.1909045E+03  0.7818608E-02  0.1158553E+00
         21   -1    0    0  501  502  0.00000000000E+00  0.00000000000E+00  0.16168751516E+03  0.16168751516E+03  0.00000000000E+00 0.  1.
         21   -1    0    0  502  503 -0.00000000000E+00 -0.00000000000E+00 -0.45682925368E+03  0.45682925368E+03  0.00000000000E+00 0.  1.
         -6    2    1    2    0  503 -0.63971972730E+01  0.83294156342E+02 -0.37065384957E+03  0.41692782335E+03  0.17165573999E+03 0.  0.
        -24    2    3    3    0    0 -0.63164712367E+02  0.78299700891E+02 -0.29680555315E+03  0.32352998484E+03  0.80358513309E+02 0.  0.
          6    2    1    2  501    0  0.63971972730E+01 -0.83294156342E+02  0.75512111050E+02  0.20158894549E+03  0.16720401734E+03 0.  0.
         24    2    5    5    0    0 -0.31992600349E+02 -0.23840730496E+02 -0.10814732726E+02  0.89862044689E+02  0.79789233133E+02 0.  0.
          5    1    5    5  501    0  0.38389797622E+02 -0.59453425846E+02  0.86326843776E+02  0.11172690080E+03  0.47000000000E+01 0. -1.
        -11    1    6    6    0    0 -0.40186215866E+01 -0.13605795091E+02  0.33549254630E+02  0.36425533157E+02  0.00000000000E+00 0.  1.
         12    1    6    6    0    0 -0.27973978763E+02 -0.10234935405E+02 -0.44363987356E+02  0.53436511532E+02  0.00000000000E+00 0. -1.
         -5    1    3    3    0  503  0.56767515094E+02  0.49944554509E+01 -0.73848296419E+02  0.93397838515E+02  0.47000000000E+01 0.  1.
         13    1    4    4    0    0 -0.36207044660E+02  0.74122200336E+02 -0.12628263936E+03  0.15083884005E+03  0.00000000000E+00 0. -1.
        -14    1    4    4    0    0 -0.26957667707E+02  0.41775005556E+01 -0.17052291379E+03  0.17269114478E+03  0.00000000000E+00 0.  1.
</event>
<event>
12    1  0.8416569E-002  0.1885919E+03  0.7818608E-02  0.1159850E+00
         21   -1    0    0  501  502  0.00000000000E+00  0.00000000000E+00  0.91253819667E+02  0.91253819667E+02  0.00000000000E+00 0.  1.
         21   -1    0    0  502  503 -0.00000000000E+00 -0.00000000000E+00 -0.90370858571E+03  0.90370858571E+03  0.00000000000E+00 0.  1.
         -6    2    1    2    0  503 -0.65199186359E+02 -0.42759850201E+02 -0.78199222259E+03  0.80441205143E+03  0.17171946193E+03 0.  0.
        -24    2    3    3    0    0 -0.41266520469E+02 -0.90922896369E+02 -0.63188084582E+03  0.64488786220E+03  0.81468108531E+02 0.  0.
          6    2    1    2  501    0  0.65199186359E+02  0.42759850201E+02 -0.30462543451E+02  0.19055035395E+03  0.17117865563E+03 0.  0.
         24    2    5    5    0    0  0.95222387966E+02  0.55149862112E+02  0.12727221893E+02  0.13630691323E+03  0.79427841197E+02 0.  0.
          5    1    5    5  501    0 -0.30023201606E+02 -0.12390011911E+02 -0.43189765345E+02  0.54243440713E+02  0.47000000000E+01 0. -1.
        -11    1    6    6    0    0 -0.25736525469E+01  0.44882310396E+01  0.24959806028E+02  0.25490386860E+02  0.00000000000E+00 0.  1.
         12    1    6    6    0    0  0.97796040512E+02  0.50661631072E+02 -0.12232584135E+02  0.11081652637E+03  0.00000000000E+00 0. -1.
         -5    1    3    3    0  503 -0.23932665890E+02  0.48163046168E+02 -0.15011137678E+03  0.15952418923E+03  0.47000000000E+01 0.  1.
         11    1    4    4    0    0 -0.59655962790E+02 -0.44912995979E+02 -0.29115711667E+03  0.30058023503E+03  0.00000000000E+00 0. -1.
        -12    1    4    4    0    0  0.18389442321E+02 -0.46009900389E+02 -0.34072372915E+03  0.34430762717E+03  0.00000000000E+00 0.  1.
</event>
<event>
12    1  0.8416569E-002  0.2272110E+03  0.7818608E-02  0.1128653E+00
         21   -1    0    0  503  502  0.00000000000E+00  0.00000000000E+00  0.13691852546E+03  0.13691852546E+03  0.00000000000E+00 0.  1.
         21   -1    0    0  501  503 -0.00000000000E+00 -0.00000000000E+00 -0.94410907106E+03  0.94410907106E+03  0.00000000000E+00 0. -1.
          6    2    1    2  501    0 -0.14105225943E+03  0.45587714708E+02 -0.82268193143E+03  0.85348134847E+03  0.17219428639E+03 0.  0.
         24    2    3    3    0    0 -0.63822856875E+02 -0.11609004267E+02 -0.62610764050E+03  0.63462206232E+03  0.80785261340E+02 0.  0.
         -6    2    1    2    0  502  0.14105225943E+03 -0.45587714708E+02  0.15491385826E+02  0.22754624804E+03  0.17193990910E+03 0.  0.
        -24    2    5    5    0    0  0.10112072802E+03 -0.78386440160E+02 -0.35619281543E+02  0.15471305567E+03  0.79357171956E+02 0.  0.
          5    1    3    3  501    0 -0.77229402558E+02  0.57196718974E+02 -0.19657429093E+03  0.21885928616E+03  0.47000000000E+01 0. -1.
        -11    1    4    4    0    0 -0.34006556855E+02 -0.10068854304E+02 -0.77803041645E+02  0.85505210516E+02  0.00000000000E+00 0.  1.
         12    1    4    4    0    0 -0.29816300020E+02 -0.15401499626E+01 -0.54830459885E+03  0.54911685180E+03  0.00000000000E+00 0. -1.
         -5    1    5    5    0  502  0.39931531417E+02  0.32798725453E+02  0.51110667369E+02  0.72833192375E+02  0.47000000000E+01 0.  1.
         13    1    6    6    0    0  0.31194799947E+02 -0.72668750492E+02 -0.86670601399E+01  0.79554891573E+02  0.00000000000E+00 0. -1.
        -14    1    6    6    0    0  0.69925928069E+02 -0.57176896687E+01 -0.26952221403E+02  0.75158164094E+02  0.00000000000E+00 0.  1.
</event>
<event>
12    1  0.8416569E-002  0.1799017E+03  0.7818608E-02  0.1168100E+00
         21   -1    0    0  503  502  0.00000000000E+00  0.00000000000E+00  0.74102178147E+02  0.74102178147E+02  0.00000000000E+00 0. -1.
         21   -1    0    0  501  503 -0.00000000000E+00 -0.00000000000E+00 -0.46673230935E+03  0.46673230935E+03  0.00000000000E+00 0. -1.
          6    2    1    2  501    0  0.50392833766E+02  0.73718257726E+01 -0.26668919649E+03  0.32123086803E+03  0.17167516284E+03 0.  0.
         24    2    3    3    0    0 -0.14488033004E+02  0.14398878550E+02 -0.11423259822E+02  0.57712946875E+02  0.52754739770E+02 0.  0.
         -6    2    1    2    0  502 -0.50392833766E+02 -0.73718257726E+01 -0.12594093472E+03  0.21960361948E+03  0.17254231116E+03 0.  0.
        -24    2    5    5    0    0 -0.52218057821E+02  0.55380925882E+02 -0.10613769433E+03  0.15360742555E+03  0.80847130512E+02 0.  0.
          5    1    3    3  501    0  0.64880866771E+02 -0.70270527769E+01 -0.25526593667E+03  0.26351792115E+03  0.47000000000E+01 0. -1.
        -11    1    4    4    0    0 -0.18629861663E+02  0.12321897268E+02 -0.30655926081E+02  0.37930023751E+02  0.00000000000E+00 0.  1.
         12    1    4    4    0    0  0.41418286588E+01  0.20769812815E+01  0.19232666260E+02  0.19782923124E+02  0.00000000000E+00 0. -1.
         -5    1    5    5    0  502  0.18252240543E+01 -0.62752751655E+02 -0.19803240387E+02  0.65996193927E+02  0.47000000000E+01 0.  1.
         11    1    6    6    0    0 -0.38343804840E+02 -0.11363756426E+02 -0.56751298071E+02  0.69426883572E+02  0.00000000000E+00 0. -1.
        -12    1    6    6    0    0 -0.13874252981E+02  0.66744682308E+02 -0.49386396258E+02  0.84180541977E+02  0.00000000000E+00 0.  1.
</event>
<event>
12    1  0.8416569E-002  0.2633711E+03  0.7818608E-02  0.1105154E+00
         21   -1    0    0  501  502  0.00000000000E+00  0.00000000000E+00  0.29932987216E+03  0.29932987216E+03  0.00000000000E+00 0.  1.
         21   -1    0    0  502  503 -0.00000000000E+00 -0.00000000000E+00 -0.30284177051E+03  0.30284177051E+03  0.00000000000E+00 0. -1.
         -6    2    1    2    0  503 -0.52995704334E+01  0.20027229527E+03 -0.14777479126E+03  0.30199625688E+03  0.17095985651E+03 0.  0.
        -24    2    3    3    0    0  0.41410860421E+02  0.18047259871E+03 -0.10811674481E+03  0.23743045337E+03  0.10197436655E+03 0.  0.
          6    2    1    2  501    0  0.52995704334E+01 -0.20027229527E+03  0.14426289291E+03  0.30017538579E+03  0.17075245903E+03 0.  0.
         24    2    5    5    0    0 -0.26992166382E+02 -0.14253858216E+03  0.16163816013E+03  0.23161936631E+03  0.80466213966E+02 0.  0.
          5    1    5    5  501    0  0.32291736816E+02 -0.57733713106E+02 -0.17375267220E+02  0.68556019477E+02  0.47000000000E+01 0. -1.
        -13    1    6    6    0    0  0.27212016490E+02 -0.71605787644E+02  0.72900544829E+02  0.10574673566E+03  0.00000000000E+00 0.  1.
         14    1    6    6    0    0 -0.54204182873E+02 -0.70932794518E+02  0.88737615299E+02  0.12587263065E+03  0.00000000000E+00 0. -1.
         -5    1    3    3    0  503 -0.46710430855E+02  0.19799696560E+02 -0.39658046454E+02  0.64565803511E+02  0.47000000000E+01 0.  1.
         11    1    4    4    0    0  0.25583304018E+02  0.16314289167E+03 -0.46595586475E+02  0.17158454833E+03  0.00000000000E+00 0. -1.
        -12    1    4    4    0    0  0.15827556403E+02  0.17329707038E+02 -0.61521158332E+02  0.65845905038E+02  0.00000000000E+00 0.  1.
</event>
<event>
12    1  0.8416569E-002  0.2574900E+03  0.7818608E-02  0.1109831E+00
         21   -1    0    0  501  502  0.00000000000E+00  0.00000000000E+00  0.91942510880E+02  0.91942510880E+02  0.00000000000E+00 0.  1.
         21   -1    0    0  502  503 -0.00000000000E+00 -0.00000000000E+00 -0.11490339026E+04  0.11490339026E+04  0.00000000000E+00 0. -1.
         -6    2    1    2    0  503  0.17331845942E+03 -0.55112616037E+02 -0.91157511313E+03  0.94521286924E+03  0.17141030450E+03 0.  0.
        -24    2    3    3    0    0  0.13623943132E+03  0.34779260803E+02 -0.52999332137E+03  0.55140814904E+03  0.58200055944E+02 0.  0.
          6    2    1    2  501    0 -0.17331845942E+03  0.55112616037E+02 -0.14551627863E+03  0.29576354427E+03  0.18227560987E+03 0.  0.
         24    2    5    5    0    0 -0.13445902246E+03  0.10492144163E+02 -0.17047364028E+03  0.23137408666E+03  0.79267850610E+02 0.  0.
          5    1    5    5  501    0 -0.38859436956E+02  0.44620471874E+02  0.24957361649E+02  0.64389457610E+02  0.47000000000E+01 0. -1.
        -11    1    6    6    0    0 -0.24338228799E+02 -0.29392017017E+02 -0.54649786571E+02  0.66654626378E+02  0.00000000000E+00 0.  1.
         12    1    6    6    0    0 -0.11012079366E+03  0.39884161180E+02 -0.11582385371E+03  0.16471946028E+03  0.00000000000E+00 0. -1.
         -5    1    3    3    0  503  0.37079028096E+02 -0.89891876840E+02 -0.38158179176E+03  0.39380472020E+03  0.47000000000E+01 0.  1.
         13    1    4    4    0    0  0.12082902396E+03  0.25488572736E+02 -0.50896573846E+03  0.52373222480E+03  0.00000000000E+00 0. -1.
        -14    1    4    4    0    0  0.15410407362E+02  0.92906880664E+01 -0.21027582910E+02  0.27675924245E+02  0.00000000000E+00 0.  1.
</event>
<event>
12    1  0.8416569E-002  0.2997793E+03  0.7818608E-02  0.1085382E+00
         21   -1    0    0  501  502  0.00000000000E+00  0.00000000000E+00  0.77998700407E+03  0.77998700407E+03  0.00000000000E+00 0.  1.
         21   -1    0    0  502  503 -0.00000000000E+00 -0.00000000000E+00 -0.51729825557E+03  0.51729825557E+03  0.00000000000E+00 0.  1.
         -6    2    1    2    0  503  0.23393115270E+03  0.74993328547E+02 -0.44057352155E+03  0.53289084375E+03  0.17181338694E+03 0.  0.
        -24    2    3    3    0    0  0.10251002407E+03  0.82395932484E+02 -0.31587602371E+03  0.35151315063E+03  0.80538425522E+02 0.  0.
          6    2    1    2  501    0 -0.23393115270E+03 -0.74993328547E+02  0.70326227005E+03  0.76439441589E+03  0.17138616934E+03 0.  0.
         24    2    5    5    0    0 -0.21766546005E+03 -0.59127224041E+02  0.70107057950E+03  0.74108777441E+03  0.82685251552E+02 0.  0.
          5    1    5    5  501    0 -0.16265692650E+02 -0.15866104506E+02  0.21916905528E+01  0.23306641479E+02  0.47000000000E+01 0. -1.
        -13    1    6    6    0    0 -0.14338272284E+03 -0.78465751046E+02  0.48189869697E+03  0.50886327578E+03  0.00000000000E+00 0.  1.
         14    1    6    6    0    0 -0.74282737211E+02  0.19338527005E+02  0.21917188253E+03  0.23222449864E+03  0.00000000000E+00 0. -1.
         -5    1    3    3    0  503  0.13142112862E+03 -0.74026039371E+01 -0.12469749784E+03  0.18137769312E+03  0.47000000000E+01 0.  1.
         11    1    4    4    0    0  0.52206379716E+02  0.30927447412E+02 -0.23740501335E+03  0.24503704505E+03  0.00000000000E+00 0. -1.
        -12    1    4    4    0    0  0.50303644359E+02  0.51468485072E+02 -0.78471010363E+02  0.10647610558E+03  0.00000000000E+00 0.  1.
</event>
<event>
12    1  0.8416569E-002  0.2415414E+03  0.7818608E-02  0.1118926E+00
         21   -1    0    0  501  502  0.00000000000E+00  0.00000000000E+00  0.56239710782E+03  0.56239710782E+03  0.00000000000E+00 0.  1.
         21   -1    0    0  502  503 -0.00000000000E+00 -0.00000000000E+00 -0.10337221469E+03  0.10337221469E+03  0.00000000000E+00 0.  1.
         -6    2    1    2    0  503  0.16787529744E+03  0.24290843963E+02  0.22360216518E+03  0.32915067101E+03  0.17195951664E+03 0.  0.
        -24    2    3    3    0    0  0.14063219912E+03  0.18573281230E+02  0.24486181161E+03  0.29381033293E+03  0.79024190897E+02 0.  0.
          6    2    1    2  501    0 -0.16787529744E+03 -0.24290843963E+02  0.23542272795E+03  0.33661865149E+03  0.17063439016E+03 0.  0.
         24    2    5    5    0    0 -0.17282354097E+03  0.39339062333E+01  0.14982943973E+03  0.24623379310E+03  0.91097573644E+02 0.  0.
          5    1    5    5  501    0  0.49482435309E+01 -0.28224750196E+02  0.85593288226E+02  0.90384858395E+02  0.47000000000E+01 0. -1.
        -13    1    6    6    0    0 -0.21463473492E+02 -0.32579828709E+02  0.38604629409E+02  0.54885729883E+02  0.00000000000E+00 0.  1.
         14    1    6    6    0    0 -0.15136006748E+03  0.36513734942E+02  0.11122481032E+03  0.19134806322E+03  0.00000000000E+00 0. -1.
         -5    1    3    3    0  503  0.27243098323E+02  0.57175627334E+01 -0.21259646425E+02  0.35340338085E+02  0.47000000000E+01 0.  1.
         13    1    4    4    0    0  0.74622274361E+02 -0.17634644644E+02  0.71650712133E+02  0.10494421886E+03  0.00000000000E+00 0. -1.
        -14    1    4    4    0    0  0.66009924757E+02  0.36207925874E+02  0.17321109948E+03  0.18886611407E+03  0.00000000000E+00 0.  1.
</event>
<event>
12    1  0.8416569E-002  0.1938327E+03  0.7818608E-02  0.1155091E+00
         21   -1    0    0  501  502  0.00000000000E+00  0.00000000000E+00  0.16504174115E+03  0.16504174115E+03  0.00000000000E+00 0.  1.
         21   -1    0    0  502  503 -0.00000000000E+00 -0.00000000000E+00 -0.38213605329E+03  0.38213605329E+03  0.00000000000E+00 0.  1.
         -6    2    1    2    0  503 -0.28462566877E+02 -0.82730758866E+02 -0.28259615634E+03  0.34257673441E+03  0.17275339420E+03 0.  0.
        -24    2    3    3    0    0  0.43458591797E+02 -0.69720149645E+02 -0.13287097185E+03  0.17589845182E+03  0.80845666086E+02 0.  0.
          6    2    1    2  501    0  0.28462566877E+02  0.82730758866E+02  0.65501844199E+02  0.20460106002E+03  0.17296417546E+03 0.  0.
         24    2    5    5    0    0  0.53547928539E+01  0.62370018590E+02  0.11008819991E+03  0.15020839434E+03  0.80774110609E+02 0.  0.
          5    1    5    5  501    0  0.23107774023E+02  0.20360740276E+02 -0.44586355709E+02  0.54392665685E+02  0.47000000000E+01 0. -1.
        -11    1    6    6    0    0  0.33187887445E+02  0.66241767257E+02  0.79908965750E+02  0.10897178722E+03  0.00000000000E+00 0.  1.
         12    1    6    6    0    0 -0.27833094591E+02 -0.38717486667E+01  0.30179234157E+02  0.41236607118E+02  0.00000000000E+00 0. -1.
         -5    1    3    3    0  503 -0.71921158674E+02 -0.13010609221E+02 -0.14972518449E+03  0.16667828259E+03  0.47000000000E+01 0.  1.
         11    1    4    4    0    0  0.16035526252E+02 -0.27900932697E+02  0.18111480476E+01  0.32231667732E+02  0.00000000000E+00 0. -1.
        -12    1    4    4    0    0  0.27423065545E+02 -0.41819216947E+02 -0.13468211990E+03  0.14366678409E+03  0.00000000000E+00 0.  1.
</event>
<event>
12    1  0.8416569E-002  0.1818240E+03  0.7818608E-02  0.1166534E+00
         21   -1    0    0  503  502  0.00000000000E+00  0.00000000000E+00  0.10132298000E+04  0.10132298000E+04  0.00000000000E+00 0. -1.
         21   -1    0    0  501  503 -0.00000000000E+00 -0.00000000000E+00 -0.45733675709E+02  0.45733675709E+02  0.00000000000E+00 0. -1.
          6    2    1    2  501    0  0.15061502829E+02 -0.53399120330E+02  0.19833970660E+03  0.26906987702E+03  0.17315208514E+03 0.  0.
         24    2    3    3    0    0 -0.50195058643E+02 -0.54520197343E+00  0.13618726634E+03  0.16448990126E+03  0.77395832870E+02 0.  0.
         -6    2    1    2    0  502 -0.15061502829E+02  0.53399120330E+02  0.76915641767E+03  0.78989359867E+03  0.17103212402E+03 0.  0.
        -24    2    5    5    0    0 -0.78095550903E+01  0.59553759777E+02  0.23031670543E+03  0.25094944959E+03  0.79512275753E+02 0.  0.
          5    1    3    3  501    0  0.65256561472E+02 -0.52853918357E+02  0.62152440257E+02  0.10457997576E+03  0.47000000000E+01 0. -1.
        -13    1    4    4    0    0 -0.28413262569E+02 -0.15282586048E+02  0.13430272689E+03  0.13812347149E+03  0.00000000000E+00 0.  1.
         14    1    4    4    0    0 -0.21781796074E+02  0.14737384074E+02  0.18845394437E+01  0.26366429764E+02  0.00000000000E+00 0. -1.
         -5    1    5    5    0  502 -0.72519477386E+01 -0.61546394465E+01  0.53883971225E+03  0.53894414908E+03  0.47000000000E+01 0.  1.
         11    1    6    6    0    0 -0.14036672111E+02  0.96768243862E+01  0.17645761502E+03  0.17727932478E+03  0.00000000000E+00 0. -1.
        -12    1    6    6    0    0  0.62271170205E+01  0.49876935390E+02  0.53859090404E+02  0.73670124810E+02  0.00000000000E+00 0.  1.
</event>
<event>
12    1  0.8416569E-002  0.2020923E+03  0.7818608E-02  0.1148130E+00
         21   -1    0    0  503  502  0.00000000000E+00  0.00000000000E+00  0.48354402355E+03  0.48354402355E+03  0.00000000000E+00 0.  1.
         21   -1    0    0  501  503 -0.00000000000E+00 -0.00000000000E+00 -0.25791224621E+03  0.25791224621E+03  0.00000000000E+00 0. -1.
          6    2    1    2  501    0  0.41804187774E+02 -0.95598162870E+02 -0.19152411252E+03  0.27792595577E+03  0.17226361298E+03 0.  0.
         24    2    3    3    0    0  0.89511105889E+02 -0.90656319181E+02 -0.16392555706E+03  0.22239090271E+03  0.79720255068E+02 0.  0.
         -6    2    1    2    0  502 -0.41804187774E+02  0.95598162870E+02  0.41715588985E+03  0.46353031399E+03  0.17307430974E+03 0.  0.
        -24    2    5    5    0    0  0.41447396500E+02  0.62120065223E+02  0.26003720213E+03  0.28253312800E+03  0.81417643940E+02 0.  0.
          5    1    3    3  501    0 -0.47706918115E+02 -0.49418436890E+01 -0.27598555460E+02  0.55535053061E+02  0.47000000000E+01 0. -1.
        -11    1    4    4    0    0  0.36439918414E+02 -0.89001458937E+02 -0.92920986807E+02  0.13372896895E+03  0.00000000000E+00 0.  1.
         12    1    4    4    0    0  0.53071187475E+02 -0.16548602440E+01 -0.71004570248E+02  0.88661933762E+02  0.00000000000E+00 0. -1.
         -5    1    5    5    0  502 -0.83251584274E+02  0.33478097647E+02  0.15711868772E+03  0.18099718599E+03  0.47000000000E+01 0.  1.
         13    1    6    6    0    0  0.45278512644E+02 -0.27938739785E+01  0.10136455903E+03  0.11105279495E+03  0.00000000000E+00 0. -1.
        -14    1    6    6    0    0 -0.38311161440E+01  0.64913939202E+02  0.15867264310E+03  0.17148033305E+03  0.00000000000E+00 0.  1.
</event>
<event>
12    1  0.8416569E-002  0.2336762E+03  0.7818608E-02  0.1124224E+00
         21   -1    0    0  501  502  0.00000000000E+00  0.00000000000E+00  0.30307458988E+03  0.30307458988E+03  0.00000000000E+00 0.  1.
         21   -1    0    0  502  503 -0.00000000000E+00 -0.00000000000E+00 -0.22274232457E+03  0.22274232457E+03  0.00000000000E+00 0.  1.
         -6    2    1    2    0  503  0.32563536326E+02 -0.15606688957E+03 -0.75588263832E+02  0.24559751724E+03  0.17084290130E+03 0.  0.
        -24    2    3    3    0    0 -0.51401930725E+00 -0.17048049916E+02  0.38943680954E+01  0.82012856452E+02  0.80125166450E+02 0.  0.
          6    2    1    2  501    0 -0.32563536326E+02  0.15606688957E+03  0.15592052915E+03  0.28021939721E+03  0.16968924906E+03 0.  0.
         24    2    5    5    0    0 -0.61855934598E+02  0.13913671347E+03  0.66445324556E+02  0.18444582207E+03  0.80125516804E+02 0.  0.
          5    1    5    5  501    0  0.29292398272E+02  0.16930176103E+02  0.89475204590E+02  0.95773575144E+02  0.47000000000E+01 0. -1.
        -13    1    6    6    0    0  0.13147641755E+02  0.18738370328E+02  0.30460827912E+02  0.38103136923E+02  0.00000000000E+00 0.  1.
         14    1    6    6    0    0 -0.75003576354E+02  0.12039834314E+03  0.35984496644E+02  0.14634268515E+03  0.00000000000E+00 0. -1.
         -5    1    3    3    0  503  0.33077555633E+02 -0.13901883966E+03 -0.79482631927E+02  0.16358466078E+03  0.47000000000E+01 0.  1.
         11    1    4    4    0    0  0.16130617385E+02 -0.45572041064E+02 -0.23620868584E+01  0.48400280974E+02  0.00000000000E+00 0. -1.
        -12    1    4    4    0    0 -0.16644636692E+02  0.28523991149E+02  0.62564549539E+01  0.33612575478E+02  0.00000000000E+00 0.  1.
</event>
<event>
12    1  0.8416569E-002  0.1803815E+03  0.7818608E-02  0.1168313E+00
         21   -1    0    0  503  502  0.00000000000E+00  0.00000000000E+00  0.10908372502E+04  0.10908372502E+04  0.00000000000E+00 0.  1.
         21   -1    0    0  501  503 -0.00000000000E+00 -0.00000000000E+00 -0.46746664273E+02  0.46746664273E+02  0.00000000000E+00 0.  1.
          6    2    1    2  501    0 -0.43551308503E+02  0.82332471526E+01  0.17722225110E+03  0.25287389775E+03  0.17485130553E+03 0.  0.
         24    2    3    3    0    0  0.18961907415E+02  0.39105826775E+02  0.40014015954E+02  0.98895950856E+02  0.79312470661E+02 0.  0.
         -6    2    1    2    0  502  0.43551308503E+02 -0.82332471526E+01  0.86686833480E+03  0.88471001670E+03  0.17113328414E+03 0.  0.
        -24    2    5    5    0    0  0.88402917539E+02  0.10947573385E+02  0.48026168558E+03  0.49500966780E+03  0.80301677374E+02 0.  0.
          5    1    3    3  501    0 -0.62513215918E+02 -0.30872579622E+02  0.13720823514E+03  0.15397794689E+03  0.47000000000E+01 0. -1.
        -13    1    4    4    0    0 -0.24290071008E+01  0.12709073256E+02 -0.23522068247E+02  0.26846011121E+02  0.00000000000E+00 0.  1.
         14    1    4    4    0    0  0.21390914516E+02  0.26396753519E+02  0.63536084201E+02  0.72049939735E+02  0.00000000000E+00 0. -1.
         -5    1    5    5    0  502 -0.44851609037E+02 -0.19180820538E+02  0.38660664922E+03  0.38970034890E+03  0.47000000000E+01 0.  1.
         11    1    6    6    0    0  0.46485265150E+02  0.22573197883E+02  0.10287975363E+03  0.11512894009E+03  0.00000000000E+00 0. -1.
        -12    1    6    6    0    0  0.41917652390E+02 -0.11625624498E+02  0.37738193195E+03  0.37988072771E+03  0.00000000000E+00 0.  1.
</event>
<event>
12    1  0.8416569E-002  0.1787425E+03  0.7818608E-02  0.1169127E+00
         21   -1    0    0  503  502  0.00000000000E+00  0.00000000000E+00  0.32613486416E+03  0.32613486416E+03  0.00000000000E+00 0. -1.
         21   -1    0    0  501  503 -0.00000000000E+00 -0.00000000000E+00 -0.31190495019E+03  0.31190495019E+03  0.00000000000E+00 0. -1.
          6    2    1    2  501    0 -0.47676266220E+02 -0.10820025087E+02 -0.25723570074E+03  0.31323966540E+03  0.17192667897E+03 0.  0.
         24    2    3    3    0    0  0.31111941447E+01  0.45593389805E+02 -0.19389029873E+03  0.21426204437E+03  0.78907154245E+02 0.  0.
         -6    2    1    2    0  502  0.47676266220E+02  0.10820025087E+02  0.27146561471E+03  0.32480014894E+03  0.17149768942E+03 0.  0.
        -24    2    5    5    0    0  0.92448383495E+02  0.25498743199E+02  0.15199712953E+03  0.19629016411E+03  0.78929155725E+02 0.  0.
          5    1    3    3  501    0 -0.50787460364E+02 -0.56413414892E+02 -0.63345402012E+02  0.98977621037E+02  0.47000000000E+01 0. -1.
        -11    1    4    4    0    0 -0.12900212097E+02  0.16636323268E+02 -0.38978081166E+01  0.21409708829E+02  0.00000000000E+00 0.  1.
         12    1    4    4    0    0  0.16011406242E+02  0.28957066537E+02 -0.18999249061E+03  0.19285233554E+03  0.00000000000E+00 0. -1.
         -5    1    5    5    0  502 -0.44772117275E+02 -0.14678718112E+02  0.11946848518E+03  0.12850998483E+03  0.47000000000E+01 0.  1.
         11    1    6    6    0    0 -0.11774694685E+02  0.68007482409E+01  0.37395280209E+01  0.14102399845E+02  0.00000000000E+00 0. -1.
        -12    1    6    6    0    0  0.10422307818E+03  0.18697994958E+02  0.14825760151E+03  0.18218776426E+03  0.00000000000E+00 0.  1.
</event>
<event>
12    1  0.8416569E-002  0.1780672E+03  0.7818608E-02  0.1170355E+00
         21   -1    0    0  503  502  0.00000000000E+00  0.00000000000E+00  0.10855281856E+03  0.10855281856E+03  0.00000000000E+00 0.  1.
         21   -1    0    0  501  503 -0.00000000000E+00 -0.00000000000E+00 -0.30739292724E+03  0.30739292724E+03  0.00000000000E+00 0.  1.
          6    2    1    2  501    0  0.23978352458E+02  0.24734454508E+02 -0.15137004931E+03  0.23165970193E+03  0.17194932696E+03 0.  0.
         24    2    3    3    0    0 -0.34329487162E+02 -0.20495270806E+02 -0.36570638116E+02  0.95107415154E+02  0.78162900604E+02 0.  0.
         -6    2    1    2    0  502 -0.23978352458E+02 -0.24734454508E+02 -0.47470059367E+02  0.18428604388E+03  0.17470313336E+03 0.  0.
        -24    2    5    5    0    0 -0.34866469342E+02  0.27491842938E+02  0.22826253258E+02  0.95912977827E+02  0.81894989866E+02 0.  0.
          5    1    3    3  501    0  0.58307839620E+02  0.45229725314E+02 -0.11479941119E+03  0.13655228677E+03  0.47000000000E+01 0. -1.
        -11    1    4    4    0    0 -0.37537591513E-01  0.27113672555E+02 -0.24256104464E+01  0.27221980723E+02  0.00000000000E+00 0.  1.
         12    1    4    4    0    0 -0.34291949571E+02 -0.47608943360E+02 -0.34145027669E+02  0.67885434430E+02  0.00000000000E+00 0. -1.
         -5    1    5    5    0  502  0.10888116884E+02 -0.52226297446E+02 -0.70296312626E+02  0.88373066050E+02  0.47000000000E+01 0.  1.
         11    1    6    6    0    0 -0.54186592075E+02 -0.45478728633E+01  0.54151486415E+01  0.54646077106E+02  0.00000000000E+00 0. -1.
        -12    1    6    6    0    0  0.19320122733E+02  0.32039715802E+02  0.17411104617E+02  0.41266900720E+02  0.00000000000E+00 0.  1.
</event>
<event>
12    1  0.8416569E-002  0.3936253E+03  0.7818608E-02  0.1046416E+00
         21   -1    0    0  503  502  0.00000000000E+00  0.00000000000E+00  0.25888967832E+03  0.25888967832E+03  0.00000000000E+00 0.  1.
         21   -1    0    0  501  503 -0.00000000000E+00 -0.00000000000E+00 -0.59836544426E+03  0.59836544426E+03  0.00000000000E+00 0. -1.
          6    2    1    2  501    0  0.24202001238E+03  0.25140469741E+03 -0.21645626550E+03  0.44921512164E+03  0.18210684326E+03 0.  0.
         24    2    3    3    0    0  0.15192124874E+03  0.54733620040E+02 -0.99480262657E+02  0.20324200293E+03  0.73042139321E+02 0.  0.
         -6    2    1    2    0  502 -0.24202001238E+03 -0.25140469741E+03 -0.12301950044E+03  0.40804000094E+03  0.17200243199E+03 0.  0.
        -24    2    5    5    0    0 -0.35292768317E+02 -0.94798593217E+02 -0.49404053235E+02  0.13840515643E+03  0.80516296980E+02 0.  0.
          5    1    3    3  501    0  0.90098763633E+02  0.19667107737E+03 -0.11697600284E+03  0.24597311870E+03  0.47000000000E+01 0. -1.
        -13    1    4    4    0    0  0.10329202232E+03  0.50277277221E+02 -0.10298681459E+03  0.15428327991E+03  0.00000000000E+00 0.  1.
         14    1    4    4    0    0  0.48629226427E+02  0.44563428187E+01  0.35065519344E+01  0.48958723029E+02  0.00000000000E+00 0. -1.
         -5    1    5    5    0  502 -0.20672724406E+03 -0.15660610420E+03 -0.73615447203E+02  0.26963484451E+03  0.47000000000E+01 0.  1.
         13    1    6    6    0    0 -0.15717817131E+02 -0.10052924155E+03 -0.57013995323E+02  0.11663521700E+03  0.00000000000E+00 0. -1.
        -14    1    6    6    0    0 -0.19574951186E+02  0.57306483334E+01  0.76099420880E+01  0.21769939431E+02  0.00000000000E+00 0.  1.
</event>
<event>
12    1  0.8416569E-002  0.2600817E+03  0.7818608E-02  0.1107229E+00
         21   -1    0    0  501  502  0.00000000000E+00  0.00000000000E+00  0.61982485994E+03  0.61982485994E+03  0.00000000000E+00 0. -1.
         21   -1    0    0  502  503 -0.00000000000E+00 -0.00000000000E+00 -0.10950604452E+03  0.10950604452E+03  0.00000000000E+00 0. -1.
         -6    2    1    2    0  503  0.19076131895E+03  0.35657354522E+02  0.22540875569E+03  0.34416797888E+03  0.17315069391E+03 0.  0.
        -24    2    3    3    0    0  0.75932151613E+02  0.41694775453E+02  0.36032675660E+02  0.12256568238E+03  0.78866005562E+02 0.  0.
          6    2    1    2  501    0 -0.19076131895E+03 -0.35657354522E+02  0.28491005973E+03  0.38516292558E+03  0.17180049293E+03 0.  0.
         24    2    5    5    0    0 -0.20053756284E+03 -0.73692772752E+01  0.28193109979E+03  0.35472028343E+03  0.77921204395E+02 0.  0.
          5    1    5    5  501    0  0.97762438825E+01 -0.28288077247E+02  0.29789599380E+01  0.30442642151E+02  0.47000000000E+01 0. -1.
        -11    1    6    6    0    0  0.25078294010E+01  0.93505628032E+01  0.49278103756E+01  0.10863035862E+02  0.00000000000E+00 0.  1.
         12    1    6    6    0    0 -0.20304539224E+03 -0.16719840078E+02  0.27700328941E+03  0.34385724757E+03  0.00000000000E+00 0. -1.
         -5    1    3    3    0  503  0.11482916734E+03 -0.60374209308E+01  0.18937608003E+03  0.22160229650E+03  0.47000000000E+01 0.  1.
         11    1    4    4    0    0 -0.86462302912E+01 -0.10442921385E+02 -0.58190672324E+01  0.14753760496E+02  0.00000000000E+00 0. -1.
        -12    1    4    4    0    0  0.84578381904E+02  0.52137696839E+02  0.41851742892E+02  0.10781192188E+03  0.00000000000E+00 0.  1.
</event>
<event>
12    1  0.8416569E-002  0.1776538E+03  0.7818608E-02  0.1170180E+00
         21   -1    0    0  503  502  0.00000000000E+00  0.00000000000E+00  0.44736178793E+03  0.44736178793E+03  0.00000000000E+00 0.  1.
         21   -1    0    0  501  503 -0.00000000000E+00 -0.00000000000E+00 -0.73798136386E+02  0.73798136386E+02  0.00000000000E+00 0.  1.
          6    2    1    2  501    0 -0.58884242633E+00  0.37159733372E+02  0.13111699297E+03  0.22079974392E+03  0.17372296494E+03 0.  0.
         24    2    3    3    0    0 -0.46043428900E+01  0.44379371934E+02  0.19147281519E+01  0.91248353885E+02  0.79573031085E+02 0.  0.
         -6    2    1    2    0  502  0.58884242633E+00 -0.37159733372E+02  0.24244665857E+03  0.30036018040E+03  0.17336280800E+03 0.  0.
        -24    2    5    5    0    0 -0.39268804812E+02 -0.31635657108E+02  0.24249037102E+03  0.25984796776E+03  0.78590918577E+02 0.  0.
          5    1    3    3  501    0  0.40155004637E+01 -0.72196385611E+01  0.12920226482E+03  0.12955139003E+03  0.47000000000E+01 0. -1.
        -13    1    4    4    0    0 -0.10342929332E+02  0.48300857458E+02  0.32993831632E+02  0.59401531496E+02  0.00000000000E+00 0.  1.
         14    1    4    4    0    0  0.57385864421E+01 -0.39214855242E+01 -0.31079103481E+02  0.31846822388E+02  0.00000000000E+00 0. -1.
         -5    1    5    5    0  502  0.39857647239E+02 -0.55240762642E+01 -0.43712442542E-01  0.40512212637E+02  0.47000000000E+01 0.  1.
         11    1    6    6    0    0 -0.45411283581E+02 -0.33491560448E+02  0.83790350973E+02  0.10101827663E+03  0.00000000000E+00 0. -1.
        -12    1    6    6    0    0  0.61424787687E+01  0.18559033394E+01  0.15870002004E+03  0.15882969113E+03  0.00000000000E+00 0.  1.
</event>
<event>
12    1  0.8416569E-002  0.2091082E+03  0.7818608E-02  0.1142408E+00
         21   -1    0    0  503  502  0.00000000000E+00  0.00000000000E+00  0.43206666159E+02  0.43206666159E+02  0.00000000000E+00 0. -1.
         21   -1    0    0  501  503 -0.00000000000E+00 -0.00000000000E+00 -0.10539898044E+04  0.10539898044E+04  0.00000000000E+00 0. -1.
          6    2    1    2  501    0  0.65033222739E+02 -0.99399539673E+02 -0.61822961030E+03  0.65242181847E+03  0.17127985760E+03 0.  0.
         24    2    3    3    0    0 -0.59282274307E+01 -0.99055161332E+02 -0.29594853607E+03  0.32238723420E+03  0.80628307112E+02 0.  0.
         -6    2    1    2    0  502 -0.65033222739E+02  0.99399539673E+02 -0.39255352791E+03  0.44477465206E+03  0.17209482935E+03 0.  0.
        -24    2    5    5    0    0 -0.27783991340E+02  0.13252855954E+03 -0.32012228332E+03  0.35672118880E+03  0.80224441390E+02 0.  0.
          5    1    3    3  501    0  0.70961450170E+02 -0.34437834078E+00 -0.32228107423E+03  0.33003458427E+03  0.47000000000E+01 0. -1.
        -11    1    4    4    0    0 -0.35835189600E+02 -0.15387731891E+02 -0.88614590806E+02  0.96816779590E+02  0.00000000000E+00 0.  1.
         12    1    4    4    0    0  0.29906962169E+02 -0.83667429441E+02 -0.20733394526E+03  0.22557045461E+03  0.00000000000E+00 0. -1.
         -5    1    5    5    0  502 -0.37249231399E+02 -0.33129019871E+02 -0.72431244597E+02  0.88053463256E+02  0.47000000000E+01 0.  1.
         11    1    6    6    0    0 -0.38338216095E+02  0.51103853024E+02 -0.20906667237E+03  0.21860991767E+03  0.00000000000E+00 0. -1.
        -12    1    6    6    0    0  0.10554224755E+02  0.81424706520E+02 -0.11105561095E+03  0.13811127114E+03  0.00000000000E+00 0.  1.
</event>
<event>
12    1  0.8416569E-002  0.1965969E+03  0.7818608E-02  0.1153403E+00
         21   -1    0    0  501  502  0.00000000000E+00  0.00000000000E+00  0.17273401193E+03  0.17273401193E+03  0.00000000000E+00 0.  1.
         21   -1    0    0  502  503 -0.00000000000E+00 -0.00000000000E+00 -0.28839918081E+03  0.28839918081E+03  0.00000000000E+00 0.  1.
         -6    2    1    2    0  503  0.59764748892E+02  0.70454453393E+02 -0.16988545245E+03  0.25719643845E+03  0.16956793856E+03 0.  0.
        -24    2    3    3    0    0 -0.28457761987E+02  0.33413783694E+02 -0.49943833863E+02  0.10369300362E+03  0.79570894810E+02 0.  0.
          6    2    1    2  501    0 -0.59764748892E+02 -0.70454453393E+02  0.54220283562E+02  0.20393675429E+03  0.17353589078E+03 0.  0.
         24    2    5    5    0    0 -0.10318567556E+03 -0.39306669407E+02  0.18060974253E+02  0.13924404242E+03  0.82887916231E+02 0.  0.
          5    1    5    5  501    0  0.43420926666E+02 -0.31147783986E+02  0.36159309309E+02  0.64692711873E+02  0.47000000000E+01 0. -1.
        -11    1    6    6    0    0 -0.21438580327E+02  0.18332587625E+02  0.26708766370E+02  0.38846553212E+02  0.00000000000E+00 0.  1.
         12    1    6    6    0    0 -0.81747095231E+02 -0.57639257032E+02 -0.86477921170E+01  0.10039748920E+03  0.00000000000E+00 0. -1.
         -5    1    3    3    0  503  0.88222510879E+02  0.37040669699E+02 -0.11994161858E+03  0.15350343483E+03  0.47000000000E+01 0.  1.
         13    1    4    4    0    0  0.83409265835E+00  0.25495873521E+02  0.16684111180E+02  0.30481057118E+02  0.00000000000E+00 0. -1.
        -14    1    4    4    0    0 -0.29291854646E+02  0.79179101727E+01 -0.66627945042E+02  0.73211946502E+02  0.00000000000E+00 0.  1.
</event>
<event>
12    1  0.8416569E-002  0.2232122E+03  0.7818608E-02  0.1131953E+00
         21   -1    0    0  503  502  0.00000000000E+00  0.00000000000E+00  0.20614093130E+03  0.20614093130E+03  0.00000000000E+00 0. -1.
         21   -1    0    0  501  503 -0.00000000000E+00 -0.00000000000E+00 -0.32498214534E+03  0.32498214534E+03  0.00000000000E+00 0. -1.
          6    2    1    2  501    0  0.64644596182E+02 -0.12788919294E+03  0.76857815915E+02  0.23607376871E+03  0.17114067582E+03 0.  0.
         24    2    3    3    0    0  0.80471664189E+02 -0.40185064158E+02 -0.21063532595E+01  0.11691026632E+03  0.74652833363E+02 0.  0.
         -6    2    1    2    0  502 -0.64644596182E+02  0.12788919294E+03 -0.19569902995E+03  0.29504930794E+03  0.16799230429E+03 0.  0.
        -24    2    5    5    0    0 -0.45303057275E+02 -0.19563432764E+01 -0.78907237586E+02  0.11927567178E+03  0.77098245490E+02 0.  0.
          5    1    3    3  501    0 -0.15827068007E+02 -0.87704128783E+02  0.78964169174E+02  0.11916350239E+03  0.47000000000E+01 0. -1.
        -13    1    4    4    0    0  0.75919186560E+02 -0.57181602700E+01  0.15871274666E+02  0.77770930330E+02  0.00000000000E+00 0.  1.
         14    1    4    4    0    0  0.45524776285E+01 -0.34466903888E+02 -0.17977627925E+02  0.39139335994E+02  0.00000000000E+00 0. -1.
         -5    1    5    5    0  502 -0.19341538907E+02  0.12984553622E+03 -0.11679179237E+03  0.17577363616E+03  0.47000000000E+01 0.  1.
         11    1    6    6    0    0  0.16360090813E+02  0.10903271092E-01 -0.47108310785E+02  0.49868282859E+02  0.00000000000E+00 0. -1.
        -12    1    6    6    0    0 -0.61663148089E+02 -0.19672465475E+01 -0.31798926801E+02  0.69407388921E+02  0.00000000000E+00 0.  1.
</event>
<event>
12    1  0.8416569E-002  0.2081261E+03  0.7818608E-02  0.1144364E+00
         21   -1    0    0  503  502  0.00000000000E+00  0.00000000000E+00  0.62747118903E+03  0.62747118903E+03  0.00000000000E+00 0.  1.
         21   -1    0    0  501  503 -0.00000000000E+00 -0.00000000000E+00 -0.68095525635E+02  0.68095525635E+02  0.00000000000E+00 0. -1.
          6    2    1    2  501    0 -0.10422384331E+03 -0.13583861048E+02  0.23837310258E+03  0.31644623589E+03  0.17963672613E+03 0.  0.
         24    2    3    3    0    0 -0.10305174600E+03 -0.61108804434E+02  0.11031484585E+03  0.17976777682E+03  0.76112679856E+02 0.  0.
         -6    2    1    2    0  502  0.10422384331E+03  0.13583861048E+02  0.32100256082E+03  0.37912047878E+03  0.17217015591E+03 0.  0.
        -24    2    5    5    0    0  0.13955574384E+03  0.12413183839E+02  0.27778337743E+03  0.32308743949E+03  0.87132060735E+02 0.  0.
          5    1    3    3  501    0 -0.11720973121E+01  0.47524943386E+02  0.12805825673E+03  0.13667845906E+03  0.47000000000E+01 0. -1.
        -13    1    4    4    0    0  0.50385778156E+01 -0.43895748395E+01  0.36522312279E+02  0.37128626798E+02  0.00000000000E+00 0.  1.
         14    1    4    4    0    0 -0.10809032382E+03 -0.56719229594E+02  0.73792533575E+02  0.14263915002E+03  0.00000000000E+00 0. -1.
         -5    1    5    5    0  502 -0.35331900525E+02  0.11706772091E+01  0.43219183381E+02  0.56033039289E+02  0.47000000000E+01 0.  1.
         13    1    6    6    0    0  0.11923453614E+03 -0.76131790709E+01  0.14801161513E+03  0.19021638552E+03  0.00000000000E+00 0. -1.
        -14    1    6    6    0    0  0.20321207693E+02  0.20026362910E+02  0.12977176230E+03  0.13287105398E+03  0.00000000000E+00 0.  1.
</event>
<event>
12    1  0.8416569E-002  0.1822009E+03  0.7818608E-02  0.1166675E+00
         21   -1    0    0  501  502  0.00000000000E+00  0.00000000000E+00  0.17643281125E+03  0.17643281125E+03  0.00000000000E+00 0. -1.
         21   -1    0    0  502  503 -0.00000000000E+00 -0.00000000000E+00 -0.18470924226E+03  0.18470924226E+03  0.00000000000E+00 0. -1.
         -6    2    1    2    0  503  0.43557487873E+02 -0.34678327917E+02 -0.15685371817E+02  0.18287479067E+03  0.17348578327E+03 0.  0.
        -24    2    3    3    0    0  0.73812547347E+02 -0.57515888178E+01 -0.57951105570E+02  0.12320396775E+03  0.79621065761E+02 0.  0.
          6    2    1    2  501    0 -0.43557487873E+02  0.34678327917E+02  0.74089408111E+01  0.17826726283E+03  0.16918771651E+03 0.  0.
         24    2    5    5    0    0 -0.14577329579E+02  0.30973247072E+02 -0.59725706611E+02  0.10490018518E+03  0.79152057766E+02 0.  0.
          5    1    5    5  501    0 -0.28980158294E+02  0.37050808444E+01  0.67134647422E+02  0.73367077653E+02  0.47000000000E+01 0. -1.
        -11    1    6    6    0    0  0.17639106706E+02 -0.19314724039E+02 -0.13891729021E+02  0.29617170447E+02  0.00000000000E+00 0.  1.
         12    1    6    6    0    0 -0.32216436285E+02  0.50287971112E+02 -0.45833977589E+02  0.75283014731E+02  0.00000000000E+00 0. -1.
         -5    1    3    3    0  503 -0.30255059474E+02 -0.28926739099E+02  0.42265733753E+02  0.59670822923E+02  0.47000000000E+01 0.  1.
         11    1    4    4    0    0 -0.21430041920E+00 -0.22454493736E+01 -0.48432909983E+02  0.48485407465E+02  0.00000000000E+00 0. -1.
        -12    1    4    4    0    0  0.74026847766E+02 -0.35061394442E+01 -0.95181955866E+01  0.74718560286E+02  0.00000000000E+00 0.  1.
</event>
<event>
12    1  0.8416569E-002  0.2821317E+03  0.7818608E-02  0.1094718E+00
         21   -1    0    0  501  502  0.00000000000E+00  0.00000000000E+00  0.99961950917E+03  0.99961950917E+03  0.00000000000E+00 0.  1.
         21   -1    0    0  502  503 -0.00000000000E+00 -0.00000000000E+00 -0.18295182542E+03  0.18295182542E+03  0.00000000000E+00 0.  1.
         -6    2    1    2    0  503 -0.21904587907E+03  0.41719146787E+02 -0.36421223780E+02  0.28447288184E+03  0.17284886640E+03 0.  0.
        -24    2    3    3    0    0 -0.42671636772E+02  0.94274178963E+01 -0.54356271669E+02  0.10421089183E+03  0.77431007436E+02 0.  0.
          6    2    1    2  501    0  0.21904587907E+03 -0.41719146787E+02  0.85308890752E+03  0.89809845275E+03  0.17058300722E+03 0.  0.
         24    2    5    5    0    0  0.39908486200E+02 -0.15030876232E+02  0.18465197802E+03  0.20554340943E+03  0.79580937808E+02 0.  0.
          5    1    5    5  501    0  0.17913739287E+03 -0.26688270555E+02  0.66843692950E+03  0.69255504332E+03  0.47000000000E+01 0. -1.
        -13    1    6    6    0    0  0.24633215010E+02 -0.29451573793E+02  0.17997128863E+03  0.18402134444E+03  0.00000000000E+00 0.  1.
         14    1    6    6    0    0  0.15275271191E+02  0.14420697561E+02  0.46806893929E+01  0.21522064987E+02  0.00000000000E+00 0. -1.
         -5    1    3    3    0  503 -0.17637424229E+03  0.32291728891E+02  0.17935047889E+02  0.18026199001E+03  0.47000000000E+01 0.  1.
         11    1    4    4    0    0 -0.20178670404E+02 -0.25486429003E+02  0.38197176150E+01  0.32731132660E+02  0.00000000000E+00 0. -1.
        -12    1    4    4    0    0 -0.22492966368E+02  0.34913846899E+02 -0.58175989284E+02  0.71479759166E+02  0.00000000000E+00 0.  1.
</event>
<event>
12    1  0.8416569E-002  0.2083970E+03  0.7818608E-02  0.1142953E+00
         21   -1    0    0  501  502  0.00000000000E+00  0.00000000000E+00  0.59759600164E+03  0.59759600164E+03  0.00000000000E+00 0. -1.
         21   -1    0    0  502  503 -0.00000000000E+00 -0.00000000000E+00 -0.72617164971E+02  0.72617164971E+02  0.00000000000E+00 0. -1.
         -6    2    1    2    0  503 -0.81875331222E+02 -0.83224780229E+02  0.24759754543E+03  0.32326980295E+03  0.17195606151E+03 0.  0.
        -24    2    3    3    0    0 -0.10173329057E+03 -0.83695413109E+02  0.25745003740E+03  0.30060437458E+03  0.82023677498E+02 0.  0.
          6    2    1    2  501    0  0.81875331222E+02  0.83224780229E+02  0.27738129124E+03  0.34694336366E+03  0.17262497777E+03 0.  0.
         24    2    5    5    0    0  0.47353258382E+02  0.49881635319E+02  0.63445925168E+02  0.12763999004E+03  0.86810558200E+02 0.  0.
          5    1    5    5  501    0  0.34522072840E+02  0.33343144910E+02  0.21393536607E+03  0.21930337362E+03  0.47000000000E+01 0. -1.
        -11    1    6    6    0    0 -0.24263173658E+02  0.54273272924E+01  0.24068087215E+02  0.34603905845E+02  0.00000000000E+00 0.  1.
         12    1    6    6    0    0  0.71616432040E+02  0.44454308026E+02  0.39377837953E+02  0.93036084194E+02  0.00000000000E+00 0. -1.
         -5    1    3    3    0  503  0.19857959352E+02  0.47063287976E+00 -0.98524919779E+01  0.22665428368E+02  0.47000000000E+01 0.  1.
         11    1    4    4    0    0 -0.43485157292E+02  0.10211213889E+02  0.72387489212E+02  0.85059840044E+02  0.00000000000E+00 0. -1.
        -12    1    4    4    0    0 -0.58248133282E+02 -0.93906626998E+02  0.18506254819E+03  0.21554453454E+03  0.00000000000E+00 0.  1.
</event>
<event>
12    1  0.8416569E-002  0.2340415E+03  0.7818608E-02  0.1123848E+00
         21   -1    0    0  501  502  0.00000000000E+00  0.00000000000E+00  0.93138707661E+03  0.93138707661E+03  0.00000000000E+00 0.  1.
         21   -1    0    0  502  503 -0.00000000000E+00 -0.00000000000E+00 -0.59496370527E+02  0.59496370527E+02  0.00000000000E+00 0.  1.
         -6    2    1    2    0  503 -0.11318697194E+02  0.15763792027E+03  0.49040656525E+03  0.54339121182E+03  0.17261976432E+03 0.  0.
        -24    2    3    3    0    0  0.35675382447E+01  0.10171402938E+03  0.45992110707E+03  0.47781274936E+03  0.80119458447E+02 0.  0.
          6    2    1    2  501    0  0.11318697194E+02 -0.15763792027E+03  0.38148414083E+03  0.44749223531E+03  0.17245673122E+03 0.  0.
         24    2    5    5    0    0 -0.40284184028E+02 -0.27689533490E+02  0.17401457408E+03  0.19726203788E+03  0.79004517902E+02 0.  0.
          5    1    5    5  501    0  0.51602881222E+02 -0.12994838678E+03  0.20746956675E+03  0.25023019743E+03  0.47000000000E+01 0. -1.
        -13    1    6    6    0    0 -0.51751652254E+02 -0.45563049213E+02  0.11006692952E+03  0.12988053718E+03  0.00000000000E+00 0.  1.
         14    1    6    6    0    0  0.11467468225E+02  0.17873515722E+02  0.63947644560E+02  0.67381500699E+02  0.00000000000E+00 0. -1.
         -5    1    3    3    0  503 -0.14886235438E+02  0.55923890896E+02  0.30485458175E+02  0.65578462460E+02  0.47000000000E+01 0.  1.
         11    1    4    4    0    0 -0.21281164057E+02  0.65183460948E+02  0.38314341323E+03  0.38923083977E+03  0.00000000000E+00 0. -1.
        -12    1    4    4    0    0  0.24848702301E+02  0.36530568428E+02  0.76777693842E+02  0.88581909594E+02  0.00000000000E+00 0.  1.
</event>
<event>
12    1  0.8416569E-002  0.2002750E+03  0.7818608E-02  0.1150209E+00
         21   -1    0    0  503  502  0.00000000000E+00  0.00000000000E+00  0.16809523887E+03  0.16809523887E+03  0.00000000000E+00 0. -1.
         21   -1    0    0  501  503 -0.00000000000E+00 -0.00000000000E+00 -0.23596576628E+03  0.23596576628E+03  0.00000000000E+00 0.  1.
          6    2    1    2  501    0  0.78164441890E+02  0.60155665152E+02 -0.49036078570E+02  0.20619067947E+03  0.17430340006E+03 0.  0.
         24    2    3    3    0    0  0.10894800104E+03  0.42540387689E+01 -0.43809366263E+02  0.14198765876E+03  0.79708662589E+02 0.  0.
         -6    2    1    2    0  502 -0.78164441890E+02 -0.60155665152E+02 -0.18834448843E+02  0.19787032568E+03  0.17049793340E+03 0.  0.
        -24    2    5    5    0    0 -0.11805960687E+03 -0.45888461127E+02 -0.32717893159E+02  0.15303710891E+03  0.79410796067E+02 0.  0.
          5    1    3    3  501    0 -0.30783559154E+02  0.55901626383E+02 -0.52267123064E+01  0.64203020707E+02  0.47000000000E+01 0. -1.
        -11    1    4    4    0    0  0.79299044052E+02  0.38875644850E+02 -0.37592853506E+02  0.95983731876E+02  0.00000000000E+00 0.  1.
         12    1    4    4    0    0  0.29648956992E+02 -0.34621606081E+02 -0.62165127571E+01  0.46003926889E+02  0.00000000000E+00 0. -1.
         -5    1    5    5    0  502  0.39895164982E+02 -0.14267204025E+02  0.13883444316E+02  0.44833216767E+02  0.47000000000E+01 0.  1.
         11    1    6    6    0    0 -0.88070466221E+02 -0.17392281147E+02 -0.55764785818E+02  0.10568164363E+03  0.00000000000E+00 0. -1.
        -12    1    6    6    0    0 -0.29989140651E+02 -0.28496179980E+02  0.23046892659E+02  0.47355465278E+02  0.00000000000E+00 0.  1.
</event>
<event>
12    1  0.8416569E-002  0.2066833E+03  0.7818608E-02  0.1144870E+00
         21   -1    0    0  501  502  0.00000000000E+00  0.00000000000E+00  0.26339221555E+03  0.26339221555E+03  0.00000000000E+00 0. -1.
         21   -1    0    0  502  503 -0.00000000000E+00 -0.00000000000E+00 -0.16297025768E+03  0.16297025768E+03  0.00000000000E+00 0. -1.
         -6    2    1    2    0  503  0.41271182321E+02  0.10728297785E+03  0.80067637572E+02  0.21867929201E+03  0.16791920182E+03 0.  0.
        -24    2    3    3    0    0  0.89065676918E+02  0.77625959408E+02  0.78202626760E+02  0.16220433542E+03  0.78969052271E+02 0.  0.
          6    2    1    2  501    0 -0.41271182321E+02 -0.10728297785E+03  0.20354320300E+02  0.20768318123E+03  0.17177036294E+03 0.  0.
         24    2    5    5    0    0 -0.13013018041E+02 -0.12335506957E+03  0.55858285399E+02  0.15931524228E+03  0.82917950691E+02 0.  0.
          5    1    5    5  501    0 -0.28258164280E+02  0.16072091719E+02 -0.35503965099E+02  0.48367938952E+02  0.47000000000E+01 0. -1.
        -11    1    6    6    0    0  0.21546973037E+02 -0.12210436859E+02  0.32062591933E+02  0.40513906462E+02  0.00000000000E+00 0.  1.
         12    1    6    6    0    0 -0.34559991078E+02 -0.11114463271E+03  0.23795693467E+02  0.11880133582E+03  0.00000000000E+00 0. -1.
         -5    1    3    3    0  503 -0.47794494598E+02  0.29657018444E+02  0.18650108114E+01  0.56474956593E+02  0.47000000000E+01 0.  1.
         13    1    4    4    0    0  0.78937336948E+02  0.34580357318E+02  0.18897185498E+02  0.88227024751E+02  0.00000000000E+00 0. -1.
        -14    1    4    4    0    0  0.10128339970E+02  0.43045602090E+02  0.59305441262E+02  0.73977310665E+02  0.00000000000E+00 0.  1.
</event>
<event>
12    1  0.8416569E-002  0.2037241E+03  0.7818608E-02  0.1147290E+00
         21   -1    0    0  501  502  0.00000000000E+00  0.00000000000E+00  0.14821898936E+04  0.14821898936E+04  0.00000000000E+00 0.  1.
         21   -1    0    0  502  503 -0.00000000000E+00 -0.00000000000E+00 -0.27875425678E+02  0.27875425678E+02  0.00000000000E+00 0.  1.
         -6    2    1    2    0  503  0.39688053913E+02 -0.10071059116E+03  0.81193279011E+03  0.83710115856E+03  0.17258542585E+03 0.  0.
        -24    2    3    3    0    0  0.74854005609E+02 -0.10951070373E+03  0.74576589936E+03  0.76150860885E+03  0.78312631940E+02 0.  0.
          6    2    1    2  501    0 -0.39688053913E+02  0.10071059116E+03  0.64238167782E+03  0.67296416072E+03  0.16884542287E+03 0.  0.
         24    2    5    5    0    0 -0.10047746663E+02  0.13110024066E+03  0.51123662827E+03  0.53503957034E+03  0.87270965558E+02 0.  0.
          5    1    5    5  501    0 -0.29640307250E+02 -0.30389649504E+02  0.13114504955E+03  0.13792459038E+03  0.47000000000E+01 0. -1.
        -11    1    6    6    0    0  0.87829406481E+01  0.18050197111E+02  0.23658534962E+03  0.23743541715E+03  0.00000000000E+00 0.  1.
         12    1    6    6    0    0 -0.18830687311E+02  0.11305004355E+03  0.27465127865E+03  0.29760415319E+03  0.00000000000E+00 0. -1.
         -5    1    3    3    0  503 -0.35165951696E+02  0.88001125756E+01  0.66166890751E+02  0.75592549710E+02  0.47000000000E+01 0.  1.
         11    1    4    4    0    0  0.76713233258E+02 -0.60534449894E+02  0.59514129813E+03  0.60311069011E+03  0.00000000000E+00 0. -1.
        -12    1    4    4    0    0 -0.18592276486E+01 -0.48976253840E+02  0.15062460123E+03  0.15839791875E+03  0.00000000000E+00 0.  1.
</event>
<event>
12    1  0.8416569E-002  0.1819353E+03  0.7818608E-02  0.1166097E+00
         21   -1    0    0  503  502  0.00000000000E+00  0.00000000000E+00  0.86338677097E+02  0.86338677097E+02  0.00000000000E+00 0. -1.
         21   -1    0    0  501  503 -0.00000000000E+00 -0.00000000000E+00 -0.47728572249E+03  0.47728572249E+03  0.00000000000E+00 0. -1.
          6    2    1    2  501    0 -0.14452533951E+02 -0.57228002707E+02 -0.32165125015E+03  0.36954020980E+03  0.17209450864E+03 0.  0.
         24    2    3    3    0    0 -0.32837058774E+02 -0.15829165533E+02 -0.59940975882E+02  0.10389719346E+03  0.76634661275E+02 0.  0.
         -6    2    1    2    0  502  0.14452533951E+02  0.57228002707E+02 -0.69295795236E+02  0.19408418978E+03  0.17141425103E+03 0.  0.
        -24    2    5    5    0    0  0.19627585314E+02  0.79975655803E+02 -0.10228482165E+03  0.15340738138E+03  0.79311362963E+02 0.  0.
          5    1    3    3  501    0  0.18384524824E+02 -0.41398837174E+02 -0.26171027427E+03  0.26564301634E+03  0.47000000000E+01 0. -1.
        -13    1    4    4    0    0  0.25218654845E+02 -0.32349642437E+01 -0.19271356651E+02  0.31903459577E+02  0.00000000000E+00 0.  1.
         14    1    4    4    0    0 -0.58055713619E+02 -0.12594201289E+02 -0.40669619231E+02  0.71993733882E+02  0.00000000000E+00 0. -1.
         -5    1    5    5    0  502 -0.51750513632E+01 -0.22747653097E+02  0.32989026415E+02  0.40676808403E+02  0.47000000000E+01 0.  1.
         13    1    6    6    0    0  0.47261187167E+02  0.68215919960E+02 -0.64292520481E+02  0.10497885377E+03  0.00000000000E+00 0. -1.
        -14    1    6    6    0    0 -0.27633601853E+02  0.11759735843E+02 -0.37992301170E+02  0.48428527612E+02  0.00000000000E+00 0.  1.
</event>
<event>
12    1  0.8416569E-002  0.1981408E+03  0.7818608E-02  0.1151545E+00
         21   -1    0    0  501  502  0.00000000000E+00  0.00000000000E+00  0.96306857900E+03  0.96306857900E+03  0.00000000000E+00 0.  1.
         21   -1    0    0  502  503 -0.00000000000E+00 -0.00000000000E+00 -0.40734432576E+02  0.40734432576E+02  0.00000000000E+00 0.  1.
         -6    2    1    2    0  503  0.89586930881E+02 -0.40084077325E+02  0.42833782963E+03  0.47194604314E+03  0.17212559340E+03 0.  0.
        -24    2    3    3    0    0  0.13898217890E+02 -0.54706602186E+02  0.34178895932E+03  0.35594864464E+03  0.81815476050E+02 0.  0.
          6    2    1    2  501    0 -0.89586930881E+02  0.40084077325E+02  0.49399631679E+03  0.53185696844E+03  0.17090032893E+03 0.  0.
         24    2    5    5    0    0 -0.67850763015E+02 -0.28402903443E+02  0.39247415614E+03  0.40739104285E+03  0.80753003592E+02 0.  0.
          5    1    5    5  501    0 -0.21736167866E+02  0.68486980768E+02  0.10152216065E+03  0.12446592558E+03  0.47000000000E+01 0. -1.
        -11    1    6    6    0    0 -0.34796936282E+02  0.18717539058E+02  0.75301584807E+02  0.85038236797E+02  0.00000000000E+00 0.  1.
         12    1    6    6    0    0 -0.33053826733E+02 -0.47120442501E+02  0.31717257134E+03  0.32235280606E+03  0.00000000000E+00 0. -1.
         -5    1    3    3    0  503  0.75688712991E+02  0.14622524861E+02  0.86548870301E+02  0.11599739850E+03  0.47000000000E+01 0.  1.
         11    1    4    4    0    0  0.18813220954E+02 -0.91940017089E+01  0.26997139546E+03  0.27078223966E+03  0.00000000000E+00 0. -1.
        -12    1    4    4    0    0 -0.49150030643E+01 -0.45512600477E+02  0.71817563868E+02  0.85166404980E+02  0.00000000000E+00 0.  1.
</event>
<event>
12    1  0.8416569E-002  0.2470454E+03  0.7818608E-02  0.1115381E+00
         21   -1    0    0  503  502  0.00000000000E+00  0.00000000000E+00  0.31339515177E+03  0.31339515177E+03  0.00000000000E+00 0. -1.
         21   -1    0    0  501  503 -0.00000000000E+00 -0.00000000000E+00 -0.43125134759E+03  0.43125134759E+03  0.00000000000E+00 0.  1.
          6    2    1    2  501    0 -0.60767678930E+02  0.16425218871E+03 -0.33527472780E+03  0.41646194207E+03  0.17424096475E+03 0.  0.
         24    2    3    3    0    0  0.14710715992E+02  0.65097210526E+02 -0.22886207683E+03  0.25252768670E+03  0.83296640725E+02 0.  0.
         -6    2    1    2    0  502  0.60767678930E+02 -0.16425218871E+03  0.21741853198E+03  0.32818455729E+03  0.17251896505E+03 0.  0.
        -24    2    5    5    0    0  0.14821525467E+02 -0.16448647782E+03  0.11746133330E+03  0.21807263479E+03  0.80517266604E+02 0.  0.
          5    1    3    3  501    0 -0.75478394923E+02  0.99154978179E+02 -0.10641265097E+03  0.16393425537E+03  0.47000000000E+01 0. -1.
        -11    1    4    4    0    0 -0.85876553918E+01  0.27068348955E+02 -0.19360437999E+03  0.19567600591E+03  0.00000000000E+00 0.  1.
         12    1    4    4    0    0  0.23298371384E+02  0.38028861572E+02 -0.35257696843E+02  0.56851680786E+02  0.00000000000E+00 0. -1.
         -5    1    5    5    0  502  0.45946153463E+02  0.23428911624E+00  0.99957198674E+02  0.11011192250E+03  0.47000000000E+01 0.  1.
         13    1    6    6    0    0 -0.83118532597E+01 -0.93669443313E+02  0.10763488996E+03  0.14292767770E+03  0.00000000000E+00 0. -1.
        -14    1    6    6    0    0  0.23133378727E+02 -0.70817034509E+02  0.98264433382E+01  0.75144957094E+02  0.00000000000E+00 0.  1.
</event>
<event>
12    1  0.8416569E-002  0.1974637E+03  0.7818608E-02  0.1152102E+00
         21   -1    0    0  501  502  0.00000000000E+00  0.00000000000E+00  0.58452402538E+03  0.58452402538E+03  0.00000000000E+00 0. -1.
         21   -1    0    0  502  503 -0.00000000000E+00 -0.00000000000E+00 -0.79212701930E+02  0.79212701930E+02  0.00000000000E+00 0. -1.
         -6    2    1    2    0  503  0.90275562398E+02 -0.31184783404E+02  0.38569011987E+03  0.43286630950E+03  0.17173877096E+03 0.  0.
        -24    2    3    3    0    0  0.10033104089E+03 -0.51729212308E+02  0.38553738312E+03  0.40951465998E+03  0.79504426173E+02 0.  0.
          6    2    1    2  501    0 -0.90275562398E+02  0.31184783404E+02  0.11962120358E+03  0.23087041781E+03  0.17282867121E+03 0.  0.
         24    2    5    5    0    0 -0.85530146393E+02  0.48423244462E+02  0.14907766011E+03  0.19609317894E+03  0.81044244296E+02 0.  0.
          5    1    5    5  501    0 -0.47454160047E+01 -0.17238461058E+02 -0.29456456530E+02  0.34777238879E+02  0.47000000000E+01 0. -1.
        -11    1    6    6    0    0  0.11661702695E+02 -0.26780672673E+01  0.13733259637E+01  0.12043810785E+02  0.00000000000E+00 0.  1.
         12    1    6    6    0    0 -0.97191849088E+02  0.51101311729E+02  0.14770433415E+03  0.18404936815E+03  0.00000000000E+00 0. -1.
         -5    1    3    3    0  503 -0.10055478490E+02  0.20544428905E+02  0.15273674340E+00  0.23351649517E+02  0.47000000000E+01 0.  1.
         11    1    4    4    0    0  0.39473475566E+02 -0.44013564901E+02  0.90027576451E+02  0.10770475240E+03  0.00000000000E+00 0. -1.
        -12    1    4    4    0    0  0.60857565321E+02 -0.77156474067E+01  0.29550980667E+03  0.30180990758E+03  0.00000000000E+00 0.  1.
</event>
<event>
12    1  0.8416569E-002  0.1904012E+03  0.7818608E-02  0.1158253E+00
         21   -1    0    0  503  502  0.00000000000E+00  0.00000000000E+00  0.67970154221E+02  0.67970154221E+02  0.00000000000E+00 0.  1.
         21   -1    0    0  501  503 -0.00000000000E+00 -0.00000000000E+00 -0.67682418196E+03  0.67682418196E+03  0.00000000000E+00 0. -1.
          6    2    1    2  501    0 -0.45534209273E+02  0.58271762329E+02 -0.47658128070E+03  0.51295668877E+03  0.17471658463E+03 0.  0.
         24    2    3    3    0    0  0.30611696816E+02  0.72693312767E+02 -0.26967088831E+03  0.29195854260E+03  0.79347393746E+02 0.  0.
         -6    2    1    2    0  502  0.45534209273E+02 -0.58271762329E+02 -0.13227274705E+03  0.23183764742E+03  0.17545270773E+03 0.  0.
        -24    2    5    5    0    0  0.18158888081E+02 -0.91356242255E+02 -0.38836333239E+02  0.12889861474E+03  0.80192791995E+02 0.  0.
          5    1    3    3  501    0 -0.76145906090E+02 -0.14421550438E+02 -0.20691039239E+03  0.22099814617E+03  0.47000000000E+01 0. -1.
        -13    1    4    4    0    0 -0.16923023035E+02  0.60372807789E+02 -0.14586935149E+03  0.15877384020E+03  0.00000000000E+00 0.  1.
         14    1    4    4    0    0  0.47534719852E+02  0.12320504978E+02 -0.12380153682E+03  0.13318470240E+03  0.00000000000E+00 0. -1.
         -5    1    5    5    0  502  0.27375321192E+02  0.33084479926E+02 -0.93436413807E+02  0.10293903267E+03  0.47000000000E+01 0.  1.
         11    1    6    6    0    0  0.30487855372E+02 -0.56270095969E+02 -0.58608374435E+02  0.86780035604E+02  0.00000000000E+00 0. -1.
        -12    1    6    6    0    0 -0.12328967290E+02 -0.35086146286E+02  0.19772041196E+02  0.42118579140E+02  0.00000000000E+00 0.  1.
</event>
<event>
12    1  0.8416569E-002  0.2234884E+03  0.7818608E-02  0.1131510E+00
         21   -1    0    0  503  502  0.00000000000E+00  0.00000000000E+00  0.15658408291E+03  0.15658408291E+03  0.00000000000E+00 0.  1.
         21   -1    0    0  501  503 -0.00000000000E+00 -0.00000000000E+00 -0.41158732272E+03  0.41158732272E+03  0.00000000000E+00 0.  1.
          6    2    1    2  501    0 -0.14081686002E+03 -0.33339278136E+01 -0.26363458722E+03  0.34561580010E+03  0.17351248532E+03 0.  0.
         24    2    3    3    0    0 -0.96986916596E+02  0.64592362696E+02 -0.14647497314E+03  0.20319561174E+03  0.79087948276E+02 0.  0.
         -6    2    1    2    0  502  0.14081686002E+03  0.33339278136E+01  0.86313474168E+01  0.22255560553E+03  0.17209298142E+03 0.  0.
        -24    2    5    5    0    0  0.14557766008E+03 -0.43260253085E+02  0.24741363053E+02  0.17280316323E+03  0.78641551128E+02 0.  0.
          5    1    3    3  501    0 -0.43829943419E+02 -0.67926290510E+02 -0.11715961408E+03  0.14242018837E+03  0.47000000000E+01 0. -1.
        -13    1    4    4    0    0 -0.85254673814E+02  0.22655076633E+02 -0.60948869584E+02  0.10722115746E+03  0.00000000000E+00 0.  1.
         14    1    4    4    0    0 -0.11732242782E+02  0.41937286063E+02 -0.85526103557E+02  0.95974454272E+02  0.00000000000E+00 0. -1.
         -5    1    5    5    0  502 -0.47608000673E+01  0.46594180899E+02 -0.16110015637E+02  0.49752442299E+02  0.47000000000E+01 0.  1.
         11    1    6    6    0    0 -0.30122355598E+01  0.81662557612E+01  0.12308086652E+02  0.15074823158E+02  0.00000000000E+00 0. -1.
        -12    1    6    6    0    0  0.14858989564E+03 -0.51426508846E+02  0.12433276401E+02  0.15772834007E+03  0.00000000000E+00 0.  1.
</event>
<event>
12    1  0.8416569E-002  0.2158455E+03  0.7818608E-02  0.1138239E+00
         21   -1    0    0  501  502  0.00000000000E+00  0.00000000000E+00  0.34115663140E+03  0.34115663140E+03  0.00000000000E+00 0.  1.
         21   -1    0    0  502  503 -0.00000000000E+00 -0.00000000000E+00 -0.15465950817E+03  0.15465950817E+03  0.00000000000E+00 0.  1.
         -6    2    1    2    0  503 -0.11493805827E+03  0.46503925605E+02 -0.15227478884E+01  0.20956320879E+03  0.16894095828E+03 0.  0.
        -24    2    3    3    0    0 -0.49841433142E+02  0.67650822533E+02  0.46747217355E+02  0.12567732561E+03  0.80923949456E+02 0.  0.
          6    2    1    2  501    0  0.11493805827E+03 -0.46503925605E+02  0.18801987111E+03  0.28625293078E+03  0.17668020860E+03 0.  0.
         24    2    5    5    0    0 -0.12363489943E+00  0.10066355074E+02  0.33329777612E+02  0.85279039645E+02  0.77847888456E+02 0.  0.
          5    1    5    5  501    0  0.11506169317E+03 -0.56570280679E+02  0.15469009350E+03  0.20097389113E+03  0.47000000000E+01 0. -1.
        -13    1    6    6    0    0 -0.27290881682E+02  0.20285239198E+02  0.42876608952E+02  0.54723731119E+02  0.00000000000E+00 0.  1.
         14    1    6    6    0    0  0.27167246782E+02 -0.10218884124E+02 -0.95468313406E+01  0.30555308526E+02  0.00000000000E+00 0. -1.
         -5    1    3    3    0  503 -0.65096625125E+02 -0.21146896927E+02 -0.48269965243E+02  0.83885883180E+02  0.47000000000E+01 0.  1.
         11    1    4    4    0    0 -0.26872279556E+02 -0.78179681113E+01  0.36699987229E+02  0.46153321620E+02  0.00000000000E+00 0. -1.
        -12    1    4    4    0    0 -0.22969153586E+02  0.75468790644E+02  0.10047230125E+02  0.79524003992E+02  0.00000000000E+00 0.  1.
</event>
<event>
12    1  0.8416569E-002  0.2031724E+03  0.7818608E-02  0.1147673E+00
         21   -1    0    0  501  502  0.00000000000E+00  0.00000000000E+00  0.64610863120E+02  0.64610863120E+02  0.00000000000E+00 0. -1.
         21   -1    0    0  502  503 -0.00000000000E+00 -0.00000000000E+00 -0.63649373135E+03  0.63649373135E+03  0.00000000000E+00 0.  1.
         -6    2    1    2    0  503  0.73608818132E+02  0.79195731679E+02 -0.31909455395E+03  0.37678847211E+03  0.16869498016E+03 0.  0.
        -24    2    3    3    0    0 -0.14428723495E+02  0.68606480941E+02 -0.21395594831E+03  0.23916958764E+03  0.80683991885E+02 0.  0.
          6    2    1    2  501    0 -0.73608818132E+02 -0.79195731679E+02 -0.25278831428E+03  0.32431612236E+03  0.17201393363E+03 0.  0.
         24    2    5    5    0    0 -0.58317849939E+02 -0.90839540625E+02 -0.26732926520E+03  0.29976166760E+03  0.82093407587E+02 0.  0.
          5    1    5    5  501    0 -0.15290968193E+02  0.11643808946E+02  0.14540950916E+02  0.24554454760E+02  0.47000000000E+01 0. -1.
        -11    1    6    6    0    0 -0.17383951497E+02  0.11357419925E+02 -0.78341862006E+02  0.81047147387E+02  0.00000000000E+00 0.  1.
         12    1    6    6    0    0 -0.40933898442E+02 -0.10219696055E+03 -0.18898740319E+03  0.21871452021E+03  0.00000000000E+00 0. -1.
         -5    1    3    3    0  503  0.88037541627E+02  0.10589250739E+02 -0.10513860564E+03  0.13761888447E+03  0.47000000000E+01 0.  1.
         11    1    4    4    0    0  0.29314122935E+02  0.19024218863E+02 -0.40242868253E+02  0.53298472323E+02  0.00000000000E+00 0. -1.
        -12    1    4    4    0    0 -0.43742846430E+02  0.49582262078E+02 -0.17371308005E+03  0.18587111532E+03  0.00000000000E+00 0.  1.
</event>
<event>
12    1  0.8416569E-002  0.2696850E+03  0.7818608E-02  0.1101473E+00
         21   -1    0    0  503  502  0.00000000000E+00  0.00000000000E+00  0.35991749201E+03  0.35991749201E+03  0.00000000000E+00 0.  1.
         21   -1    0    0  501  503 -0.00000000000E+00 -0.00000000000E+00 -0.87866438758E+03  0.87866438758E+03  0.00000000000E+00 0.  1.
          6    2    1    2  501    0 -0.19947052468E+03  0.56820684216E+02 -0.80284487482E+03  0.84692967517E+03  0.17237430579E+03 0.  0.
         24    2    3    3    0    0 -0.14754401717E+03 -0.21270647615E+02 -0.36729813494E+03  0.40137645623E+03  0.63035404625E+02 0.  0.
         -6    2    1    2    0  502  0.19947052468E+03 -0.56820684216E+02  0.28409797925E+03  0.39165220441E+03  0.17222864755E+03 0.  0.
        -24    2    5    5    0    0  0.15745130928E+03 -0.10511077387E+03  0.21220694244E+03  0.29527814983E+03  0.79487167336E+02 0.  0.
          5    1    3    3  501    0 -0.51926507513E+02  0.78091331831E+02 -0.43554673988E+03  0.44555321894E+03  0.47000000000E+01 0. -1.
        -13    1    4    4    0    0 -0.52379505121E+02 -0.38613986473E+02 -0.15227001127E+03  0.16559229704E+03  0.00000000000E+00 0.  1.
         14    1    4    4    0    0 -0.95164512047E+02  0.17343338858E+02 -0.21502812367E+03  0.23578415919E+03  0.00000000000E+00 0. -1.
         -5    1    5    5    0  502  0.42019215400E+02  0.48290089658E+02  0.71891036809E+02  0.96374054576E+02  0.47000000000E+01 0.  1.
         13    1    6    6    0    0  0.26698655392E+02 -0.20434866308E+02  0.20516722961E+01  0.33683992044E+02  0.00000000000E+00 0. -1.
        -14    1    6    6    0    0  0.13075265389E+03 -0.84675907567E+02  0.21015527014E+03  0.26159415779E+03  0.00000000000E+00 0.  1.
</event>
<event>
12    1  0.8416569E-002  0.1922980E+03  0.7818608E-02  0.1156504E+00
         21   -1    0    0  503  502  0.00000000000E+00  0.00000000000E+00  0.23520375987E+03  0.23520375987E+03  0.00000000000E+00 0.  1.
         21   -1    0    0  501  503 -0.00000000000E+00 -0.00000000000E+00 -0.25368059122E+03  0.25368059122E+03  0.00000000000E+00 0.  1.
          6    2    1    2  501    0 -0.80055988416E+02 -0.27897104073E+02 -0.16024856174E+03  0.24997484619E+03  0.17210639876E+03 0.  0.
         24    2    3    3    0    0 -0.10651097014E+03 -0.23963160984E+02 -0.17313694048E+03  0.21991586629E+03  0.80422436202E+02 0.  0.
         -6    2    1    2    0  502  0.80055988416E+02  0.27897104073E+02  0.14177173039E+03  0.23890950490E+03  0.17260161730E+03 0.  0.
        -24    2    5    5    0    0 -0.41587853744E+01  0.58104487604E+02  0.50227662096E+02  0.11081961230E+03  0.79779329755E+02 0.  0.
          5    1    3    3  501    0  0.26454981724E+02 -0.39339430882E+01  0.12888378737E+02  0.30058979901E+02  0.47000000000E+01 0. -1.
        -11    1    4    4    0    0 -0.15469415822E+02 -0.11946654423E+02 -0.10172589991E+03  0.10358660188E+03  0.00000000000E+00 0.  1.
         12    1    4    4    0    0 -0.91041554319E+02 -0.12016506561E+02 -0.71411040570E+02  0.11632926441E+03  0.00000000000E+00 0. -1.
         -5    1    5    5    0  502  0.84214773791E+02 -0.30207383531E+02  0.91544068299E+02  0.12808989260E+03  0.47000000000E+01 0.  1.
         11    1    6    6    0    0 -0.26997717648E+02  0.40148764430E+02 -0.47738766081E+01  0.48616766052E+02  0.00000000000E+00 0. -1.
        -12    1    6    6    0    0  0.22838932273E+02  0.17955723174E+02  0.55001538704E+02  0.62202846252E+02  0.00000000000E+00 0.  1.
</event>
<event>
12    1  0.8416569E-002  0.2194291E+03  0.7818608E-02  0.1134479E+00
         21   -1    0    0  503  502  0.00000000000E+00  0.00000000000E+00  0.12369464231E+04  0.12369464231E+04  0.00000000000E+00 0.  1.
         21   -1    0    0  501  503 -0.00000000000E+00 -0.00000000000E+00 -0.94988279824E+02  0.94988279824E+02  0.00000000000E+00 0. -1.
          6    2    1    2  501    0  0.77357263499E+02 -0.11037287792E+03  0.58140145189E+02  0.22612704870E+03  0.17200827676E+03 0.  0.
         24    2    3    3    0    0  0.55543579845E+01 -0.94522796614E+02  0.83064682758E+02  0.14834398569E+03  0.78363171178E+02 0.  0.
         -6    2    1    2    0  502 -0.77357263499E+02  0.11037287792E+03  0.10838179981E+04  0.11058076542E+04  0.17315541219E+03 0.  0.
        -24    2    5    5    0    0 -0.54370375218E+02 -0.96380819915E+01  0.50969969144E+03  0.51881110606E+03  0.79511999034E+02 0.  0.
          5    1    3    3  501    0  0.71802905514E+02 -0.15850081306E+02 -0.24924537569E+02  0.77783063007E+02  0.47000000000E+01 0. -1.
        -11    1    4    4    0    0 -0.20068085847E+02 -0.95130795796E+02  0.67487708292E+02  0.11835196301E+03  0.00000000000E+00 0.  1.
         12    1    4    4    0    0  0.25622443832E+02  0.60799918207E+00  0.15576974466E+02  0.29992022680E+02  0.00000000000E+00 0. -1.
         -5    1    5    5    0  502 -0.22986888280E+02  0.12001095991E+03  0.57411830665E+03  0.58699654817E+03  0.47000000000E+01 0.  1.
         11    1    6    6    0    0  0.76146116176E+01 -0.23266422190E+02  0.26083792957E+03  0.26198422513E+03  0.00000000000E+00 0. -1.
        -12    1    6    6    0    0 -0.61984986836E+02  0.13628340198E+02  0.24886176187E+03  0.25682688093E+03  0.00000000000E+00 0.  1.
</event>
<event>
12    1  0.8416569E-002  0.2118088E+03  0.7818608E-02  0.1140758E+00
         21   -1    0    0  503  502  0.00000000000E+00  0.00000000000E+00  0.53804923543E+03  0.53804923543E+03  0.00000000000E+00 0.  1.
         21   -1    0    0  501  503 -0.00000000000E+00 -0.00000000000E+00 -0.10740423400E+03  0.10740423400E+03  0.00000000000E+00 0.  1.
          6    2    1    2  501    0 -0.46367356666E+02  0.10904088677E+03  0.60075655953E+02  0.22016367880E+03  0.17556512829E+03 0.  0.
         24    2    3    3    0    0 -0.14241421486E+02  0.66116378088E+02  0.92346745009E+02  0.15740937739E+03  0.10805367758E+03 0.  0.
         -6    2    1    2    0  502  0.46367356666E+02 -0.10904088677E+03  0.37056934547E+03  0.42528979063E+03  0.17178451462E+03 0.  0.
        -24    2    5    5    0    0 -0.41816260085E+02 -0.59551825266E+02  0.19288790149E+03  0.22079455106E+03  0.79053600408E+02 0.  0.
          5    1    3    3  501    0 -0.32125935180E+02  0.42924508684E+02 -0.32271089055E+02  0.62754301413E+02  0.47000000000E+01 0. -1.
        -11    1    4    4    0    0 -0.27937255941E+01  0.73379024721E+02  0.10183240290E+02  0.74134907800E+02  0.00000000000E+00 0.  1.
         12    1    4    4    0    0 -0.11447695892E+02 -0.72626466325E+01  0.82163504719E+02  0.83274469587E+02  0.00000000000E+00 0. -1.
         -5    1    5    5    0  502  0.88183616751E+02 -0.49489061507E+02  0.17768144398E+03  0.20449523957E+03  0.47000000000E+01 0.  1.
         11    1    6    6    0    0  0.77097552063E+01 -0.14437393172E+02 -0.24861504396E+00  0.16368886840E+02  0.00000000000E+00 0. -1.
        -12    1    6    6    0    0 -0.49526015292E+02 -0.45114432094E+02  0.19313651653E+03  0.20442566422E+03  0.00000000000E+00 0.  1.
</event>
<event>
12    1  0.8416569E-002  0.1970427E+03  0.7818608E-02  0.1152509E+00
         21   -1    0    0  503  502  0.00000000000E+00  0.00000000000E+00  0.12016907397E+04  0.12016907397E+04  0.00000000000E+00 0.  1.
         21   -1    0    0  501  503 -0.00000000000E+00 -0.00000000000E+00 -0.42505791664E+02  0.42505791664E+02  0.00000000000E+00 0.  1.
          6    2    1    2  501    0  0.79481273530E+02 -0.54706774482E+02  0.27078591983E+03  0.33420825568E+03  0.17047005536E+03 0.  0.
         24    2    3    3    0    0 -0.20727287818E+02 -0.50232932845E+02  0.13311670707E+03  0.16380674992E+03  0.78483282391E+02 0.  0.
         -6    2    1    2    0  502 -0.79481273530E+02  0.54706774482E+02  0.88839902817E+03  0.90998827564E+03  0.17180141017E+03 0.  0.
        -24    2    5    5    0    0  0.12794889480E+02  0.58658600035E+02  0.38158451609E+03  0.39480525298E+03  0.81608236750E+02 0.  0.
          5    1    3    3  501    0  0.10020856135E+03 -0.44738416371E+01  0.13766921276E+03  0.17040150577E+03  0.47000000000E+01 0. -1.
        -13    1    4    4    0    0  0.13338525283E+02 -0.58461215858E+02  0.76174857325E+02  0.96944514567E+02  0.00000000000E+00 0.  1.
         14    1    4    4    0    0 -0.34065813101E+02  0.82282830130E+01  0.56941849746E+02  0.66862235350E+02  0.00000000000E+00 0. -1.
         -5    1    5    5    0  502 -0.92276163010E+02 -0.39518255529E+01  0.50681451208E+03  0.51518302266E+03  0.47000000000E+01 0.  1.
         11    1    6    6    0    0 -0.10666190607E+02 -0.18011822922E+02  0.69362422653E+02  0.72452322691E+02  0.00000000000E+00 0. -1.
        -12    1    6    6    0    0  0.23461080087E+02  0.76670422957E+02  0.31222209344E+03  0.32235293029E+03  0.00000000000E+00 0.  1.
</event>
<event>
12    1  0.8416569E-002  0.1863388E+03  0.7818608E-02  0.1162010E+00
         21   -1    0    0  501  502  0.00000000000E+00  0.00000000000E+00  0.64119817368E+03  0.64119817368E+03  0.00000000000E+00 0.  1.
         21   -1    0    0  502  503 -0.00000000000E+00 -0.00000000000E+00 -0.55771768109E+02  0.55771768109E+02  0.00000000000E+00 0.  1.
         -6    2    1    2    0  503 -0.73188287224E+02 -0.14869844543E+02  0.22813006182E+03  0.29400242832E+03  0.16975413129E+03 0.  0.
        -24    2    3    3    0    0 -0.45950646091E+02 -0.63948437270E+02  0.89547079205E+02  0.14440988028E+03  0.81453481349E+02 0.  0.
          6    2    1    2  501    0  0.73188287224E+02  0.14869844543E+02  0.35729634375E+03  0.40296751346E+03  0.17071760889E+03 0.  0.
         24    2    5    5    0    0  0.32659240331E+02  0.66403887221E+02  0.17050097440E+03  0.20494488545E+03  0.86346520380E+02 0.  0.
          5    1    5    5  501    0  0.40529046893E+02 -0.51534042678E+02  0.18679536935E+03  0.19802262802E+03  0.47000000000E+01 0. -1.
        -13    1    6    6    0    0 -0.22651049501E+02  0.48326966844E+02  0.61862238958E+02  0.81703747630E+02  0.00000000000E+00 0.  1.
         14    1    6    6    0    0  0.55310289832E+02  0.18076920378E+02  0.10863873544E+03  0.12324113782E+03  0.00000000000E+00 0. -1.
         -5    1    3    3    0  503 -0.27237641133E+02  0.49078592727E+02  0.13858298261E+03  0.14959254804E+03  0.47000000000E+01 0.  1.
         13    1    4    4    0    0 -0.26459299287E+01 -0.69568966567E+02  0.55799652066E+02  0.89221315979E+02  0.00000000000E+00 0. -1.
        -14    1    4    4    0    0 -0.43304716163E+02  0.56205292968E+01  0.33747427139E+02  0.55188564305E+02  0.00000000000E+00 0.  1.
</event>
<event>
12    1  0.8416569E-002  0.2766630E+03  0.7818608E-02  0.1097574E+00
         21   -1    0    0  501  502  0.00000000000E+00  0.00000000000E+00  0.17634212116E+03  0.17634212116E+03  0.00000000000E+00 0. -1.
         21   -1    0    0  502  503 -0.00000000000E+00 -0.00000000000E+00 -0.43363813164E+03  0.43363813164E+03  0.00000000000E+00 0. -1.
         -6    2    1    2    0  503  0.10836252116E+03  0.18758594817E+03 -0.12349421744E+03  0.30297402069E+03  0.17207995678E+03 0.  0.
        -24    2    3    3    0    0  0.14296920041E+03  0.17173508163E+03 -0.98146977975E+02  0.25700180335E+03  0.80523084331E+02 0.  0.
          6    2    1    2  501    0 -0.10836252116E+03 -0.18758594817E+03 -0.13380179304E+03  0.30700623212E+03  0.17151962801E+03 0.  0.
         24    2    5    5    0    0 -0.11277524062E+03 -0.19568414396E+03 -0.15347216163E+03  0.28477863061E+03  0.80837027157E+02 0.  0.
          5    1    5    5  501    0  0.44127194544E+01  0.80981957915E+01  0.19670368596E+02  0.22227601507E+02  0.47000000000E+01 0. -1.
        -13    1    6    6    0    0 -0.35698011021E+02 -0.85569521374E+01 -0.32303485181E+02  0.48898717525E+02  0.00000000000E+00 0.  1.
         14    1    6    6    0    0 -0.77077229596E+02 -0.18712719183E+03 -0.12116867645E+03  0.23587991308E+03  0.00000000000E+00 0. -1.
         -5    1    3    3    0  503 -0.34606679247E+02  0.15850866541E+02 -0.25347239469E+02  0.45972217341E+02  0.47000000000E+01 0.  1.
         11    1    4    4    0    0  0.14427819970E+03  0.16519968585E+03 -0.73270881354E+02  0.23124825873E+03  0.00000000000E+00 0. -1.
        -12    1    4    4    0    0 -0.13089992869E+01  0.65353957800E+01 -0.24876096621E+02  0.25753544615E+02  0.00000000000E+00 0.  1.
</event>
<event>
12    1  0.8416569E-002  0.2024261E+03  0.7818608E-02  0.1147906E+00
         21   -1    0    0  501  502  0.00000000000E+00  0.00000000000E+00  0.29585136394E+03  0.29585136394E+03  0.00000000000E+00 0.  1.
         21   -1    0    0  502  503 -0.00000000000E+00 -0.00000000000E+00 -0.39048134945E+03  0.39048134945E+03  0.00000000000E+00 0.  1.
         -6    2    1    2    0  503  0.10367594429E+03  0.21281244233E+02 -0.32337747402E+03  0.38150924925E+03  0.17255353889E+03 0.  0.
        -24    2    3    3    0    0  0.59364446515E+02 -0.23541092119E+02 -0.79450317797E+02  0.12952691215E+03  0.79915877296E+02 0.  0.
          6    2    1    2  501    0 -0.10367594429E+03 -0.21281244233E+02  0.22874748852E+03  0.30482346414E+03  0.17143610474E+03 0.  0.
         24    2    5    5    0    0  0.91313254153E+01 -0.29491049423E+02  0.12825172999E+03  0.15344853729E+03  0.78389056952E+02 0.  0.
          5    1    5    5  501    0 -0.11280726970E+03  0.82098051904E+01  0.10049575852E+03  0.15137492685E+03  0.47000000000E+01 0. -1.
        -11    1    6    6    0    0 -0.12454030184E+02 -0.51751552309E+02  0.79740005643E+02  0.95873846977E+02  0.00000000000E+00 0.  1.
         12    1    6    6    0    0  0.21585355599E+02  0.22260502885E+02  0.48511724348E+02  0.57574690310E+02  0.00000000000E+00 0. -1.
         -5    1    3    3    0  503  0.44311497771E+02  0.44822336351E+02 -0.24392715622E+03  0.25198233711E+03  0.47000000000E+01 0.  1.
         11    1    4    4    0    0 -0.14975537126E+02 -0.11833804828E+02  0.13178177040E+01  0.19132231768E+02  0.00000000000E+00 0. -1.
        -12    1    4    4    0    0  0.74339983642E+02 -0.11707287291E+02 -0.80768135501E+02  0.11039468038E+03  0.00000000000E+00 0.  1.
</event>
<event>
12    1  0.8416569E-002  0.1804975E+03  0.7818608E-02  0.1167914E+00
         21   -1    0    0  501  502  0.00000000000E+00  0.00000000000E+00  0.11054650775E+03  0.11054650775E+03  0.00000000000E+00 0.  1.
         21   -1    0    0  502  503 -0.00000000000E+00 -0.00000000000E+00 -0.13681154256E+04  0.13681154256E+04  0.00000000000E+00 0.  1.
         -6    2    1    2    0  503  0.51440696768E+02 -0.35669127279E+01 -0.12839572850E+04  0.12962456913E+04  0.17043390083E+03 0.  0.
        -24    2    3    3    0    0 -0.20646823824E+02 -0.24484831089E+02 -0.39369450788E+03  0.40281182574E+03  0.78969634263E+02 0.  0.
          6    2    1    2  501    0 -0.51440696768E+02  0.35669127279E+01  0.26388367069E+02  0.18241624206E+03  0.17297534882E+03 0.  0.
         24    2    5    5    0    0 -0.62059694179E+02  0.55864966897E+02  0.43672086611E+02  0.12612533216E+03  0.83833454510E+02 0.  0.
          5    1    5    5  501    0  0.10618997411E+02 -0.52298054169E+02 -0.17283719542E+02  0.56290909898E+02  0.47000000000E+01 0. -1.
        -13    1    6    6    0    0  0.31528249111E+01  0.47942517344E+02  0.15151987582E+01  0.48069960490E+02  0.00000000000E+00 0.  1.
         14    1    6    6    0    0 -0.65212519090E+02  0.79224495535E+01  0.42156887853E+02  0.78055371669E+02  0.00000000000E+00 0. -1.
         -5    1    3    3    0  503  0.72087520591E+02  0.20917918361E+02 -0.89026277708E+03  0.89343386559E+03  0.47000000000E+01 0.  1.
         13    1    4    4    0    0  0.29649194794E+02 -0.17466791130E+02 -0.16357250913E+03  0.16715301160E+03  0.00000000000E+00 0. -1.
        -14    1    4    4    0    0 -0.50296018618E+02 -0.70180399592E+01 -0.23012199875E+03  0.23565881414E+03  0.00000000000E+00 0.  1.
</event>
<event>
12    1  0.8416569E-002  0.2149675E+03  0.7818608E-02  0.1137742E+00
         21   -1    0    0  503  502  0.00000000000E+00  0.00000000000E+00  0.25209181004E+03  0.25209181004E+03  0.00000000000E+00 0.  1.
         21   -1    0    0  501  503 -0.00000000000E+00 -0.00000000000E+00 -0.18795620506E+03  0.18795620506E+03  0.00000000000E+00 0.  1.
          6    2    1    2  501    0  0.93068619033E+02 -0.87839145223E+02 -0.33623605882E+01  0.21473269980E+03  0.17239879237E+03 0.  0.
         24    2    3    3    0    0  0.91576167512E+02 -0.40843857644E+02  0.55307997189E+02  0.13939953746E+03  0.79491139930E+02 0.  0.
         -6    2    1    2    0  502 -0.93068619033E+02  0.87839145223E+02  0.67497965576E+02  0.22531531530E+03  0.17272386248E+03 0.  0.
        -24    2    5    5    0    0 -0.57309490820E+02  0.12655111349E+03  0.38030134798E+02  0.16475315890E+03  0.79985937208E+02 0.  0.
          5    1    3    3  501    0  0.14924515201E+01 -0.46995287579E+02 -0.58670357777E+02  0.75333162338E+02  0.47000000000E+01 0. -1.
        -11    1    4    4    0    0  0.73204754317E+02 -0.60503831346E+02  0.23690154535E+02  0.97881934411E+02  0.00000000000E+00 0.  1.
         12    1    4    4    0    0  0.18371413196E+02  0.19659973703E+02  0.31617842654E+02  0.41517603048E+02  0.00000000000E+00 0. -1.
         -5    1    5    5    0  502 -0.35759128213E+02 -0.38711968266E+02  0.29467830778E+02  0.60562156404E+02  0.47000000000E+01 0.  1.
         11    1    6    6    0    0 -0.30083769283E+01  0.53955693449E+01 -0.19204910794E+02  0.20174020395E+02  0.00000000000E+00 0. -1.
        -12    1    6    6    0    0 -0.54301113892E+02  0.12115554414E+03  0.57235045592E+02  0.14457913850E+03  0.00000000000E+00 0.  1.
</event>
<event>
12    1  0.8416569E-002  0.2260213E+03  0.7818608E-02  0.1129993E+00
         21   -1    0    0  501  502  0.00000000000E+00  0.00000000000E+00  0.18104995910E+03  0.18104995910E+03  0.00000000000E+00 0.  1.
         21   -1    0    0  502  503 -0.00000000000E+00 -0.00000000000E+00 -0.40528147422E+03  0.40528147422E+03  0.00000000000E+00 0.  1.
         -6    2    1    2    0  503  0.98317182703E+02  0.10682901003E+03 -0.27553556644E+03  0.35456059597E+03  0.16945401159E+03 0.  0.
        -24    2    3    3    0    0  0.10922449195E+01  0.22460356158E+02 -0.55766381198E+02  0.99822803205E+02  0.79680877066E+02 0.  0.
          6    2    1    2  501    0 -0.98317182703E+02 -0.10682901003E+03  0.51304051317E+02  0.23177083734E+03  0.17322502580E+03 0.  0.
         24    2    5    5    0    0 -0.85432016634E+02 -0.13463718117E+03  0.75244550100E+02  0.19259738500E+03  0.77499744322E+02 0.  0.
          5    1    5    5  501    0 -0.12885166069E+02  0.27808171138E+02 -0.23940498783E+02  0.39173452346E+02  0.47000000000E+01 0. -1.
        -11    1    6    6    0    0 -0.58238188239E+02 -0.88061698454E+02  0.72720901093E+01  0.10582737169E+03  0.00000000000E+00 0.  1.
         12    1    6    6    0    0 -0.27193828395E+02 -0.46575482713E+02  0.67972459991E+02  0.86770013311E+02  0.00000000000E+00 0. -1.
         -5    1    3    3    0  503  0.97224937784E+02  0.84368653871E+02 -0.21976918524E+03  0.25473779277E+03  0.47000000000E+01 0.  1.
         13    1    4    4    0    0 -0.10792546949E+02 -0.26201719872E+02 -0.55152448083E+01  0.28869137833E+02  0.00000000000E+00 0. -1.
        -14    1    4    4    0    0  0.11884791869E+02  0.48662076030E+02 -0.50251136390E+02  0.70953665372E+02  0.00000000000E+00 0.  1.
</event>
<event>
12    1  0.8416569E-002  0.2516055E+03  0.7818608E-02  0.1112451E+00
         21   -1    0    0  501  502  0.00000000000E+00  0.00000000000E+00  0.97273442669E+02  0.97273442669E+02  0.00000000000E+00 0. -1.
         21   -1    0    0  502  503 -0.00000000000E+00 -0.00000000000E+00 -0.94973876367E+03  0.94973876367E+03  0.00000000000E+00 0. -1.
         -6    2    1    2    0  503  0.16637129246E+03 -0.75845327657E+02 -0.13069163164E+03  0.28264148429E+03  0.17138840504E+03 0.  0.
        -24    2    3    3    0    0  0.68388946463E+02  0.17617274289E+02 -0.92161754032E+02  0.14177828982E+03  0.81362633968E+02 0.  0.
          6    2    1    2  501    0 -0.16637129246E+03  0.75845327657E+02 -0.72177368936E+03  0.76437072205E+03  0.17283929353E+03 0.  0.
         24    2    5    5    0    0 -0.17804039439E+02  0.41170983660E+02 -0.17703522584E+03  0.19865292806E+03  0.78163168569E+02 0.  0.
          5    1    5    5  501    0 -0.14856725302E+03  0.34674343997E+02 -0.54473846352E+03  0.56571779399E+03  0.47000000000E+01 0. -1.
        -13    1    6    6    0    0 -0.42747666559E+02  0.22796073038E+02 -0.57599095745E+02  0.75264066943E+02  0.00000000000E+00 0.  1.
         14    1    6    6    0    0  0.24943627121E+02  0.18374910623E+02 -0.11943613010E+03  0.12338886111E+03  0.00000000000E+00 0. -1.
         -5    1    3    3    0  503  0.97982345992E+02 -0.93462601946E+02 -0.38529877610E+02  0.14086319447E+03  0.47000000000E+01 0.  1.
         13    1    4    4    0    0  0.78480161450E+02  0.32612167601E+02 -0.57266465349E+02  0.10247993594E+03  0.00000000000E+00 0. -1.
        -14    1    4    4    0    0 -0.10091214986E+02 -0.14994893312E+02 -0.34895288683E+02  0.39298353879E+02  0.00000000000E+00 0.  1.
</event>
<event>
12    1  0.8416569E-002  0.1881774E+03  0.7818608E-02  0.1160589E+00
         21   -1    0    0  503  502  0.00000000000E+00  0.00000000000E+00  0.14671560841E+03  0.14671560841E+03  0.00000000000E+00 0. -1.
         21   -1    0    0  501  503 -0.00000000000E+00 -0.00000000000E+00 -0.24135472356E+03  0.24135472356E+03  0.00000000000E+00 0.  1.
          6    2    1    2  501    0  0.12854254980E+01  0.73105309949E+02 -0.27294198422E+02  0.19014656284E+03  0.17339176287E+03 0.  0.
         24    2    3    3    0    0 -0.41685988757E+01  0.11457970531E+03 -0.44926831428E+02  0.14450807471E+03  0.75619292429E+02 0.  0.
         -6    2    1    2    0  502 -0.12854254980E+01 -0.73105309949E+02 -0.67344916725E+02  0.19792376913E+03  0.17115034886E+03 0.  0.
        -24    2    5    5    0    0 -0.34778822791E+02 -0.11456256683E+02 -0.88808986795E+02  0.12440363763E+03  0.79046926500E+02 0.  0.
          5    1    3    3  501    0  0.54540243737E+01 -0.41474395364E+02  0.17632633006E+02  0.45638488137E+02  0.47000000000E+01 0. -1.
        -13    1    4    4    0    0  0.24436244926E+02  0.10348732279E+03 -0.30607375124E+02  0.11065065502E+03  0.00000000000E+00 0.  1.
         14    1    4    4    0    0 -0.28604843802E+02  0.11092382520E+02 -0.14319456304E+02  0.33857419685E+02  0.00000000000E+00 0. -1.
         -5    1    5    5    0  502  0.33493397293E+02 -0.61649053266E+02  0.21464070070E+02  0.73520131493E+02  0.47000000000E+01 0.  1.
         11    1    6    6    0    0 -0.25819302770E+01  0.10723534548E+01  0.14864484891E+02  0.15125118743E+02  0.00000000000E+00 0. -1.
        -12    1    6    6    0    0 -0.32196892514E+02 -0.12528610138E+02 -0.10367347169E+03  0.10927851889E+03  0.00000000000E+00 0.  1.
</event>
<event>
12    1  0.8416569E-002  0.1976189E+03  0.7818608E-02  0.1151949E+00
         21   -1    0    0  503  502  0.00000000000E+00  0.00000000000E+00  0.72899013670E+02  0.72899013670E+02  0.00000000000E+00 0. -1.
         21   -1    0    0  501  503 -0.00000000000E+00 -0.00000000000E+00 -0.56760645026E+03  0.56760645026E+03  0.00000000000E+00 0.  1.
          6    2    1    2  501    0  0.13520289936E+02  0.97106126592E+02 -0.16820977869E+03  0.25885910053E+03  0.17059046344E+03 0.  0.
         24    2    3    3    0    0 -0.35808873831E+02 -0.13562281787E+02 -0.41494193212E+02  0.83474401607E+02  0.61481677930E+02 0.  0.
         -6    2    1    2    0  502 -0.13520289936E+02 -0.97106126592E+02 -0.32649765790E+03  0.38164636340E+03  0.17158329763E+03 0.  0.
        -24    2    5    5    0    0  0.99872351910E+01 -0.94513109525E+01 -0.46952776044E+02  0.87701808405E+02  0.72787168332E+02 0.  0.
          5    1    3    3  501    0  0.49329163767E+02  0.11066840838E+03 -0.12671558548E+03  0.17538469892E+03  0.47000000000E+01 0. -1.
        -11    1    4    4    0    0  0.10091150478E+02 -0.22865386428E+02 -0.19672887719E+02  0.31806913175E+02  0.00000000000E+00 0.  1.
         12    1    4    4    0    0 -0.45900024309E+02  0.93031046412E+01 -0.21821305493E+02  0.51667488432E+02  0.00000000000E+00 0. -1.
         -5    1    5    5    0  502 -0.23507525127E+02 -0.87654815640E+02 -0.27954488185E+03  0.29394455500E+03  0.47000000000E+01 0.  1.
         13    1    6    6    0    0  0.54540483482E+01 -0.83447354599E+01  0.19067786658E+02  0.21516545757E+02  0.00000000000E+00 0. -1.
        -14    1    6    6    0    0  0.45331868428E+01 -0.11065754926E+01 -0.66020562702E+02  0.66185262648E+02  0.00000000000E+00 0.  1.
</event>
<event>
12    1  0.8416569E-002  0.1876489E+03  0.7818608E-02  0.1160649E+00
         21   -1    0    0  501  502  0.00000000000E+00  0.00000000000E+00  0.11285810746E+04  0.11285810746E+04  0.00000000000E+00 0.  1.
         21   -1    0    0  502  503 -0.00000000000E+00 -0.00000000000E+00 -0.47351931984E+02  0.47351931984E+02  0.00000000000E+00 0.  1.
         -6    2    1    2    0  503 -0.63792067924E+02 -0.38436274778E+02  0.19704428632E+03  0.27210028781E+03  0.17223629324E+03 0.  0.
        -24    2    3    3    0    0 -0.16850836185E+02 -0.14833627073E+02  0.20300702583E+03  0.21901348645E+03  0.79063692921E+02 0.  0.
          6    2    1    2  501    0  0.63792067924E+02  0.38436274778E+02  0.88418485634E+03  0.90383271881E+03  0.17199984961E+03 0.  0.
         24    2    5    5    0    0  0.10845852504E+03  0.13519046821E+02  0.63664592520E+03  0.65102137992E+03  0.81023371718E+02 0.  0.
          5    1    5    5  501    0 -0.44666457116E+02  0.24917227956E+02  0.24753893114E+03  0.25281133889E+03  0.47000000000E+01 0. -1.
        -11    1    6    6    0    0  0.20609310153E+02  0.29837976071E+02  0.31877258968E+03  0.32082863403E+03  0.00000000000E+00 0.  1.
         12    1    6    6    0    0  0.87849214887E+02 -0.16318929249E+02  0.31787333551E+03  0.33019274589E+03  0.00000000000E+00 0. -1.
         -5    1    3    3    0  503 -0.46941231739E+02 -0.23602647705E+02 -0.59627395174E+01  0.53086801358E+02  0.47000000000E+01 0.  1.
         13    1    4    4    0    0 -0.14123284720E+02  0.31682748500E+02  0.70925873715E+02  0.78954058072E+02  0.00000000000E+00 0. -1.
        -14    1    4    4    0    0 -0.27275514645E+01 -0.46516375573E+02  0.13208115212E+03  0.14005942838E+03  0.00000000000E+00 0.  1.
</event>
<event>
12    1  0.8416569E-002  0.2023117E+03  0.7818608E-02  0.1148068E+00
         21   -1    0    0  503  502  0.00000000000E+00  0.00000000000E+00  0.19755533227E+04  0.19755533227E+04  0.00000000000E+00 0.  1.
         21   -1    0    0  501  503 -0.00000000000E+00 -0.00000000000E+00 -0.29234859277E+02  0.29234859277E+02  0.00000000000E+00 0.  1.
          6    2    1    2  501    0  0.46650029859E+01  0.10334861190E+03  0.15161364288E+04  0.15294076848E+04  0.17238183653E+03 0.  0.
         24    2    3    3    0    0  0.19094125581E+02  0.84763043472E+02  0.53683998869E+03  0.54981734661E+03  0.80948020424E+02 0.  0.
         -6    2    1    2    0  502 -0.46650029859E+01 -0.10334861190E+03  0.43018203454E+03  0.47538049716E+03  0.17386010583E+03 0.  0.
        -24    2    5    5    0    0  0.36685013708E+02  0.68509558518E+01  0.16272444437E+03  0.18313159441E+03  0.75267590971E+02 0.  0.
          5    1    3    3  501    0 -0.14429122595E+02  0.18585568432E+02  0.97929644015E+03  0.97959033816E+03  0.47000000000E+01 0. -1.
        -13    1    4    4    0    0  0.29120571254E+02  0.48855964804E+02  0.46876260408E+03  0.47220047856E+03  0.00000000000E+00 0.  1.
         14    1    4    4    0    0 -0.10026445673E+02  0.35907078668E+02  0.68077384604E+02  0.77616868049E+02  0.00000000000E+00 0. -1.
         -5    1    5    5    0  502 -0.41350016694E+02 -0.11019956776E+03  0.26745759017E+03  0.29224890275E+03  0.47000000000E+01 0.  1.
         13    1    6    6    0    0  0.36395213315E+02  0.45905399252E+01  0.17082355186E+03  0.17471797411E+03  0.00000000000E+00 0. -1.
        -14    1    6    6    0    0  0.28980039317E+00  0.22604159266E+01 -0.80991074893E+01  0.84136203000E+01  0.00000000000E+00 0.  1.
</event>
<event>
12    1  0.8416569E-002  0.1838098E+03  0.7818608E-02  0.1164317E+00
         21   -1    0    0  501  502  0.00000000000E+00  0.00000000000E+00  0.32246211429E+03  0.32246211429E+03  0.00000000000E+00 0.  1.
         21   -1    0    0  502  503 -0.00000000000E+00 -0.00000000000E+00 -0.14214238344E+03  0.14214238344E+03  0.00000000000E+00 0.  1.
         -6    2    1    2    0  503 -0.39844706419E+02 -0.49380625829E+02 -0.29642176113E+02  0.18555246886E+03  0.17182844135E+03 0.  0.
        -24    2    3    3    0    0 -0.31146499086E+02 -0.92209364827E+02  0.10446667593E+02  0.12606158649E+03  0.79433741934E+02 0.  0.
          6    2    1    2  501    0  0.39844706419E+02  0.49380625829E+02  0.20996190696E+03  0.27905202887E+03  0.17251082750E+03 0.  0.
         24    2    5    5    0    0 -0.11931177314E+02 -0.22833346677E+02  0.53782283562E+02  0.99302857171E+02  0.79402825545E+02 0.  0.
          5    1    5    5  501    0  0.51775883733E+02  0.72213972507E+02  0.15617962340E+03  0.17974917170E+03  0.47000000000E+01 0. -1.
        -11    1    6    6    0    0 -0.36057268402E+02 -0.76510951624E+01  0.59725726818E+02  0.70184245424E+02  0.00000000000E+00 0.  1.
         12    1    6    6    0    0  0.24126091089E+02 -0.15182251515E+02 -0.59434432563E+01  0.29118611746E+02  0.00000000000E+00 0. -1.
         -5    1    3    3    0  503 -0.86982073336E+01  0.42828738997E+02 -0.40088843706E+02  0.59490882366E+02  0.47000000000E+01 0.  1.
         13    1    4    4    0    0 -0.22608659409E+02 -0.20058091835E+02  0.37827286458E+02  0.48418819989E+02  0.00000000000E+00 0. -1.
        -14    1    4    4    0    0 -0.85378396769E+01 -0.72151272992E+02 -0.27380618865E+02  0.77642766502E+02  0.00000000000E+00 0.  1.
</event>
<event>
12    1  0.8416569E-002  0.1869544E+03  0.7818608E-02  0.1162291E+00
         21   -1    0    0  503  502  0.00000000000E+00  0.00000000000E+00  0.58767565005E+02  0.58767565005E+02  0.00000000000E+00 0. -1.
         21   -1    0    0  501  503 -0.00000000000E+00 -0.00000000000E+00 -0.17448057932E+04  0.17448057932E+04  0.00000000000E+00 0.  1.
          6    2    1    2  501    0 -0.62512532181E+02 -0.38420380731E+02 -0.15762358634E+04  0.15867588876E+04  0.16703391248E+03 0.  0.
         24    2    3    3    0    0 -0.73531195466E+02 -0.44802651305E+02 -0.68553471742E+03  0.69595432666E+03  0.83549157570E+02 0.  0.
         -6    2    1    2    0  502  0.62512532181E+02  0.38420380731E+02 -0.10980236472E+03  0.21681447055E+03  0.17195351990E+03 0.  0.
        -24    2    5    5    0    0  0.51377886201E+02  0.22921731704E+02  0.11748871149E+01  0.10411030520E+03  0.87592706966E+02 0.  0.
          5    1    3    3  501    0  0.11018663285E+02  0.63822705743E+01 -0.89070114601E+03  0.89080456096E+03  0.47000000000E+01 0. -1.
        -11    1    4    4    0    0  0.10411763768E+02 -0.32261198081E+02 -0.24309291219E+03  0.24544521524E+03  0.00000000000E+00 0.  1.
         12    1    4    4    0    0 -0.83942959235E+02 -0.12541453225E+02 -0.44244180523E+03  0.45050911141E+03  0.00000000000E+00 0. -1.
         -5    1    5    5    0  502  0.11134645980E+02  0.15498649027E+02 -0.11097725183E+03  0.11270416535E+03  0.47000000000E+01 0.  1.
         13    1    6    6    0    0  0.17072970054E+02  0.54698759305E+02  0.21036478982E+01  0.57339915508E+02  0.00000000000E+00 0. -1.
        -14    1    6    6    0    0  0.34304916147E+02 -0.31777027601E+02 -0.92876078330E+00  0.46770389689E+02  0.00000000000E+00 0.  1.
</event>
<event>
12    1  0.8416569E-002  0.1909444E+03  0.7818608E-02  0.1157721E+00
         21   -1    0    0  503  502  0.00000000000E+00  0.00000000000E+00  0.26067249957E+03  0.26067249957E+03  0.00000000000E+00 0. -1.
         21   -1    0    0  501  503 -0.00000000000E+00 -0.00000000000E+00 -0.16814429083E+03  0.16814429083E+03  0.00000000000E+00 0. -1.
          6    2    1    2  501    0  0.34144138271E+02 -0.70379440821E+02  0.13469053825E+03  0.23327288361E+03  0.17365370500E+03 0.  0.
         24    2    3    3    0    0  0.86531128079E+02 -0.49508268842E+02  0.12002685940E+03  0.17481678043E+03  0.78840059180E+02 0.  0.
         -6    2    1    2    0  502 -0.34144138271E+02  0.70379440821E+02 -0.42162329509E+02  0.19554390679E+03  0.17418573301E+03 0.  0.
        -24    2    5    5    0    0  0.23978587532E+02  0.87108271473E+02  0.64025941128E+00  0.12129933360E+03  0.80933891422E+02 0.  0.
          5    1    3    3  501    0 -0.52386989808E+02 -0.20871171980E+02  0.14663678850E+02  0.58456103174E+02  0.47000000000E+01 0. -1.
        -13    1    4    4    0    0  0.35116348696E+02 -0.28932971625E+02  0.33005517742E+01  0.45619825020E+02  0.00000000000E+00 0.  1.
         14    1    4    4    0    0  0.51414779382E+02 -0.20575297217E+02  0.11672630763E+03  0.12919695541E+03  0.00000000000E+00 0. -1.
         -5    1    5    5    0  502 -0.58122725803E+02 -0.16728830652E+02 -0.42802588920E+02  0.74244573189E+02  0.47000000000E+01 0.  1.
         11    1    6    6    0    0  0.10399631817E+02  0.36226176115E+02 -0.39865158926E+02  0.54860906610E+02  0.00000000000E+00 0. -1.
        -12    1    6    6    0    0  0.13578955715E+02  0.50882095358E+02  0.40505418337E+02  0.66438426991E+02  0.00000000000E+00 0.  1.
</event>
<event>
12    1  0.8416569E-002  0.2478719E+03  0.7818608E-02  0.1114907E+00
         21   -1    0    0  503  502  0.00000000000E+00  0.00000000000E+00  0.15412434746E+03  0.15412434746E+03  0.00000000000E+00 0. -1.
         21   -1    0    0  501  503 -0.00000000000E+00 -0.00000000000E+00 -0.99676873196E+03  0.99676873196E+03  0.00000000000E+00 0.  1.
          6    2    1    2  501    0 -0.17254280100E+03 -0.39151378882E+02 -0.86854250031E+03  0.90322010352E+03  0.17359905508E+03 0.  0.
         24    2    3    3    0    0 -0.15618061113E+03  0.28235165848E+02 -0.66376129879E+03  0.68696539684E+03  0.78439701688E+02 0.  0.
         -6    2    1    2    0  502  0.17254280100E+03  0.39151378882E+02  0.25898115809E+02  0.24767297590E+03  0.17136902271E+03 0.  0.
        -24    2    5    5    0    0  0.39742620290E+02  0.51681072471E+02 -0.22711124076E+02  0.10562428911E+03  0.79939265529E+02 0.  0.
          5    1    3    3  501    0 -0.16362189868E+02 -0.67386544730E+02 -0.20478120152E+03  0.21625470669E+03  0.47000000000E+01 0. -1.
        -13    1    4    4    0    0 -0.66896547793E+02  0.93635403900E+01 -0.44246680965E+03  0.44759323234E+03  0.00000000000E+00 0.  1.
         14    1    4    4    0    0 -0.89284063338E+02  0.18871625458E+02 -0.22129448914E+03  0.23937216450E+03  0.00000000000E+00 0. -1.
         -5    1    5    5    0  502  0.13280018071E+03 -0.12529693590E+02  0.48609239884E+02  0.14204868679E+03  0.47000000000E+01 0.  1.
         11    1    6    6    0    0 -0.16368600290E+02  0.32960053797E+02  0.98587291093E+01  0.38098435157E+02  0.00000000000E+00 0. -1.
        -12    1    6    6    0    0  0.56111220580E+02  0.18721018675E+02 -0.32569853185E+02  0.67525853950E+02  0.00000000000E+00 0.  1.
</event>
<event>
12    1  0.8416569E-002  0.1961970E+03  0.7818608E-02  0.1153144E+00
         21   -1    0    0  503  502  0.00000000000E+00  0.00000000000E+00  0.11825093178E+04  0.11825093178E+04  0.00000000000E+00 0.  1.
         21   -1    0    0  501  503 -0.00000000000E+00 -0.00000000000E+00 -0.35777865018E+02  0.35777865018E+02  0.00000000000E+00 0.  1.
          6    2    1    2  501    0  0.90770402209E+02 -0.21458864141E+02  0.76058957288E+03  0.78548696038E+03  0.17260798880E+03 0.  0.
         24    2    3    3    0    0  0.79960307421E+02  0.45942217158E+02  0.38686293927E+03  0.40554821456E+03  0.79385656597E+02 0.  0.
         -6    2    1    2    0  502 -0.90770402209E+02  0.21458864141E+02  0.38614187990E+03  0.43280022243E+03  0.17178688063E+03 0.  0.
        -24    2    5    5    0    0 -0.56569127027E+02  0.29282002104E+01  0.63286929685E+02  0.10757642009E+03  0.66021285972E+02 0.  0.
          5    1    3    3  501    0  0.10810094788E+02 -0.67401081299E+02  0.37372663360E+03  0.37993874582E+03  0.47000000000E+01 0. -1.
        -11    1    4    4    0    0  0.82950623042E+02  0.10924259655E+02  0.22860017479E+03  0.24343004175E+03  0.00000000000E+00 0.  1.
         12    1    4    4    0    0 -0.29903156209E+01  0.35017957503E+02  0.15826276448E+03  0.16211817281E+03  0.00000000000E+00 0. -1.
         -5    1    5    5    0  502 -0.34201275182E+02  0.18530663931E+02  0.32285495021E+03  0.32522380234E+03  0.47000000000E+01 0.  1.
         11    1    6    6    0    0 -0.27724349597E+02  0.33278059268E+02  0.21252648135E+02  0.48246697731E+02  0.00000000000E+00 0. -1.
        -12    1    6    6    0    0 -0.28844777430E+02 -0.30349859057E+02  0.42034281549E+02  0.59329722359E+02  0.00000000000E+00 0.  1.
</event>
<event>
12    1  0.8416569E-002  0.2056360E+03  0.7818608E-02  0.1148549E+00
         21   -1    0    0  503  502  0.00000000000E+00  0.00000000000E+00  0.22680478722E+04  0.22680478722E+04  0.00000000000E+00 0.  1.
         21   -1    0    0  501  503 -0.00000000000E+00 -0.00000000000E+00 -0.44277943892E+02  0.44277943892E+02  0.00000000000E+00 0. -1.
          6    2    1    2  501    0 -0.51513616601E+02 -0.61005784186E+02  0.22577526243E+03  0.30538603818E+03  0.18950146382E+03 0.  0.
         24    2    3    3    0    0 -0.84184035776E+02 -0.93030710829E+02  0.11402987978E+03  0.18454700161E+03  0.72891133093E+02 0.  0.
         -6    2    1    2    0  502  0.51513616601E+02  0.61005784186E+02  0.19979946659E+04  0.20069397779E+04  0.17160777630E+03 0.  0.
        -24    2    5    5    0    0  0.23496504740E+02 -0.21458315850E+02  0.13896883178E+04  0.13924123258E+04  0.81030359790E+02 0.  0.
          5    1    3    3  501    0  0.32670419175E+02  0.32024926642E+02  0.11174538265E+03  0.12083903657E+03  0.47000000000E+01 0. -1.
        -13    1    4    4    0    0 -0.10650437890E+02 -0.37354651132E+02  0.74866450385E+02  0.84343269926E+02  0.00000000000E+00 0.  1.
         14    1    4    4    0    0 -0.73533597886E+02 -0.55676059697E+02  0.39163429394E+02  0.10020373168E+03  0.00000000000E+00 0. -1.
         -5    1    5    5    0  502  0.28017111861E+02  0.82464100036E+02  0.60830634804E+03  0.61452745213E+03  0.47000000000E+01 0.  1.
         13    1    6    6    0    0  0.45504000179E+02 -0.29984886978E+02  0.62847318675E+03  0.63083139898E+03  0.00000000000E+00 0. -1.
        -14    1    6    6    0    0 -0.22007495439E+02  0.85265711280E+01  0.76121513107E+03  0.76158092678E+03  0.00000000000E+00 0.  1.
</event>
<event>
12    1  0.8416569E-002  0.1763259E+03  0.7818608E-02  0.1171560E+00
         21   -1    0    0  503  502  0.00000000000E+00  0.00000000000E+00  0.55578937897E+03  0.55578937897E+03  0.00000000000E+00 0. -1.
         21   -1    0    0  501  503 -0.00000000000E+00 -0.00000000000E+00 -0.56598898633E+02  0.56598898633E+02  0.00000000000E+00 0. -1.
          6    2    1    2  501    0 -0.28245300603E+01 -0.35145110659E+02  0.28764167847E+03  0.33738485964E+03  0.17276472889E+03 0.  0.
         24    2    3    3    0    0 -0.59181535425E+02  0.12221960825E+02  0.14940314896E+03  0.18069493477E+03  0.81716143266E+02 0.  0.
         -6    2    1    2    0  502  0.28245300603E+01  0.35145110659E+02  0.21154880187E+03  0.27500341797E+03  0.17213607277E+03 0.  0.
        -24    2    5    5    0    0 -0.56103051165E+02  0.56518466185E+02  0.13573912137E+03  0.17652256799E+03  0.79957604817E+02 0.  0.
          5    1    3    3  501    0  0.56357005365E+02 -0.47367071484E+02  0.13823852951E+03  0.15668992487E+03  0.47000000000E+01 0. -1.
        -11    1    4    4    0    0 -0.35199356696E+02 -0.10623401611E+02  0.14209718113E+03  0.14677690642E+03  0.00000000000E+00 0.  1.
         12    1    4    4    0    0 -0.23982178729E+02  0.22845362436E+02  0.73059678379E+01  0.33918028355E+02  0.00000000000E+00 0. -1.
         -5    1    5    5    0  502  0.58927581226E+02 -0.21373355526E+02  0.75809680497E+02  0.98480849979E+02  0.47000000000E+01 0.  1.
         11    1    6    6    0    0 -0.15383426206E+02  0.66064312888E+02  0.10335920905E+03  0.12362956497E+03  0.00000000000E+00 0. -1.
        -12    1    6    6    0    0 -0.40719624959E+02 -0.95458467032E+01  0.32379912318E+02  0.52893003014E+02  0.00000000000E+00 0.  1.
</event>
<event>
12    1  0.8416569E-002  0.2325671E+03  0.7818608E-02  0.1125616E+00
         21   -1    0    0  501  502  0.00000000000E+00  0.00000000000E+00  0.10871967678E+03  0.10871967678E+03  0.00000000000E+00 0. -1.
         21   -1    0    0  502  503 -0.00000000000E+00 -0.00000000000E+00 -0.62315896273E+03  0.62315896273E+03  0.00000000000E+00 0.  1.
         -6    2    1    2    0  503  0.42803594767E+02 -0.15079193458E+03 -0.42562972917E+03  0.48293168327E+03  0.16580708398E+03 0.  0.
        -24    2    3    3    0    0  0.77433141458E+02 -0.14752763102E+03 -0.29110708519E+03  0.34390545221E+03  0.75942950307E+02 0.  0.
          6    2    1    2  501    0 -0.42803594767E+02  0.15079193458E+03 -0.88809556785E+02  0.24894695623E+03  0.17180539684E+03 0.  0.
         24    2    5    5    0    0  0.23231057186E+02  0.33839327219E+02 -0.68839019250E+02  0.11308158170E+03  0.79773751728E+02 0.  0.
          5    1    5    5  501    0 -0.66034651953E+02  0.11695260736E+03 -0.19970537536E+02  0.13586537453E+03  0.47000000000E+01 0. -1.
        -13    1    6    6    0    0  0.50082313927E+02  0.11893538097E+02 -0.25116406145E+02  0.57275896103E+02  0.00000000000E+00 0.  1.
         14    1    6    6    0    0 -0.26851256741E+02  0.21945789122E+02 -0.43722613104E+02  0.55805685601E+02  0.00000000000E+00 0. -1.
         -5    1    3    3    0  503 -0.34629546690E+02 -0.32643035628E+01 -0.13452264397E+03  0.13902623106E+03  0.47000000000E+01 0.  1.
         13    1    4    4    0    0  0.53948790392E+02 -0.28694114258E+02 -0.82258738384E+02  0.10247108967E+03  0.00000000000E+00 0. -1.
        -14    1    4    4    0    0  0.23484351066E+02 -0.11883351676E+03 -0.20884834681E+03  0.24143436254E+03  0.00000000000E+00 0.  1.
</event>
<event>
12    1  0.8416569E-002  0.1731330E+03  0.7818608E-02  0.1174805E+00
         21   -1    0    0  501  502  0.00000000000E+00  0.00000000000E+00  0.59893601984E+03  0.59893601984E+03  0.00000000000E+00 0.  1.
         21   -1    0    0  502  503 -0.00000000000E+00 -0.00000000000E+00 -0.14036019099E+03  0.14036019099E+03  0.00000000000E+00 0.  1.
         -6    2    1    2    0  503  0.85450933571E+01 -0.42223550250E+01 -0.67397005819E+02  0.18578859375E+03  0.17287046674E+03 0.  0.
        -24    2    3    3    0    0 -0.45283728062E+02  0.43724285920E+02 -0.39722155917E+02  0.10842962717E+03  0.78846085323E+02 0.  0.
          6    2    1    2  501    0 -0.85450933571E+01  0.42223550250E+01  0.52597283467E+03  0.55350761707E+03  0.17214067633E+03 0.  0.
         24    2    5    5    0    0 -0.64532399135E+02  0.76959809519E+01  0.24706707617E+03  0.26897790578E+03  0.84162432290E+02 0.  0.
          5    1    5    5  501    0  0.55987305778E+02 -0.34736259269E+01  0.27890575850E+03  0.28452971130E+03  0.47000000000E+01 0. -1.
        -13    1    6    6    0    0 -0.73679769383E+02 -0.15519241889E+02  0.21817315035E+03  0.23080095064E+03  0.00000000000E+00 0.  1.
         14    1    6    6    0    0  0.91473702481E+01  0.23215222840E+02  0.28893925821E+02  0.38176955135E+02  0.00000000000E+00 0. -1.
         -5    1    3    3    0  503  0.53828821419E+02 -0.47946640945E+02 -0.27674849902E+02  0.77358966581E+02  0.47000000000E+01 0.  1.
         13    1    4    4    0    0 -0.22484407525E+01  0.18088556386E+02  0.22237808776E+02  0.28753634503E+02  0.00000000000E+00 0. -1.
        -14    1    4    4    0    0 -0.43035287310E+02  0.25635729534E+02 -0.61959964692E+02  0.79675992666E+02  0.00000000000E+00 0.  1.
</event>
<event>
12    1  0.8416569E-002  0.1975751E+03  0.7818608E-02  0.1151996E+00
         21   -1    0    0  503  502  0.00000000000E+00  0.00000000000E+00  0.40317127586E+03  0.40317127586E+03  0.00000000000E+00 0.  1.
         21   -1    0    0  501  503 -0.00000000000E+00 -0.00000000000E+00 -0.10876942077E+03  0.10876942077E+03  0.00000000000E+00 0.  1.
          6    2    1    2  501    0  0.84443249911E+02 -0.48208529801E+02  0.61102973326E+02  0.20680783465E+03  0.17199180888E+03 0.  0.
         24    2    3    3    0    0  0.67586423526E+02 -0.99209897238E+02  0.36874451447E+02  0.14769435608E+03  0.77739110443E+02 0.  0.
         -6    2    1    2    0  502 -0.84443249911E+02  0.48208529801E+02  0.23329888177E+03  0.30513286198E+03  0.17094727382E+03 0.  0.
        -24    2    5    5    0    0 -0.11418798330E+03  0.60067560861E+01  0.18793127899E+03  0.23624129318E+03  0.86120882099E+02 0.  0.
          5    1    3    3  501    0  0.16856826385E+02  0.51001367436E+02  0.24228521879E+02  0.59113478569E+02  0.47000000000E+01 0. -1.
        -13    1    4    4    0    0  0.11967128758E+02  0.47365565174E+00  0.31181091824E+02  0.33402050951E+02  0.00000000000E+00 0.  1.
         14    1    4    4    0    0  0.55619294768E+02 -0.99683552889E+02  0.56933596230E+01  0.11429230513E+03  0.00000000000E+00 0. -1.
         -5    1    5    5    0  502  0.29744733394E+02  0.42201773715E+02  0.45367602786E+02  0.68891568801E+02  0.47000000000E+01 0.  1.
         11    1    6    6    0    0 -0.26507194336E+02 -0.89335211874E+00  0.12577991727E+03  0.12854577791E+03  0.00000000000E+00 0. -1.
        -12    1    6    6    0    0 -0.87680788968E+02  0.69001082049E+01  0.62151361718E+02  0.10769551528E+03  0.00000000000E+00 0.  1.
</event>
<event>
12    1  0.8416569E-002  0.1885815E+03  0.7818608E-02  0.1160601E+00
         21   -1    0    0  501  502  0.00000000000E+00  0.00000000000E+00  0.10130760364E+04  0.10130760364E+04  0.00000000000E+00 0. -1.
         21   -1    0    0  502  503 -0.00000000000E+00 -0.00000000000E+00 -0.83224824738E+02  0.83224824738E+02  0.00000000000E+00 0.  1.
         -6    2    1    2    0  503 -0.53086291396E+01  0.77641844491E+02  0.47065963381E+02  0.19436613935E+03  0.17177471774E+03 0.  0.
        -24    2    3    3    0    0  0.58358090443E+02  0.31322762519E+02  0.23992432218E+01  0.10372335460E+03  0.79787190381E+02 0.  0.
          6    2    1    2  501    0  0.53086291396E+01 -0.77641844491E+02  0.88278524825E+03  0.90193472177E+03  0.16769022104E+03 0.  0.
         24    2    5    5    0    0  0.42621569688E+02 -0.98673891118E+02  0.54477472810E+03  0.56118876911E+03  0.81241585449E+02 0.  0.
          5    1    5    5  501    0 -0.37312940548E+02  0.21032046627E+02  0.33801052015E+03  0.34074595265E+03  0.47000000000E+01 0. -1.
        -13    1    6    6    0    0  0.21482339333E+02 -0.30723652748E+02  0.56825564600E+02  0.68077738898E+02  0.00000000000E+00 0.  1.
         14    1    6    6    0    0  0.21139230354E+02 -0.67950238370E+02  0.48794916350E+03  0.49311103021E+03  0.00000000000E+00 0. -1.
         -5    1    3    3    0  503 -0.63666719582E+02  0.46319081972E+02  0.44666720159E+02  0.90642784748E+02  0.47000000000E+01 0.  1.
         11    1    4    4    0    0  0.70278698615E+02  0.64392836044E+00  0.63774648044E+01  0.70570405837E+02  0.00000000000E+00 0. -1.
        -12    1    4    4    0    0 -0.11920608172E+02  0.30678834158E+02 -0.39782215826E+01  0.33152948760E+02  0.00000000000E+00 0.  1.
</event>
<event>
12    1  0.8416569E-002  0.2652842E+03  0.7818608E-02  0.1104290E+00
         21   -1    0    0  503  502  0.00000000000E+00  0.00000000000E+00  0.12330201963E+04  0.12330201963E+04  0.00000000000E+00 0. -1.
         21   -1    0    0  501  503 -0.00000000000E+00 -0.00000000000E+00 -0.86955242505E+02  0.86955242505E+02  0.00000000000E+00 0.  1.
          6    2    1    2  501    0  0.17338702174E+03 -0.10207374649E+03  0.18486070162E+03  0.32334066565E+03  0.17289765188E+03 0.  0.
         24    2    3    3    0    0  0.13305075406E+03 -0.13952791900E+03  0.12722660590E+03  0.24350578280E+03  0.77057859272E+02 0.  0.
         -6    2    1    2    0  502 -0.17338702174E+03  0.10207374649E+03  0.96120425221E+03  0.99663477320E+03  0.16995631098E+03 0.  0.
        -24    2    5    5    0    0 -0.11627772296E+03  0.24212107163E+02  0.75845475213E+03  0.77201652668E+03  0.81542451776E+02 0.  0.
          5    1    3    3  501    0  0.40336267680E+02  0.37454172505E+02  0.57634095725E+02  0.79834882842E+02  0.47000000000E+01 0. -1.
        -11    1    4    4    0    0 -0.35744795643E+01 -0.12248208835E+02 -0.60245453900E+01  0.14109949362E+02  0.00000000000E+00 0.  1.
         12    1    4    4    0    0  0.13662523362E+03 -0.12727971016E+03  0.13325115129E+03  0.22939583344E+03  0.00000000000E+00 0. -1.
         -5    1    5    5    0  502 -0.57109298775E+02  0.77861639331E+02  0.20274950008E+03  0.22461824652E+03  0.47000000000E+01 0.  1.
         13    1    6    6    0    0 -0.30091142940E+02  0.46174567317E+02  0.28494353336E+03  0.29022471424E+03  0.00000000000E+00 0. -1.
        -14    1    6    6    0    0 -0.86186580024E+02 -0.21962460154E+02  0.47351121877E+03  0.48179181244E+03  0.00000000000E+00 0.  1.
</event>
<event>
12    1  0.8416569E-002  0.2610163E+03  0.7818608E-02  0.1106602E+00
         21   -1    0    0  501  502  0.00000000000E+00  0.00000000000E+00  0.53982660910E+03  0.53982660910E+03  0.00000000000E+00 0. -1.
         21   -1    0    0  502  503 -0.00000000000E+00 -0.00000000000E+00 -0.14767645185E+03  0.14767645185E+03  0.00000000000E+00 0. -1.
         -6    2    1    2    0  503 -0.19460804472E+03  0.26150910143E+02  0.64482626148E+02  0.26886337482E+03  0.17196902068E+03 0.  0.
        -24    2    3    3    0    0 -0.10402602359E+03  0.81669725852E+02  0.29400488504E+02  0.15687994822E+03  0.79092172347E+02 0.  0.
          6    2    1    2  501    0  0.19460804472E+03 -0.26150910143E+02  0.32766753110E+03  0.41863968613E+03  0.17128051464E+03 0.  0.
         24    2    5    5    0    0  0.16947579614E+02 -0.42308008343E-01  0.11793454096E+03  0.14249675734E+03  0.78163595472E+02 0.  0.
          5    1    5    5  501    0  0.17766046510E+03 -0.26108602135E+02  0.20973299014E+03  0.27614292878E+03  0.47000000000E+01 0. -1.
        -13    1    6    6    0    0  0.32810835823E+02 -0.99053022222E+01  0.14207924617E+02  0.37101631790E+02  0.00000000000E+00 0.  1.
         14    1    6    6    0    0 -0.15863256210E+02  0.98629942139E+01  0.10372661634E+03  0.10539512555E+03  0.00000000000E+00 0. -1.
         -5    1    3    3    0  503 -0.90582021130E+02 -0.55518815709E+02  0.35082137644E+02  0.11198342659E+03  0.47000000000E+01 0.  1.
         11    1    4    4    0    0 -0.66980246670E+02  0.46938760964E+02 -0.21926677584E+02  0.84678095838E+02  0.00000000000E+00 0. -1.
        -12    1    4    4    0    0 -0.37045776916E+02  0.34730964888E+02  0.51327166088E+02  0.72201852386E+02  0.00000000000E+00 0.  1.
</event>
<event>
12    1  0.8416569E-002  0.1905933E+03  0.7818608E-02  0.1161964E+00
         21   -1    0    0  501  502  0.00000000000E+00  0.00000000000E+00  0.66380922036E+02  0.66380922036E+02  0.00000000000E+00 0.  1.
         21   -1    0    0  502  503 -0.00000000000E+00 -0.00000000000E+00 -0.92885920821E+03  0.92885920821E+03  0.00000000000E+00 0.  1.
         -6    2    1    2    0  503  0.19185900608E+02 -0.22537685968E+01 -0.78034716766E+03  0.80328544508E+03  0.18961177694E+03 0.  0.
        -24    2    3    3    0    0  0.86461634827E+02  0.15681056886E+02 -0.55885463232E+03  0.57105987459E+03  0.77906164446E+02 0.  0.
          6    2    1    2  501    0 -0.19185900608E+02  0.22537685968E+01 -0.82131118508E+02  0.19195468516E+03  0.17241781309E+03 0.  0.
         24    2    5    5    0    0 -0.58339413015E+01 -0.63960193325E+02 -0.32422458876E+02  0.10795703987E+03  0.80489536075E+02 0.  0.
          5    1    5    5  501    0 -0.13351959307E+02  0.66213961922E+02 -0.49708659633E+02  0.83997645284E+02  0.47000000000E+01 0. -1.
        -13    1    6    6    0    0 -0.20640682270E+02 -0.13847833969E+02  0.21504013308E+02  0.32866743960E+02  0.00000000000E+00 0.  1.
         14    1    6    6    0    0  0.14806740968E+02 -0.50112359356E+02 -0.53926472183E+02  0.75090295914E+02  0.00000000000E+00 0. -1.
         -5    1    3    3    0  503 -0.67275734219E+02 -0.17934825483E+02 -0.22149253534E+03  0.23222557049E+03  0.47000000000E+01 0.  1.
         11    1    4    4    0    0  0.56118022773E+02  0.10955776523E+02 -0.14205252038E+03  0.15312798590E+03  0.00000000000E+00 0. -1.
        -12    1    4    4    0    0  0.30343612054E+02  0.47252803633E+01 -0.41680211194E+03  0.41793188869E+03  0.00000000000E+00 0.  1.
</event>
<event>
12    1  0.8416569E-002  0.2280308E+03  0.7818608E-02  0.1128545E+00
         21   -1    0    0  503  502  0.00000000000E+00  0.00000000000E+00  0.11230546739E+04  0.11230546739E+04  0.00000000000E+00 0.  1.
         21   -1    0    0  501  503 -0.00000000000E+00 -0.00000000000E+00 -0.45906028559E+02  0.45906028559E+02  0.00000000000E+00 0. -1.
          6    2    1    2  501    0 -0.11021154223E+03 -0.99459821810E+02  0.50499446599E+03  0.55409157839E+03  0.17308733739E+03 0.  0.
         24    2    3    3    0    0 -0.27916725547E+02 -0.51690501207E+02  0.40280987976E+03  0.41438429688E+03  0.77506740269E+02 0.  0.
         -6    2    1    2    0  502  0.11021154223E+03  0.99459821810E+02  0.57215417931E+03  0.61486912403E+03  0.16930680609E+03 0.  0.
        -24    2    5    5    0    0  0.10032935379E+03  0.40020192015E+02  0.22359253825E+03  0.26110644248E+03  0.80717756061E+02 0.  0.
          5    1    3    3  501    0 -0.82294816681E+02 -0.47769320603E+02  0.10218458623E+03  0.13970728151E+03  0.47000000000E+01 0. -1.
        -13    1    4    4    0    0 -0.51449168366E+02 -0.51021694685E+02  0.27272741542E+03  0.28218871944E+03  0.00000000000E+00 0.  1.
         14    1    4    4    0    0  0.23532442819E+02 -0.66880652254E+00  0.13008246434E+03  0.13219557745E+03  0.00000000000E+00 0. -1.
         -5    1    5    5    0  502  0.98821884416E+01  0.59439629795E+02  0.34856164106E+03  0.35376268155E+03  0.47000000000E+01 0.  1.
         13    1    6    6    0    0  0.47280465485E+02  0.43025585259E+02  0.54971386883E+02  0.84311901765E+02  0.00000000000E+00 0. -1.
        -14    1    6    6    0    0  0.53048888302E+02 -0.30053932440E+01  0.16862115137E+03  0.17679454072E+03  0.00000000000E+00 0.  1.
</event>
<event>
12    1  0.8416569E-002  0.2602349E+03  0.7818608E-02  0.1107460E+00
         21   -1    0    0  503  502  0.00000000000E+00  0.00000000000E+00  0.30366767821E+03  0.30366767821E+03  0.00000000000E+00 0.  1.
         21   -1    0    0  501  503 -0.00000000000E+00 -0.00000000000E+00 -0.44202315468E+03  0.44202315468E+03  0.00000000000E+00 0. -1.
          6    2    1    2  501    0  0.16069211337E+03 -0.10863377231E+03 -0.33296646256E+03  0.42073600134E+03  0.16890490178E+03 0.  0.
         24    2    3    3    0    0  0.75720259575E+02 -0.42923488123E+02 -0.71340869680E+02  0.13787897343E+03  0.79656186738E+02 0.  0.
         -6    2    1    2    0  502 -0.16069211337E+03  0.10863377231E+03  0.19461098609E+03  0.32495483154E+03  0.17349050362E+03 0.  0.
        -24    2    5    5    0    0 -0.58846641311E+02  0.12167307773E+03  0.12542274208E+03  0.20105314966E+03  0.80151355057E+02 0.  0.
          5    1    3    3  501    0  0.84971853798E+02 -0.65710284190E+02 -0.26162559288E+03  0.28285702791E+03  0.47000000000E+01 0. -1.
        -13    1    4    4    0    0  0.52864268615E+02 -0.56400427532E+02 -0.78729762329E+02  0.11033591708E+03  0.00000000000E+00 0.  1.
         14    1    4    4    0    0  0.22855990960E+02  0.13476939409E+02  0.73888926488E+01  0.27543056351E+02  0.00000000000E+00 0. -1.
         -5    1    5    5    0  502 -0.10184547206E+03 -0.13039305416E+02  0.69188244009E+02  0.12390168189E+03  0.47000000000E+01 0.  1.
         13    1    6    6    0    0  0.17498657365E+02  0.66039634739E+01  0.10872593223E+02  0.21633969274E+02  0.00000000000E+00 0. -1.
        -14    1    6    6    0    0 -0.76345298676E+02  0.11506911425E+03  0.11455014886E+03  0.17941918038E+03  0.00000000000E+00 0.  1.
</event>
<event>
12    1  0.8416569E-002  0.2067675E+03  0.7818608E-02  0.1144249E+00
         21   -1    0    0  501  502  0.00000000000E+00  0.00000000000E+00  0.45508978605E+03  0.45508978605E+03  0.00000000000E+00 0.  1.
         21   -1    0    0  502  503 -0.00000000000E+00 -0.00000000000E+00 -0.13055478472E+03  0.13055478472E+03  0.00000000000E+00 0.  1.
         -6    2    1    2    0  503  0.10305620598E+03  0.54309933436E+02  0.66062812545E+01  0.20639339484E+03  0.17024817186E+03 0.  0.
        -24    2    3    3    0    0  0.92867070783E+02  0.99571037964E+02  0.17570495516E+02  0.15849047162E+03  0.79194841012E+02 0.  0.
          6    2    1    2  501    0 -0.10305620598E+03 -0.54309933436E+02  0.31792872008E+03  0.37925117593E+03  0.17082925083E+03 0.  0.
         24    2    5    5    0    0 -0.86144596520E+02 -0.13639372434E+01  0.10101657898E+03  0.15528187446E+03  0.80531729604E+02 0.  0.
          5    1    5    5  501    0 -0.16911609456E+02 -0.52945996193E+02  0.21691214110E+03  0.22396930148E+03  0.47000000000E+01 0. -1.
        -11    1    6    6    0    0 -0.13689079381E+02  0.32715655655E+02  0.46214328114E+02  0.58253490387E+02  0.00000000000E+00 0.  1.
         12    1    6    6    0    0 -0.72455517139E+02 -0.34079592899E+02  0.54802250863E+02  0.97028384072E+02  0.00000000000E+00 0. -1.
         -5    1    3    3    0  503  0.10189135192E+02 -0.45261104528E+02 -0.10964214262E+02  0.47902923224E+02  0.47000000000E+01 0.  1.
         13    1    4    4    0    0  0.16296655723E+02  0.69258309350E+01  0.32862382363E+02  0.37329402573E+02  0.00000000000E+00 0. -1.
        -14    1    4    4    0    0  0.76570415061E+02  0.92645207029E+02 -0.15291886847E+02  0.12116106904E+03  0.00000000000E+00 0.  1.
</event>
<event>
12    1  0.8416569E-002  0.1889855E+03  0.7818608E-02  0.1159497E+00
         21   -1    0    0  503  502  0.00000000000E+00  0.00000000000E+00  0.18812194292E+04  0.18812194292E+04  0.00000000000E+00 0. -1.
         21   -1    0    0  501  503 -0.00000000000E+00 -0.00000000000E+00 -0.24616634318E+02  0.24616634318E+02  0.00000000000E+00 0. -1.
          6    2    1    2  501    0 -0.12530268531E+02  0.77234172072E+02  0.47141575198E+03  0.50788613010E+03  0.17202727973E+03 0.  0.
         24    2    3    3    0    0 -0.39747850935E+02  0.10128707404E+03  0.43797633971E+03  0.45829154191E+03  0.79805389681E+02 0.  0.
         -6    2    1    2    0  502  0.12530268531E+02 -0.77234172072E+02  0.13851870429E+04  0.13979499334E+04  0.17146062971E+03 0.  0.
        -24    2    5    5    0    0 -0.51496431341E+02 -0.46041049093E+02  0.10566285607E+04  0.10617279897E+04  0.77657891756E+02 0.  0.
          5    1    3    3  501    0  0.27217582403E+02 -0.24052901967E+02  0.33439412269E+02  0.49594588191E+02  0.47000000000E+01 0. -1.
        -13    1    4    4    0    0 -0.69876516720E+00  0.12325348690E+02  0.21144781488E+03  0.21180788680E+03  0.00000000000E+00 0.  1.
         14    1    4    4    0    0 -0.39049085767E+02  0.88961725350E+02  0.22652852483E+03  0.24648365511E+03  0.00000000000E+00 0. -1.
         -5    1    5    5    0  502  0.64026699872E+02 -0.31193122979E+02  0.32855848223E+03  0.33622194376E+03  0.47000000000E+01 0.  1.
         11    1    6    6    0    0  0.10776127201E+02 -0.33920925111E+02  0.54864766626E+03  0.54980088739E+03  0.00000000000E+00 0. -1.
        -12    1    6    6    0    0 -0.62272558541E+02 -0.12120123982E+02  0.50798089443E+03  0.51192710229E+03  0.00000000000E+00 0.  1.
</event>
<event>
12    1  0.8416569E-002  0.2008952E+03  0.7818608E-02  0.1149263E+00
         21   -1    0    0  501  502  0.00000000000E+00  0.00000000000E+00  0.11237395426E+03  0.11237395426E+03  0.00000000000E+00 0.  1.
         21   -1    0    0  502  503 -0.00000000000E+00 -0.00000000000E+00 -0.39409344257E+03  0.39409344257E+03  0.00000000000E+00 0.  1.
         -6    2    1    2    0  503  0.80022678350E+02 -0.63909804190E+02 -0.21834054871E+03  0.29581179215E+03  0.17130069773E+03 0.  0.
        -24    2    3    3    0    0  0.42617092356E+02  0.25159054283E+02 -0.14085154303E+03  0.17188005524E+03  0.85172775236E+02 0.  0.
          6    2    1    2  501    0 -0.80022678350E+02  0.63909804190E+02 -0.63378939602E+02  0.21065560467E+03  0.17283171489E+03 0.  0.
         24    2    5    5    0    0  0.66620530553E+01 -0.19988345904E+02 -0.33481392642E+02  0.86280785830E+02  0.76677594037E+02 0.  0.
          5    1    5    5  501    0 -0.86684731405E+02  0.83898150094E+02 -0.29897546960E+02  0.12437481884E+03  0.47000000000E+01 0. -1.
        -13    1    6    6    0    0 -0.32679848968E+02  0.45662002884E+01 -0.11348824871E+02  0.34894391234E+02  0.00000000000E+00 0.  1.
         14    1    6    6    0    0  0.39341902023E+02 -0.24554546192E+02 -0.22132567771E+02  0.51386394597E+02  0.00000000000E+00 0. -1.
         -5    1    3    3    0  503  0.37405585994E+02 -0.89068858473E+02 -0.77489005672E+02  0.12393173691E+03  0.47000000000E+01 0.  1.
         11    1    4    4    0    0  0.80585191637E+01 -0.39542805739E+00  0.11237812861E+02  0.13834179859E+02  0.00000000000E+00 0. -1.
        -12    1    4    4    0    0  0.34558573192E+02  0.25554482340E+02 -0.15208935590E+03  0.15804587538E+03  0.00000000000E+00 0.  1.
</event>
<event>
12    1  0.8416569E-002  0.1812972E+03  0.7818608E-02  0.1166623E+00
         21   -1    0    0  503  502  0.00000000000E+00  0.00000000000E+00  0.29500225480E+03  0.29500225480E+03  0.00000000000E+00 0. -1.
         21   -1    0    0  501  503 -0.00000000000E+00 -0.00000000000E+00 -0.15180690499E+03  0.15180690499E+03  0.00000000000E+00 0. -1.
          6    2    1    2  501    0 -0.56108278969E+02  0.19937976931E+01 -0.43846059988E+02  0.18652381641E+03  0.17238486858E+03 0.  0.
         24    2    3    3    0    0 -0.56302521706E+02  0.13399331688E+02 -0.93456254720E+02  0.13540253555E+03  0.79058579838E+02 0.  0.
         -6    2    1    2    0  502  0.56108278969E+02 -0.19937976931E+01  0.18704140980E+03  0.26028534338E+03  0.17208096001E+03 0.  0.
        -24    2    5    5    0    0  0.80017988424E+02 -0.52560384962E+02  0.11762912391E+03  0.17101715539E+03  0.79023946408E+02 0.  0.
          5    1    3    3  501    0  0.19424273632E+00 -0.11405533995E+02  0.49610194732E+02  0.51121280866E+02  0.47000000000E+01 0. -1.
        -11    1    4    4    0    0  0.48863719475E+01  0.97964028161E+01  0.10210880516E+02  0.14970244482E+02  0.00000000000E+00 0.  1.
         12    1    4    4    0    0 -0.61188893653E+02  0.36029288721E+01 -0.10366713524E+03  0.12043229106E+03  0.00000000000E+00 0. -1.
         -5    1    5    5    0  502 -0.23909709454E+02  0.50566587269E+02  0.69412285887E+02  0.89268187986E+02  0.47000000000E+01 0.  1.
         11    1    6    6    0    0  0.69496644948E+02 -0.43882376362E+02  0.12920265564E+03  0.15312992144E+03  0.00000000000E+00 0. -1.
        -12    1    6    6    0    0  0.10521343476E+02 -0.86780086005E+01 -0.11573531728E+02  0.17887233953E+02  0.00000000000E+00 0.  1.
</event>
<event>
12    1  0.8416569E-002  0.1845189E+03  0.7818608E-02  0.1163832E+00
         21   -1    0    0  501  502  0.00000000000E+00  0.00000000000E+00  0.13632736800E+03  0.13632736800E+03  0.00000000000E+00 0. -1.
         21   -1    0    0  502  503 -0.00000000000E+00 -0.00000000000E+00 -0.25081518783E+03  0.25081518783E+03  0.00000000000E+00 0. -1.
         -6    2    1    2    0  503 -0.17269192948E+02 -0.59163196809E+02 -0.78545550103E+02  0.20054088148E+03  0.17392162839E+03 0.  0.
        -24    2    3    3    0    0  0.36691244793E+02 -0.29507677834E+02  0.10475833087E+02  0.92198482982E+02  0.78573956815E+02 0.  0.
          6    2    1    2  501    0  0.17269192948E+02  0.59163196809E+02 -0.35942269723E+02  0.18660167436E+03  0.17242340107E+03 0.  0.
         24    2    5    5    0    0  0.62733214393E+02  0.14850016626E+02  0.17172557551E+02  0.10369262744E+03  0.79380634105E+02 0.  0.
          5    1    5    5  501    0 -0.45464021445E+02  0.44313180183E+02 -0.53114827274E+02  0.82909046914E+02  0.47000000000E+01 0. -1.
        -13    1    6    6    0    0  0.49921377348E+02  0.46332851315E+02  0.87000989193E+01  0.68662717310E+02  0.00000000000E+00 0.  1.
         14    1    6    6    0    0  0.12811837045E+02 -0.31482834688E+02  0.84724586317E+01  0.35029910131E+02  0.00000000000E+00 0. -1.
         -5    1    3    3    0  503 -0.53960437741E+02 -0.29655518975E+02 -0.89021383190E+02  0.10834239850E+03  0.47000000000E+01 0.  1.
         13    1    4    4    0    0  0.24236913240E+02 -0.10633390027E+02  0.44245219432E+02  0.51557117738E+02  0.00000000000E+00 0. -1.
        -14    1    4    4    0    0  0.12454331553E+02 -0.18874287808E+02 -0.33769386346E+02  0.40641365243E+02  0.00000000000E+00 0.  1.
</event>
<event>
12    1  0.8416569E-002  0.1749408E+03  0.7818608E-02  0.1173124E+00
         21   -1    0    0  503  502  0.00000000000E+00  0.00000000000E+00  0.94016042698E+03  0.94016042698E+03  0.00000000000E+00 0.  1.
         21   -1    0    0  501  503 -0.00000000000E+00 -0.00000000000E+00 -0.32952675213E+02  0.32952675213E+02  0.00000000000E+00 0.  1.
          6    2    1    2  501    0  0.28986439504E+01 -0.24331680240E+02  0.38380662862E+03  0.42124987153E+03  0.17188220759E+03 0.  0.
         24    2    3    3    0    0  0.61550751179E+01  0.32764239372E+02  0.33668819330E+03  0.34700173803E+03  0.77070658213E+02 0.  0.
         -6    2    1    2    0  502 -0.28986439504E+01  0.24331680240E+02  0.52340112314E+03  0.55186323066E+03  0.17321621417E+03 0.  0.
        -24    2    5    5    0    0 -0.19517187940E+02  0.61516965973E+02  0.18469784722E+03  0.21068743931E+03  0.78170612067E+02 0.  0.
          5    1    3    3  501    0 -0.32564311674E+01 -0.57095919612E+02  0.47118435321E+02  0.74248133494E+02  0.47000000000E+01 0. -1.
        -13    1    4    4    0    0 -0.13051360409E+02 -0.21471734623E+02  0.13252778090E+03  0.13488879162E+03  0.00000000000E+00 0.  1.
         14    1    4    4    0    0  0.19206435527E+02  0.54235973995E+02  0.20416041241E+03  0.21211294641E+03  0.00000000000E+00 0. -1.
         -5    1    5    5    0  502  0.16618543990E+02 -0.37185285733E+02  0.33870327593E+03  0.34117579135E+03  0.47000000000E+01 0.  1.
         13    1    6    6    0    0  0.11682224868E+02 -0.14420528615E+02  0.25144849053E+02  0.31252031251E+02  0.00000000000E+00 0. -1.
        -14    1    6    6    0    0 -0.31199412809E+02  0.75937494589E+02  0.15955299816E+03  0.17943540806E+03  0.00000000000E+00 0.  1.
</event>
<event>
12    1  0.8416569E-002  0.2137820E+03  0.7818608E-02  0.1138673E+00
         21   -1    0    0  503  502  0.00000000000E+00  0.00000000000E+00  0.11947472743E+04  0.11947472743E+04  0.00000000000E+00 0. -1.
         21   -1    0    0  501  503 -0.00000000000E+00 -0.00000000000E+00 -0.44821436035E+02  0.44821436035E+02  0.00000000000E+00 0. -1.
          6    2    1    2  501    0  0.64894651058E+02  0.10869160253E+03  0.33697416464E+03  0.39906684485E+03  0.17227181669E+03 0.  0.
         24    2    3    3    0    0  0.62054022451E+00 -0.15473523238E+01  0.72343140847E+02  0.10523788568E+03  0.76411407431E+02 0.  0.
         -6    2    1    2    0  502 -0.64894651058E+02 -0.10869160253E+03  0.81295167360E+03  0.84050186546E+03  0.17183649799E+03 0.  0.
        -24    2    5    5    0    0 -0.96681365515E+02 -0.12014986458E+03  0.73795843816E+03  0.75811398804E+03  0.79817830156E+02 0.  0.
          5    1    3    3  501    0  0.64274110833E+02  0.11023895485E+03  0.26463102379E+03  0.29382895917E+03  0.47000000000E+01 0. -1.
        -11    1    4    4    0    0  0.35366235627E+02 -0.12480220144E+02  0.50013964130E+02  0.62513383570E+02  0.00000000000E+00 0.  1.
         12    1    4    4    0    0 -0.34745695403E+02  0.10932867821E+02  0.22329176716E+02  0.42724502111E+02  0.00000000000E+00 0. -1.
         -5    1    5    5    0  502  0.31786714457E+02  0.11458262045E+02  0.74993235433E+02  0.82387877420E+02  0.47000000000E+01 0.  1.
         11    1    6    6    0    0 -0.76451995342E+02 -0.11694408126E+03  0.49636767644E+03  0.51565656783E+03  0.00000000000E+00 0. -1.
        -12    1    6    6    0    0 -0.20229370173E+02 -0.32057833161E+01  0.24159076173E+03  0.24245742021E+03  0.00000000000E+00 0.  1.
</event>
<event>
12    1  0.8416569E-002  0.2533318E+03  0.7818608E-02  0.1111296E+00
         21   -1    0    0  503  502  0.00000000000E+00  0.00000000000E+00  0.32008009946E+03  0.32008009946E+03  0.00000000000E+00 0. -1.
         21   -1    0    0  501  503 -0.00000000000E+00 -0.00000000000E+00 -0.20024588785E+03  0.20024588785E+03  0.00000000000E+00 0. -1.
          6    2    1    2  501    0  0.10625567301E+03  0.15154252673E+03  0.66915018747E+02  0.26202023008E+03  0.17297854140E+03 0.  0.
         24    2    3    3    0    0  0.49842850108E+02  0.10193921143E+03 -0.26518133099E+02  0.14204215150E+03  0.81220987970E+02 0.  0.
         -6    2    1    2    0  502 -0.10625567301E+03 -0.15154252673E+03  0.52919192864E+02  0.25830575723E+03  0.17223825880E+03 0.  0.
        -24    2    5    5    0    0 -0.78899894138E+02 -0.18149696307E+03  0.38783941319E+02  0.21509115055E+03  0.74790828582E+02 0.  0.
          5    1    3    3  501    0  0.56412822902E+02  0.49603315300E+02  0.93433151846E+02  0.11997807858E+03  0.47000000000E+01 0. -1.
        -11    1    4    4    0    0 -0.15854005228E+02  0.10927315000E+02  0.12785755497E+02  0.23113442809E+02  0.00000000000E+00 0.  1.
         12    1    4    4    0    0  0.65696855336E+02  0.91011896426E+02 -0.39303888596E+02  0.11892870869E+03  0.00000000000E+00 0. -1.
         -5    1    5    5    0  502 -0.27355778872E+02  0.29954436349E+02  0.14135251546E+02  0.43214606685E+02  0.47000000000E+01 0.  1.
         11    1    6    6    0    0 -0.60991119121E+02 -0.64784870624E+02 -0.50960937482E+01  0.89123320432E+02  0.00000000000E+00 0. -1.
        -12    1    6    6    0    0 -0.17908775017E+02 -0.11671209245E+03  0.43880035067E+02  0.12596783012E+03  0.00000000000E+00 0.  1.
</event>
<event>
12    1  0.8416569E-002  0.2765515E+03  0.7818608E-02  0.1098110E+00
         21   -1    0    0  503  502  0.00000000000E+00  0.00000000000E+00  0.21285969180E+03  0.21285969180E+03  0.00000000000E+00 0. -1.
         21   -1    0    0  501  503 -0.00000000000E+00 -0.00000000000E+00 -0.36335481743E+03  0.36335481743E+03  0.00000000000E+00 0. -1.
          6    2    1    2  501    0 -0.20115105841E+03 -0.77609366963E+02 -0.11981807501E+03  0.29796674124E+03  0.16716113678E+03 0.  0.
         24    2    3    3    0    0 -0.97929112594E+02 -0.73270389858E+02 -0.78414822424E+01  0.14553825261E+03  0.78493522058E+02 0.  0.
         -6    2    1    2    0  502  0.20115105841E+03  0.77609366963E+02 -0.30677050630E+02  0.27824776799E+03  0.17319288905E+03 0.  0.
        -24    2    5    5    0    0  0.11695766687E+03  0.57353091224E+02 -0.86770789941E+02  0.17496446113E+03  0.78197952397E+02 0.  0.
          5    1    3    3  501    0 -0.10322194581E+03 -0.43389771050E+01 -0.11197659276E+03  0.15242848863E+03  0.47000000000E+01 0. -1.
        -11    1    4    4    0    0 -0.43289663358E+01 -0.25145970573E+02  0.24561060527E+02  0.35416175398E+02  0.00000000000E+00 0.  1.
         12    1    4    4    0    0 -0.93600146259E+02 -0.48124419285E+02 -0.32402542770E+02  0.11012207721E+03  0.00000000000E+00 0. -1.
         -5    1    5    5    0  502  0.84193391537E+02  0.20256275739E+02  0.56093739312E+02  0.10328330686E+03  0.47000000000E+01 0.  1.
         13    1    6    6    0    0  0.11658849171E+03  0.49522784952E+02 -0.48081152339E+02  0.13548867052E+03  0.00000000000E+00 0. -1.
        -14    1    6    6    0    0  0.36917515991E+00  0.78303062714E+01 -0.38689637603E+02  0.39475790612E+02  0.00000000000E+00 0.  1.
</event>
<event>
12    1  0.8416569E-002  0.2132585E+03  0.7818608E-02  0.1140162E+00
         21   -1    0    0  503  502  0.00000000000E+00  0.00000000000E+00  0.10520624410E+04  0.10520624410E+04  0.00000000000E+00 0.  1.
         21   -1    0    0  501  503 -0.00000000000E+00 -0.00000000000E+00 -0.42638874801E+02  0.42638874801E+02  0.00000000000E+00 0.  1.
          6    2    1    2  501    0 -0.65009303288E+02  0.10757677701E+03  0.44742657547E+03  0.49565079459E+03  0.17227941628E+03 0.  0.
         24    2    3    3    0    0 -0.47649026328E+02  0.13374387488E+03  0.26822556052E+03  0.31365851456E+03  0.79239249534E+02 0.  0.
         -6    2    1    2    0  502  0.65009303288E+02 -0.10757677701E+03  0.56199699077E+03  0.59905052126E+03  0.16499071766E+03 0.  0.
        -24    2    5    5    0    0  0.53350354378E+02 -0.12403394296E+03  0.55527905763E+03  0.57727920925E+03  0.81766584064E+02 0.  0.
          5    1    3    3  501    0 -0.17360276960E+02 -0.26167097873E+02  0.17920101496E+03  0.18199228003E+03  0.47000000000E+01 0. -1.
        -13    1    4    4    0    0 -0.66691309544E+02  0.10191027280E+03  0.23080434350E+03  0.26096758314E+03  0.00000000000E+00 0.  1.
         14    1    4    4    0    0  0.19042283216E+02  0.31833602080E+02  0.37421217011E+02  0.52690931421E+02  0.00000000000E+00 0. -1.
         -5    1    5    5    0  502  0.11658948910E+02  0.16457165951E+02  0.67179331416E+01  0.21771312007E+02  0.47000000000E+01 0.  1.
         13    1    6    6    0    0  0.30563763188E+02 -0.24324797208E+01  0.68936612778E+02  0.75447446340E+02  0.00000000000E+00 0. -1.
        -14    1    6    6    0    0  0.22786591190E+02 -0.12160146324E+03  0.48634244485E+03  0.50183176291E+03  0.00000000000E+00 0.  1.
</event>
<event>
12    1  0.8416569E-002  0.2114140E+03  0.7818608E-02  0.1142417E+00
         21   -1    0    0  501  502  0.00000000000E+00  0.00000000000E+00  0.24282164089E+03  0.24282164089E+03  0.00000000000E+00 0. -1.
         21   -1    0    0  502  503 -0.00000000000E+00 -0.00000000000E+00 -0.22408443507E+03  0.22408443507E+03  0.00000000000E+00 0. -1.
         -6    2    1    2    0  503 -0.13181804085E+02  0.12035044993E+03 -0.98956057443E+02  0.23342703162E+03  0.17331441668E+03 0.  0.
        -24    2    3    3    0    0 -0.52531263539E+02  0.11498750106E+03 -0.11719023443E+03  0.18947573596E+03  0.78650139355E+02 0.  0.
          6    2    1    2  501    0  0.13181804085E+02 -0.12035044993E+03  0.11769326327E+03  0.23347904434E+03  0.16125374157E+03 0.  0.
         24    2    5    5    0    0 -0.39713101465E+00 -0.54431732601E+02 -0.16278520833E+01  0.96405037537E+02  0.79550676510E+02 0.  0.
          5    1    5    5  501    0  0.13578935100E+02 -0.65918717327E+02  0.11932111535E+03  0.13707400680E+03  0.47000000000E+01 0. -1.
        -13    1    6    6    0    0  0.30581431365E+02 -0.60159432889E+01 -0.18822144119E+02  0.36410007240E+02  0.00000000000E+00 0.  1.
         14    1    6    6    0    0 -0.30978562379E+02 -0.48415789312E+02  0.17194292035E+02  0.59995030297E+02  0.00000000000E+00 0. -1.
         -5    1    3    3    0  503  0.39349459454E+02  0.53629488687E+01  0.18234176990E+02  0.43951295662E+02  0.47000000000E+01 0.  1.
         13    1    4    4    0    0 -0.48058757042E+02  0.67738692287E+02 -0.26607909498E+02  0.87213275417E+02  0.00000000000E+00 0. -1.
        -14    1    4    4    0    0 -0.44725064973E+01  0.47248808772E+02 -0.90582324934E+02  0.10226246054E+03  0.00000000000E+00 0.  1.
</event>
<event>
12    1  0.8416569E-002  0.5206801E+03  0.7818608E-02  0.1008522E+00
         21   -1    0    0  503  502  0.00000000000E+00  0.00000000000E+00  0.26599076305E+03  0.26599076305E+03  0.00000000000E+00 0. -1.
         21   -1    0    0  501  503 -0.00000000000E+00 -0.00000000000E+00 -0.12825379390E+04  0.12825379390E+04  0.00000000000E+00 0.  1.
          6    2    1    2  501    0  0.22665855705E+03 -0.43520327769E+03 -0.85920620449E+03  0.10046606565E+04  0.17416009416E+03 0.  0.
         24    2    3    3    0    0  0.14774234321E+03 -0.40058439733E+03 -0.70894608138E+03  0.83137929485E+03  0.79317880906E+02 0.  0.
         -6    2    1    2    0  502 -0.22665855705E+03  0.43520327769E+03 -0.15734097146E+03  0.54386804558E+03  0.17395480824E+03 0.  0.
        -24    2    5    5    0    0 -0.15056425078E+03  0.16070031245E+03 -0.89902253565E+02  0.25110142856E+03  0.80469423971E+02 0.  0.
          5    1    3    3  501    0  0.78916213839E+02 -0.34618880360E+02 -0.15026012310E+03  0.17328136160E+03  0.47000000000E+01 0. -1.
        -13    1    4    4    0    0  0.11528161522E+03 -0.20106606385E+03 -0.39538364997E+03  0.45830736794E+03  0.00000000000E+00 0.  1.
         14    1    4    4    0    0  0.32460727989E+02 -0.19951833348E+03 -0.31356243141E+03  0.37307192691E+03  0.00000000000E+00 0. -1.
         -5    1    5    5    0  502 -0.76094306268E+02  0.27450296524E+03 -0.67438717894E+02  0.29276661702E+03  0.47000000000E+01 0.  1.
         13    1    6    6    0    0 -0.56617485614E+02  0.90562497760E+02 -0.60774768490E+01  0.10697682648E+03  0.00000000000E+00 0. -1.
        -14    1    6    6    0    0 -0.93946765170E+02  0.70137814692E+02 -0.83824776716E+02  0.14412460209E+03  0.00000000000E+00 0.  1.
</event>
<event>
12    1  0.8416569E-002  0.2003738E+03  0.7818608E-02  0.1149554E+00
         21   -1    0    0  501  502  0.00000000000E+00  0.00000000000E+00  0.24444458204E+03  0.24444458204E+03  0.00000000000E+00 0.  1.
         21   -1    0    0  502  503 -0.00000000000E+00 -0.00000000000E+00 -0.16519544721E+03  0.16519544721E+03  0.00000000000E+00 0.  1.
         -6    2    1    2    0  503  0.50809570660E+02  0.87600067218E+02  0.58893449331E+02  0.20884946423E+03  0.17289961274E+03 0.  0.
        -24    2    3    3    0    0  0.13741154562E+02 -0.14619967950E+02 -0.88408143909E+00  0.84678427961E+02  0.82262335066E+02 0.  0.
          6    2    1    2  501    0 -0.50809570660E+02 -0.87600067218E+02  0.20355685500E+02  0.20079056503E+03  0.17218336977E+03 0.  0.
         24    2    5    5    0    0 -0.75774636213E+02 -0.11419761958E+03  0.32547716032E+02  0.16204240510E+03  0.80096787834E+02 0.  0.
          5    1    5    5  501    0  0.24965065553E+02  0.26597552357E+02 -0.12192030532E+02  0.38748159930E+02  0.47000000000E+01 0. -1.
        -11    1    6    6    0    0 -0.54573297073E+01 -0.35505713777E+02  0.42958021196E+02  0.55998479831E+02  0.00000000000E+00 0.  1.
         12    1    6    6    0    0 -0.70317306506E+02 -0.78691905798E+02 -0.10410305164E+02  0.10604392527E+03  0.00000000000E+00 0. -1.
         -5    1    3    3    0  503  0.37068416098E+02  0.10222003517E+03  0.59777530771E+02  0.12417103626E+03  0.47000000000E+01 0.  1.
         13    1    4    4    0    0 -0.14597189534E+02 -0.41154312573E+02  0.90752185405E+01  0.44599495257E+02  0.00000000000E+00 0. -1.
        -14    1    4    4    0    0  0.28338344096E+02  0.26534344622E+02 -0.99592999796E+01  0.40078932704E+02  0.00000000000E+00 0.  1.
</event>
<event>
12    1  0.8416569E-002  0.1793726E+03  0.7818608E-02  0.1168523E+00
         21   -1    0    0  501  502  0.00000000000E+00  0.00000000000E+00  0.52806717004E+02  0.52806717004E+02  0.00000000000E+00 0.  1.
         21   -1    0    0  502  503 -0.00000000000E+00 -0.00000000000E+00 -0.77622668945E+03  0.77622668945E+03  0.00000000000E+00 0.  1.
         -6    2    1    2    0  503 -0.47385152809E+02  0.55878975887E+01 -0.55447021182E+03  0.58262207452E+03  0.17243749190E+03 0.  0.
        -24    2    3    3    0    0  0.12225920207E+02  0.50842154385E+02 -0.21256414231E+03  0.23258882160E+03  0.78610734303E+02 0.  0.
          6    2    1    2  501    0  0.47385152809E+02 -0.55878975887E+01 -0.16894976063E+03  0.24641133193E+03  0.17291022406E+03 0.  0.
         24    2    5    5    0    0 -0.20362379059E+02 -0.53302249024E+02 -0.94595633313E+02  0.13497967730E+03  0.77559159413E+02 0.  0.
          5    1    5    5  501    0  0.67747531868E+02  0.47714351436E+02 -0.74354127312E+02  0.11143165464E+03  0.47000000000E+01 0. -1.
        -11    1    6    6    0    0 -0.56304592215E+01  0.18813846623E+02 -0.35567124104E+02  0.40628600921E+02  0.00000000000E+00 0.  1.
         12    1    6    6    0    0 -0.14731919837E+02 -0.72116095647E+02 -0.59028509209E+02  0.94351076374E+02  0.00000000000E+00 0. -1.
         -5    1    3    3    0  503 -0.59611073017E+02 -0.45254256797E+02 -0.34190606951E+03  0.35003325292E+03  0.47000000000E+01 0.  1.
         11    1    4    4    0    0 -0.62672663640E+00  0.34639870592E+02 -0.20869221963E+03  0.21154847188E+03  0.00000000000E+00 0. -1.
        -12    1    4    4    0    0  0.12852646844E+02  0.16202283794E+02 -0.38719226843E+01  0.21040349719E+02  0.00000000000E+00 0.  1.
</event>
<event>
12    1  0.8416569E-002  0.2248583E+03  0.7818608E-02  0.1130410E+00
         21   -1    0    0  503  502  0.00000000000E+00  0.00000000000E+00  0.45294712347E+02  0.45294712347E+02  0.00000000000E+00 0. -1.
         21   -1    0    0  501  503 -0.00000000000E+00 -0.00000000000E+00 -0.15023375851E+04  0.15023375851E+04  0.00000000000E+00 0.  1.
          6    2    1    2  501    0 -0.62737063803E+02 -0.13068129546E+03 -0.11214971736E+04  0.11437112966E+04  0.17119018513E+03 0.  0.
         24    2    3    3    0    0  0.18090515387E+02 -0.38688744067E+02 -0.61742779442E+03  0.62495918232E+03  0.86791777154E+02 0.  0.
         -6    2    1    2    0  502  0.62737063803E+02  0.13068129546E+03 -0.33554569914E+03  0.40392100081E+03  0.17189449823E+03 0.  0.
        -24    2    5    5    0    0  0.46061917028E+01  0.85652213376E+02 -0.90807263464E+02  0.14833186093E+03  0.79992894754E+02 0.  0.
          5    1    3    3  501    0 -0.80827579190E+02 -0.91992551398E+02 -0.50406937917E+03  0.51875211430E+03  0.47000000000E+01 0. -1.
        -13    1    4    4    0    0 -0.31406808100E+02 -0.12223251969E+02 -0.35499752957E+03  0.35659366439E+03  0.00000000000E+00 0.  1.
         14    1    4    4    0    0  0.49497323488E+02 -0.26465492098E+02 -0.26243026485E+03  0.26836551793E+03  0.00000000000E+00 0. -1.
         -5    1    5    5    0  502  0.58130872100E+02  0.45029082088E+02 -0.24473843568E+03  0.25558913988E+03  0.47000000000E+01 0.  1.
         13    1    6    6    0    0 -0.36091806162E+02  0.54916222628E+02 -0.43809409626E+02  0.78978948787E+02  0.00000000000E+00 0. -1.
        -14    1    6    6    0    0  0.40697997864E+02  0.30735990748E+02 -0.46997853838E+02  0.69352912144E+02  0.00000000000E+00 0.  1.
</event>
<event>
12    1  0.8416569E-002  0.2035706E+03  0.7818608E-02  0.1147814E+00
         21   -1    0    0  503  502  0.00000000000E+00  0.00000000000E+00  0.27755535346E+03  0.27755535346E+03  0.00000000000E+00 0. -1.
         21   -1    0    0  501  503 -0.00000000000E+00 -0.00000000000E+00 -0.14706201291E+03  0.14706201291E+03  0.00000000000E+00 0. -1.
          6    2    1    2  501    0 -0.45587092676E+02  0.93405017478E+02  0.86993056171E+02  0.22137924459E+03  0.17503798960E+03 0.  0.
         24    2    3    3    0    0  0.35100058357E+02  0.11531582426E+02  0.32508823199E+02  0.94083143505E+02  0.80186175966E+02 0.  0.
         -6    2    1    2    0  502  0.45587092676E+02 -0.93405017478E+02  0.43500284375E+02  0.20323812178E+03  0.16914721131E+03 0.  0.
        -24    2    5    5    0    0  0.56268783612E+02 -0.98743867257E+02  0.82479517488E+02  0.16220066995E+03  0.81176715863E+02 0.  0.
          5    1    3    3  501    0 -0.80687151033E+02  0.81873435052E+02  0.54484232972E+02  0.12729610109E+03  0.47000000000E+01 0. -1.
        -11    1    4    4    0    0  0.34360568911E+02 -0.27915431446E+02  0.32001132737E+02  0.54625932533E+02  0.00000000000E+00 0.  1.
         12    1    4    4    0    0  0.73948944603E+00  0.39447013872E+02  0.50769046160E+00  0.39457210972E+02  0.00000000000E+00 0. -1.
         -5    1    5    5    0  502 -0.10681690936E+02  0.53388497784E+01 -0.38979233113E+02  0.41037451825E+02  0.47000000000E+01 0.  1.
         13    1    6    6    0    0  0.37097623798E+02 -0.76851758605E+02  0.12289458781E+02  0.86217499902E+02  0.00000000000E+00 0. -1.
        -14    1    6    6    0    0  0.19171159813E+02 -0.21892108652E+02  0.70190058707E+02  0.75983170052E+02  0.00000000000E+00 0.  1.
</event>
<event>
12    1  0.8416569E-002  0.2351992E+03  0.7818608E-02  0.1123988E+00
         21   -1    0    0  503  502  0.00000000000E+00  0.00000000000E+00  0.76121602703E+02  0.76121602703E+02  0.00000000000E+00 0. -1.
         21   -1    0    0  501  503 -0.00000000000E+00 -0.00000000000E+00 -0.91312116075E+03  0.91312116075E+03  0.00000000000E+00 0. -1.
          6    2    1    2  501    0 -0.77034960206E+02  0.14160644636E+03 -0.64804211295E+03  0.68754159935E+03  0.16360959613E+03 0.  0.
         24    2    3    3    0    0 -0.11011590919E+03  0.13597633641E+03 -0.58684503061E+03  0.61759004319E+03  0.80095530289E+02 0.  0.
         -6    2    1    2    0  502  0.77034960206E+02 -0.14160644636E+03 -0.18895744510E+03  0.30170116410E+03  0.17126559963E+03 0.  0.
        -24    2    5    5    0    0  0.10605633936E+03 -0.11749927338E+03 -0.19427204611E+03  0.26331195702E+03  0.80855008785E+02 0.  0.
          5    1    3    3  501    0  0.33080948982E+02  0.56301099495E+01 -0.61197082336E+02  0.69951556166E+02  0.47000000000E+01 0. -1.
        -11    1    4    4    0    0 -0.92265266758E+02  0.53602266332E+02 -0.28988743237E+03  0.30890258311E+03  0.00000000000E+00 0.  1.
         12    1    4    4    0    0 -0.17850642430E+02  0.82374070078E+02 -0.29695759824E+03  0.30868746008E+03  0.00000000000E+00 0. -1.
         -5    1    5    5    0  502 -0.29021379155E+02 -0.24107172976E+02  0.53146010016E+01  0.38389207087E+02  0.47000000000E+01 0.  1.
         11    1    6    6    0    0  0.86528684322E+02 -0.67524896613E+02 -0.17446496246E+03  0.20611852901E+03  0.00000000000E+00 0. -1.
        -12    1    6    6    0    0  0.19527655039E+02 -0.49974376771E+02 -0.19807083642E+02  0.57193428008E+02  0.00000000000E+00 0.  1.
</event>
<event>
12    1  0.8416569E-002  0.2108338E+03  0.7818608E-02  0.1141142E+00
         21   -1    0    0  501  502  0.00000000000E+00  0.00000000000E+00  0.14020253369E+03  0.14020253369E+03  0.00000000000E+00 0. -1.
         21   -1    0    0  502  503 -0.00000000000E+00 -0.00000000000E+00 -0.50133326798E+03  0.50133326798E+03  0.00000000000E+00 0.  1.
         -6    2    1    2    0  503  0.11668645755E+03 -0.33879432176E+02 -0.37566154017E+03  0.43020190781E+03  0.17084654932E+03 0.  0.
        -24    2    3    3    0    0  0.10591267410E+03 -0.26335509921E+02 -0.14230653076E+03  0.19642929267E+03  0.80139033574E+02 0.  0.
          6    2    1    2  501    0 -0.11668645755E+03  0.33879432176E+02  0.14530805888E+02  0.21133389387E+03  0.17230010179E+03 0.  0.
         24    2    5    5    0    0 -0.51617684283E+02 -0.42328066859E+02  0.27888696844E+02  0.11013087309E+03  0.83036011594E+02 0.  0.
          5    1    5    5  501    0 -0.65068773263E+02  0.76207499036E+02 -0.13357890956E+02  0.10120302078E+03  0.47000000000E+01 0. -1.
        -13    1    6    6    0    0 -0.67868017164E+02 -0.46809262567E+02  0.62224704720E+01  0.82679465133E+02  0.00000000000E+00 0.  1.
         14    1    6    6    0    0  0.16250332882E+02  0.44811957071E+01  0.21666226372E+02  0.27451407959E+02  0.00000000000E+00 0. -1.
         -5    1    3    3    0  503  0.10773783448E+02 -0.75439222558E+01 -0.23335500941E+03  0.23377261514E+03  0.47000000000E+01 0.  1.
         11    1    4    4    0    0  0.37348871617E+01  0.21993361663E+02 -0.25696627167E+02  0.34029016840E+02  0.00000000000E+00 0. -1.
        -12    1    4    4    0    0  0.10217778694E+03 -0.48328871584E+02 -0.11660990360E+03  0.16240027583E+03  0.00000000000E+00 0.  1.
</event>
<event>
12    1  0.8416569E-002  0.1874837E+03  0.7818608E-02  0.1160838E+00
         21   -1    0    0  501  502  0.00000000000E+00  0.00000000000E+00  0.91882260424E+02  0.91882260424E+02  0.00000000000E+00 0.  1.
         21   -1    0    0  502  503 -0.00000000000E+00 -0.00000000000E+00 -0.41697755115E+03  0.41697755115E+03  0.00000000000E+00 0. -1.
         -6    2    1    2    0  503  0.73634362775E+02  0.38347888089E+01 -0.23662254538E+03  0.30189464289E+03  0.17237581453E+03 0.  0.
        -24    2    3    3    0    0 -0.11379624427E+02 -0.40814206764E+02 -0.98464690806E+02  0.13357769898E+03  0.79702013792E+02 0.  0.
          6    2    1    2  501    0 -0.73634362775E+02 -0.38347888089E+01 -0.88472745347E+02  0.20696516869E+03  0.17196054604E+03 0.  0.
         24    2    5    5    0    0 -0.79823136554E+02 -0.55660789642E+02 -0.90279566552E+02  0.15452863671E+03  0.79112848476E+02 0.  0.
          5    1    5    5  501    0  0.61887737787E+01  0.51826000833E+02  0.18068212046E+01  0.52436531980E+02  0.47000000000E+01 0. -1.
        -11    1    6    6    0    0 -0.90085737886E+02 -0.56619712195E+02 -0.59150474826E+02  0.12173746610E+03  0.00000000000E+00 0.  1.
         12    1    6    6    0    0  0.10262601332E+02  0.95892255254E+00 -0.31129091726E+02  0.32791170614E+02  0.00000000000E+00 0. -1.
         -5    1    3    3    0  503  0.85013987202E+02  0.44648995573E+02 -0.13815785458E+03  0.16831694391E+03  0.47000000000E+01 0.  1.
         13    1    4    4    0    0  0.21305809130E+02 -0.42494306284E+01 -0.77063958830E+02  0.80067777001E+02  0.00000000000E+00 0. -1.
        -14    1    4    4    0    0 -0.32685433557E+02 -0.36564776136E+02 -0.21400731976E+02  0.53509921976E+02  0.00000000000E+00 0.  1.
</event>
<event>
12    1  0.8416569E-002  0.3127932E+03  0.7818608E-02  0.1080281E+00
         21   -1    0    0  503  502  0.00000000000E+00  0.00000000000E+00  0.61992359024E+03  0.61992359024E+03  0.00000000000E+00 0.  1.
         21   -1    0    0  501  503 -0.00000000000E+00 -0.00000000000E+00 -0.23333878460E+03  0.23333878460E+03  0.00000000000E+00 0. -1.
          6    2    1    2  501    0 -0.12206087290E+03 -0.23115959078E+03 -0.59837624116E+02  0.30816371983E+03  0.15182464838E+03 0.  0.
         24    2    3    3    0    0 -0.12203733389E+03 -0.15515422534E+03 -0.83021190794E+02  0.22856231347E+03  0.79889101353E+02 0.  0.
         -6    2    1    2    0  502  0.12206087290E+03  0.23115959078E+03  0.44642242976E+03  0.54509865501E+03  0.17177294549E+03 0.  0.
        -24    2    5    5    0    0  0.10855817485E+03  0.12006159736E+03  0.17511679041E+03  0.25157876312E+03  0.80164326726E+02 0.  0.
          5    1    3    3  501    0 -0.23539008981E-01 -0.76005365441E+02  0.23183566678E+02  0.79601406356E+02  0.47000000000E+01 0. -1.
        -11    1    4    4    0    0 -0.10142735178E+03 -0.11160024737E+03 -0.95864701845E+02  0.17869573012E+03  0.00000000000E+00 0.  1.
         12    1    4    4    0    0 -0.20609982113E+02 -0.43553977966E+02  0.12843511051E+02  0.49866583354E+02  0.00000000000E+00 0. -1.
         -5    1    5    5    0  502  0.13502698044E+02  0.11109799342E+03  0.27130563935E+03  0.29351989190E+03  0.47000000000E+01 0.  1.
         11    1    6    6    0    0  0.44204412243E+02 -0.21509674627E+00  0.44056439252E+02  0.62410304982E+02  0.00000000000E+00 0. -1.
        -12    1    6    6    0    0  0.64353762612E+02  0.12027669411E+03  0.13106035116E+03  0.18916845813E+03  0.00000000000E+00 0.  1.
</event>
<event>
12    1  0.8416569E-002  0.1821214E+03  0.7818608E-02  0.1165856E+00
         21   -1    0    0  501  502  0.00000000000E+00  0.00000000000E+00  0.20496833307E+03  0.20496833307E+03  0.00000000000E+00 0. -1.
         21   -1    0    0  502  503 -0.00000000000E+00 -0.00000000000E+00 -0.16901142461E+03  0.16901142461E+03  0.00000000000E+00 0. -1.
         -6    2    1    2    0  503  0.18816640821E+02  0.56029136424E+02  0.57458512967E+02  0.19097036502E+03  0.17226395300E+03 0.  0.
        -24    2    3    3    0    0 -0.65538832710E+01  0.10166818674E+03  0.36598238955E+02  0.13454495019E+03  0.79897052164E+02 0.  0.
          6    2    1    2  501    0 -0.18816640821E+02 -0.56029136424E+02 -0.21501604508E+02  0.18300939267E+03  0.17186270308E+03 0.  0.
         24    2    5    5    0    0  0.20596975892E+02 -0.46049956145E+02  0.45289657121E+02  0.10467562057E+03  0.79755868894E+02 0.  0.
          5    1    5    5  501    0 -0.39413616713E+02 -0.99791802786E+01 -0.66791261628E+02  0.78333772100E+02  0.47000000000E+01 0. -1.
        -13    1    6    6    0    0 -0.29178110079E+02 -0.66089426213E+01  0.77561804838E+01  0.30906286837E+02  0.00000000000E+00 0.  1.
         14    1    6    6    0    0  0.49775085971E+02 -0.39441013524E+02  0.37533476637E+02  0.73769333735E+02  0.00000000000E+00 0. -1.
         -5    1    3    3    0  503  0.25370524092E+02 -0.45639050320E+02  0.20860274012E+02  0.56425414829E+02  0.47000000000E+01 0.  1.
         13    1    4    4    0    0 -0.56356215137E+01 -0.11500781399E+02  0.14299365757E+02  0.19196355479E+02  0.00000000000E+00 0. -1.
        -14    1    4    4    0    0 -0.91826175732E+00  0.11316896814E+03  0.22298873199E+02  0.11534859471E+03  0.00000000000E+00 0.  1.
</event>
<event>
12    1  0.8416569E-002  0.2274201E+03  0.7818608E-02  0.1128606E+00
         21   -1    0    0  501  502  0.00000000000E+00  0.00000000000E+00  0.13790782286E+03  0.13790782286E+03  0.00000000000E+00 0. -1.
         21   -1    0    0  502  503 -0.00000000000E+00 -0.00000000000E+00 -0.43249783298E+03  0.43249783298E+03  0.00000000000E+00 0.  1.
         -6    2    1    2    0  503 -0.92995733213E+02  0.11654319733E+03 -0.25217561948E+03  0.33906412762E+03  0.17070857137E+03 0.  0.
        -24    2    3    3    0    0 -0.79439922148E+02  0.29500674767E+01 -0.14594558541E+03  0.18287811896E+03  0.76320956253E+02 0.  0.
          6    2    1    2  501    0  0.92995733213E+02 -0.11654319733E+03 -0.42414390640E+02  0.23134152822E+03  0.17172477663E+03 0.  0.
         24    2    5    5    0    0  0.10839388668E+03 -0.37026346917E+02 -0.37686555197E-01  0.13981061717E+03  0.80167463577E+02 0.  0.
          5    1    5    5  501    0 -0.15398153466E+02 -0.79516850413E+02 -0.42376704085E+02  0.91530911057E+02  0.47000000000E+01 0. -1.
        -13    1    6    6    0    0  0.11318317534E+03 -0.36963133551E+02 -0.18715989913E+02  0.12052797476E+03  0.00000000000E+00 0.  1.
         14    1    6    6    0    0 -0.47892886585E+01 -0.63213365965E-01  0.18678303358E+02  0.19282642405E+02  0.00000000000E+00 0. -1.
         -5    1    3    3    0  503 -0.13555811065E+02  0.11359312985E+03 -0.10623003406E+03  0.15618600866E+03  0.47000000000E+01 0.  1.
         13    1    4    4    0    0 -0.44594839784E+02  0.59344663087E+00 -0.14537685292E+02  0.46908380999E+02  0.00000000000E+00 0. -1.
        -14    1    4    4    0    0 -0.34845082364E+02  0.23566208458E+01 -0.13140790012E+03  0.13596973796E+03  0.00000000000E+00 0.  1.
</event>
<event>
12    1  0.8416569E-002  0.1983357E+03  0.7818608E-02  0.1152699E+00
         21   -1    0    0  503  502  0.00000000000E+00  0.00000000000E+00  0.54140775015E+02  0.54140775015E+02  0.00000000000E+00 0. -1.
         21   -1    0    0  501  503 -0.00000000000E+00 -0.00000000000E+00 -0.76052377318E+03  0.76052377318E+03  0.00000000000E+00 0. -1.
          6    2    1    2  501    0  0.94461855407E+02  0.26701235853E+02 -0.24493533700E+03  0.31516717923E+03  0.17233987766E+03 0.  0.
         24    2    3    3    0    0  0.72221672809E+02  0.75327740152E+02 -0.21926166591E+03  0.25566600253E+03  0.79994926416E+02 0.  0.
         -6    2    1    2    0  502 -0.94461855407E+02 -0.26701235853E+02 -0.46144766117E+03  0.49949736896E+03  0.16409655536E+03 0.  0.
        -24    2    5    5    0    0 -0.81973574545E+02  0.18933258346E+02 -0.18838300889E+03  0.22232439311E+03  0.82836239277E+02 0.  0.
          5    1    3    3  501    0  0.22240182598E+02 -0.48626504299E+02 -0.25673671093E+02  0.59501176708E+02  0.47000000000E+01 0. -1.
        -13    1    4    4    0    0  0.20294093286E+02  0.70135950161E+02 -0.87594026245E+02  0.11403339494E+03  0.00000000000E+00 0.  1.
         14    1    4    4    0    0  0.51927579523E+02  0.51917899906E+01 -0.13166763966E+03  0.14163260759E+03  0.00000000000E+00 0. -1.
         -5    1    5    5    0  502 -0.12488280861E+02 -0.45634494199E+02 -0.27306465228E+03  0.27717297585E+03  0.47000000000E+01 0.  1.
         13    1    6    6    0    0 -0.47523770733E+02 -0.28027187548E+02 -0.12273030046E+03  0.13456135656E+03  0.00000000000E+00 0. -1.
        -14    1    6    6    0    0 -0.34449803812E+02  0.46960445894E+02 -0.65652708430E+02  0.87763036555E+02  0.00000000000E+00 0.  1.
</event>
<event>
12    1  0.8416569E-002  0.2473239E+03  0.7818608E-02  0.1116072E+00
         21   -1    0    0  501  502  0.00000000000E+00  0.00000000000E+00  0.59177987233E+03  0.59177987233E+03  0.00000000000E+00 0. -1.
         21   -1    0    0  502  503 -0.00000000000E+00 -0.00000000000E+00 -0.35768368887E+03  0.35768368887E+03  0.00000000000E+00 0. -1.
         -6    2    1    2    0  503 -0.16868373500E+03  0.21148827446E+01 -0.28493534458E+03  0.37730263222E+03  0.18086030661E+03 0.  0.
        -24    2    3    3    0    0 -0.15974131971E+03 -0.72597391046E+01 -0.12787190288E+03  0.21963568881E+03  0.79489742846E+02 0.  0.
          6    2    1    2  501    0  0.16868373500E+03 -0.21148827446E+01  0.51903152805E+03  0.57216092898E+03  0.17180141549E+03 0.  0.
         24    2    5    5    0    0  0.23279785489E+02  0.54944208120E+01  0.28142142159E+03  0.29344806109E+03  0.79634232332E+02 0.  0.
          5    1    5    5  501    0  0.14540394951E+03 -0.76093035566E+01  0.23761010646E+03  0.27871286789E+03  0.47000000000E+01 0. -1.
        -11    1    6    6    0    0 -0.10978085618E+01  0.40420092299E+02  0.12912156527E+03  0.13530472151E+03  0.00000000000E+00 0.  1.
         12    1    6    6    0    0  0.24377594051E+02 -0.34925671487E+02  0.15229985631E+03  0.15814333958E+03  0.00000000000E+00 0. -1.
         -5    1    3    3    0  503 -0.89424152899E+01  0.93746218492E+01 -0.15706344169E+03  0.15766694340E+03  0.47000000000E+01 0.  1.
         13    1    4    4    0    0 -0.29155386201E+02  0.12464277357E+02  0.52243370401E+01  0.32135470311E+02  0.00000000000E+00 0. -1.
        -14    1    4    4    0    0 -0.13058593351E+03 -0.19724016461E+02 -0.13309623992E+03  0.18750021850E+03  0.00000000000E+00 0.  1.
</event>
<event>
12    1  0.8416569E-002  0.2035486E+03  0.7818608E-02  0.1146860E+00
         21   -1    0    0  501  502  0.00000000000E+00  0.00000000000E+00  0.27498103829E+02  0.27498103829E+02  0.00000000000E+00 0. -1.
         21   -1    0    0  502  503 -0.00000000000E+00 -0.00000000000E+00 -0.15498127691E+04  0.15498127691E+04  0.00000000000E+00 0. -1.
         -6    2    1    2    0  503 -0.12246510664E+02  0.10722088513E+03 -0.89631898676E+03  0.91905361388E+03  0.17212066676E+03 0.  0.
        -24    2    3    3    0    0  0.15438873346E+02  0.65378802369E+02 -0.25346924610E+03  0.27423184049E+03  0.80272641714E+02 0.  0.
          6    2    1    2  501    0  0.12246510664E+02 -0.10722088513E+03 -0.62599567852E+03  0.65825725906E+03  0.17258544071E+03 0.  0.
         24    2    5    5    0    0 -0.14835800935E+02  0.58632146156E+01 -0.17981221322E+03  0.19714638310E+03  0.79245101253E+02 0.  0.
          5    1    5    5  501    0  0.27082311599E+02 -0.11308409975E+03 -0.44618346530E+03  0.46111087596E+03  0.47000000000E+01 0. -1.
        -13    1    6    6    0    0 -0.33472812111E+02  0.20806576471E+02 -0.16359009336E+03  0.16827079788E+03  0.00000000000E+00 0.  1.
         14    1    6    6    0    0  0.18637011175E+02 -0.14943361855E+02 -0.16222119864E+02  0.28875585223E+02  0.00000000000E+00 0. -1.
         -5    1    3    3    0  503 -0.27685384009E+02  0.41842082763E+02 -0.64284974066E+03  0.64482177340E+03  0.47000000000E+01 0.  1.
         11    1    4    4    0    0 -0.26662715280E+02  0.12948360979E+02 -0.13303916170E+03  0.13630106010E+03  0.00000000000E+00 0. -1.
        -12    1    4    4    0    0  0.42101588626E+02  0.52430441391E+02 -0.12043008440E+03  0.13793078038E+03  0.00000000000E+00 0.  1.
</event>
<event>
12    1  0.8416569E-002  0.2436430E+03  0.7818608E-02  0.1117873E+00
         21   -1    0    0  501  502  0.00000000000E+00  0.00000000000E+00  0.25629997938E+02  0.25629997938E+02  0.00000000000E+00 0. -1.
         21   -1    0    0  502  503 -0.00000000000E+00 -0.00000000000E+00 -0.29574067987E+04  0.29574067987E+04  0.00000000000E+00 0.  1.
         -6    2    1    2    0  503  0.30812429720E+02  0.16934610232E+03 -0.21684740084E+04  0.21817921066E+04  0.16825505488E+03 0.  0.
        -24    2    3    3    0    0 -0.33591449239E+02  0.57682686890E+02 -0.12540733996E+04  0.12583381873E+04  0.79115257991E+02 0.  0.
          6    2    1    2  501    0 -0.30812429720E+02 -0.16934610232E+03 -0.76330279238E+03  0.80124468997E+03  0.17243663229E+03 0.  0.
         24    2    5    5    0    0 -0.67271400855E+02 -0.10696428830E+03 -0.65063335718E+03  0.66731471228E+03  0.77578085828E+02 0.  0.
          5    1    5    5  501    0  0.36458971135E+02 -0.62381814019E+02 -0.11266943519E+03  0.13392997769E+03  0.47000000000E+01 0. -1.
        -11    1    6    6    0    0 -0.38576458507E+02 -0.12608045147E+02 -0.10004828982E+03  0.10796650522E+03  0.00000000000E+00 0.  1.
         12    1    6    6    0    0 -0.28694942348E+02 -0.94356243149E+02 -0.55058506736E+03  0.55934820706E+03  0.00000000000E+00 0. -1.
         -5    1    3    3    0  503  0.64403878959E+02  0.11166341543E+03 -0.91440060874E+03  0.92345391939E+03  0.47000000000E+01 0.  1.
         13    1    4    4    0    0 -0.15852279512E+02  0.68591593482E+02 -0.63067366864E+03  0.63459071674E+03  0.00000000000E+00 0. -1.
        -14    1    4    4    0    0 -0.17739169727E+02 -0.10908906593E+02 -0.62339973097E+03  0.62374747051E+03  0.00000000000E+00 0.  1.
</event>
<event>
12    1  0.8416569E-002  0.2230002E+03  0.7818608E-02  0.1131831E+00
         21   -1    0    0  503  502  0.00000000000E+00  0.00000000000E+00  0.22998194323E+03  0.22998194323E+03  0.00000000000E+00 0. -1.
         21   -1    0    0  501  503 -0.00000000000E+00 -0.00000000000E+00 -0.49251918321E+03  0.49251918321E+03  0.00000000000E+00 0. -1.
          6    2    1    2  501    0  0.11376646808E+03 -0.83835148569E+02 -0.40237948202E+03  0.46004167185E+03  0.17250493006E+03 0.  0.
         24    2    3    3    0    0  0.13973114711E+03 -0.32341982280E+02 -0.31953830376E+03  0.35899484337E+03  0.78751334623E+02 0.  0.
         -6    2    1    2    0  502 -0.11376646808E+03  0.83835148569E+02  0.13984224203E+03  0.26245945459E+03  0.17134167985E+03 0.  0.
        -24    2    5    5    0    0 -0.12962755168E+03  0.92301664603E+02  0.15670105750E+03  0.23736831022E+03  0.80408916358E+02 0.  0.
          5    1    3    3  501    0 -0.25964679025E+02 -0.51493166289E+02 -0.82841178256E+02  0.10104682848E+03  0.47000000000E+01 0. -1.
        -13    1    4    4    0    0  0.33249068029E+02  0.10612267138E+02 -0.25183338173E+02  0.43038601977E+02  0.00000000000E+00 0.  1.
         14    1    4    4    0    0  0.10648207908E+03 -0.42954249417E+02 -0.29435496559E+03  0.31595624139E+03  0.00000000000E+00 0. -1.
         -5    1    5    5    0  502  0.15861083604E+02 -0.84665160341E+01 -0.16858815472E+02  0.25091144373E+02  0.47000000000E+01 0.  1.
         11    1    6    6    0    0 -0.97936835959E+02  0.92520985635E+02  0.85859455063E+02  0.15976107988E+03  0.00000000000E+00 0. -1.
        -12    1    6    6    0    0 -0.31690715725E+02 -0.21932103242E+00  0.70841602437E+02  0.77607230338E+02  0.00000000000E+00 0.  1.
</event>
<event>
12    1  0.8416569E-002  0.2182231E+03  0.7818608E-02  0.1135590E+00
         21   -1    0    0  501  502  0.00000000000E+00  0.00000000000E+00  0.10280608366E+03  0.10280608366E+03  0.00000000000E+00 0. -1.
         21   -1    0    0  502  503 -0.00000000000E+00 -0.00000000000E+00 -0.48367736461E+03  0.48367736461E+03  0.00000000000E+00 0.  1.
         -6    2    1    2    0  503  0.92355913384E+01  0.13350390404E+03 -0.12339199089E+03  0.24896767085E+03  0.16985502397E+03 0.  0.
        -24    2    3    3    0    0 -0.53068859003E+02  0.10480219499E+03 -0.10893986923E+03  0.17870682502E+03  0.79173419364E+02 0.  0.
          6    2    1    2  501    0 -0.92355913384E+01 -0.13350390404E+03 -0.25747929006E+03  0.33751577742E+03  0.17237379922E+03 0.  0.
         24    2    5    5    0    0 -0.32988981632E+02 -0.36476010373E+01 -0.78092759277E+02  0.11474122680E+03  0.77236598662E+02 0.  0.
          5    1    5    5  501    0  0.23753390294E+02 -0.12985630300E+03 -0.17938653078E+03  0.22277455063E+03  0.47000000000E+01 0. -1.
        -13    1    6    6    0    0 -0.31900304382E+02  0.15472876677E+02 -0.86756293188E+02  0.93721362240E+02  0.00000000000E+00 0.  1.
         14    1    6    6    0    0 -0.10886772499E+01 -0.19120477714E+02  0.86635339111E+01  0.21019864557E+02  0.00000000000E+00 0. -1.
         -5    1    3    3    0  503  0.62304450341E+02  0.28701709054E+02 -0.14452121665E+02  0.70260845822E+02  0.47000000000E+01 0.  1.
         11    1    4    4    0    0 -0.66053768892E+01  0.37462464598E+01 -0.54220524541E+02  0.54749709113E+02  0.00000000000E+00 0. -1.
        -12    1    4    4    0    0 -0.46463482114E+02  0.10105594853E+03 -0.54719344684E+02  0.12395711591E+03  0.00000000000E+00 0.  1.
</event>
<event>
12    1  0.8416569E-002  0.2075405E+03  0.7818608E-02  0.1146322E+00
         21   -1    0    0  503  502  0.00000000000E+00  0.00000000000E+00  0.25311909046E+03  0.25311909046E+03  0.00000000000E+00 0.  1.
         21   -1    0    0  501  503 -0.00000000000E+00 -0.00000000000E+00 -0.16706276439E+03  0.16706276439E+03  0.00000000000E+00 0.  1.
          6    2    1    2  501    0  0.29344510976E+02  0.78635198917E+02 -0.34542637685E+01  0.19416152656E+03  0.17504905491E+03 0.  0.
         24    2    3    3    0    0  0.81545500693E+02  0.83772690039E+02  0.15352170449E+01  0.14126235775E+03  0.79279029676E+02 0.  0.
         -6    2    1    2    0  502 -0.29344510976E+02 -0.78635198917E+02  0.89510589836E+02  0.22602032828E+03  0.18981161258E+03 0.  0.
        -24    2    5    5    0    0 -0.47449402651E+02 -0.51086925733E+02  0.13375965862E+03  0.17064195213E+03  0.79785398162E+02 0.  0.
          5    1    3    3  501    0 -0.52200989717E+02 -0.51374911218E+01 -0.49894808134E+01  0.52899168814E+02  0.47000000000E+01 0. -1.
        -11    1    4    4    0    0 -0.10840839388E+02  0.26666945637E+02 -0.13178463089E+02  0.31659464266E+02  0.00000000000E+00 0.  1.
         12    1    4    4    0    0  0.92386340080E+02  0.57105744402E+02  0.14713680133E+02  0.10960289348E+03  0.00000000000E+00 0. -1.
         -5    1    5    5    0  502  0.18104891675E+02 -0.27548273184E+02 -0.44249068780E+02  0.55378376158E+02  0.47000000000E+01 0.  1.
         11    1    6    6    0    0 -0.83133316076E+01  0.16721961058E+02  0.40086317453E+01  0.19099858442E+02  0.00000000000E+00 0. -1.
        -12    1    6    6    0    0 -0.39136071043E+02 -0.67808886791E+02  0.12975102687E+03  0.15154209368E+03  0.00000000000E+00 0.  1.
</event>
<event>
12    1  0.8416569E-002  0.1857499E+03  0.7818608E-02  0.1164960E+00
         21   -1    0    0  501  502  0.00000000000E+00  0.00000000000E+00  0.16008204435E+03  0.16008204435E+03  0.00000000000E+00 0.  1.
         21   -1    0    0  502  503 -0.00000000000E+00 -0.00000000000E+00 -0.20950488786E+03  0.20950488786E+03  0.00000000000E+00 0.  1.
         -6    2    1    2    0  503  0.92562773787E+01 -0.39096553310E+02  0.83080741299E+01  0.17507246819E+03  0.17019731452E+03 0.  0.
        -24    2    3    3    0    0  0.53012102935E+02  0.25981484955E+02 -0.29198431806E+01  0.95713288120E+02  0.75280724096E+02 0.  0.
          6    2    1    2  501    0 -0.92562773787E+01  0.39096553310E+02 -0.57730917647E+02  0.19451446402E+03  0.18135269148E+03 0.  0.
         24    2    5    5    0    0 -0.23311629821E+02  0.35917827658E+02  0.37409998035E+02  0.98173709062E+02  0.80031536093E+02 0.  0.
          5    1    5    5  501    0  0.14055352442E+02  0.31787256521E+01 -0.95140915682E+02  0.96340754958E+02  0.47000000000E+01 0. -1.
        -13    1    6    6    0    0 -0.13533989308E+02  0.56154069840E+02  0.39900576021E+01  0.57899645818E+02  0.00000000000E+00 0.  1.
         14    1    6    6    0    0 -0.97776405128E+01 -0.20236242182E+02  0.33419940433E+02  0.40274063244E+02  0.00000000000E+00 0. -1.
         -5    1    3    3    0  503 -0.43755825557E+02 -0.65078038265E+02  0.11227917311E+02  0.79359180072E+02  0.47000000000E+01 0.  1.
         11    1    4    4    0    0  0.17711869332E+02  0.39524093104E+02  0.23796326308E+02  0.49417905628E+02  0.00000000000E+00 0. -1.
        -12    1    4    4    0    0  0.35300233604E+02 -0.13542608149E+02 -0.26716169488E+02  0.46295382492E+02  0.00000000000E+00 0.  1.
</event>
<event>
12    1  0.8416569E-002  0.4042702E+03  0.7818608E-02  0.1042383E+00
         21   -1    0    0  501  502  0.00000000000E+00  0.00000000000E+00  0.85869957899E+03  0.85869957899E+03  0.00000000000E+00 0. -1.
         21   -1    0    0  502  503 -0.00000000000E+00 -0.00000000000E+00 -0.28084552919E+03  0.28084552919E+03  0.00000000000E+00 0.  1.
         -6    2    1    2    0  503  0.38557763172E+02 -0.36387149931E+03 -0.35457643841E+02  0.40498016252E+03  0.16988972428E+03 0.  0.
        -24    2    3    3    0    0 -0.42877748199E+02 -0.20923964706E+03 -0.13525051506E+02  0.22878174922E+03  0.80860562481E+02 0.  0.
          6    2    1    2  501    0 -0.38557763172E+02  0.36387149931E+03  0.61331169364E+03  0.73456494566E+03  0.17188733728E+03 0.  0.
         24    2    5    5    0    0 -0.25073643772E+02  0.14165257018E+03  0.36891305304E+03  0.40393545594E+03  0.79830280058E+02 0.  0.
          5    1    5    5  501    0 -0.13484119401E+02  0.22221892913E+03  0.24439864060E+03  0.33062948971E+03  0.47000000000E+01 0. -1.
        -13    1    6    6    0    0 -0.28255651121E+01 -0.99793504351E+01  0.35548876766E+02  0.37030985574E+02  0.00000000000E+00 0.  1.
         14    1    6    6    0    0 -0.22248078659E+02  0.15163192062E+03  0.33336417627E+03  0.36690447037E+03  0.00000000000E+00 0. -1.
         -5    1    3    3    0  503  0.81435511371E+02 -0.15463185225E+03 -0.21932592335E+02  0.17619841330E+03  0.47000000000E+01 0.  1.
         11    1    4    4    0    0 -0.37253831539E+02 -0.82894725882E+02  0.28932102957E+02  0.95375311925E+02  0.00000000000E+00 0. -1.
        -12    1    4    4    0    0 -0.56239166600E+01 -0.12634492118E+03 -0.42457154463E+02  0.13340643730E+03  0.00000000000E+00 0.  1.
</event>
<event>
12    1  0.8416569E-002  0.2720132E+03  0.7818608E-02  0.1100177E+00
         21   -1    0    0  503  502  0.00000000000E+00  0.00000000000E+00  0.30323315339E+03  0.30323315339E+03  0.00000000000E+00 0. -1.
         21   -1    0    0  501  503 -0.00000000000E+00 -0.00000000000E+00 -0.34414072607E+03  0.34414072607E+03  0.00000000000E+00 0.  1.
          6    2    1    2  501    0 -0.94476762790E+02 -0.18866714989E+03 -0.19530355317E+03  0.33486513236E+03  0.17166836294E+03 0.  0.
         24    2    3    3    0    0 -0.38454011439E+02 -0.22718186631E+02 -0.46581707378E+02  0.10504371367E+03  0.82882442767E+02 0.  0.
         -6    2    1    2    0  502  0.94476762790E+02  0.18866714989E+03  0.15439598049E+03  0.31250874711E+03  0.17117957259E+03 0.  0.
        -24    2    5    5    0    0  0.73641540620E+02  0.30488449632E+02  0.56685523378E+02  0.12536166290E+03  0.78419869289E+02 0.  0.
          5    1    3    3  501    0 -0.56022751351E+02 -0.16594896326E+03 -0.14872184579E+03  0.22982141869E+03  0.47000000000E+01 0. -1.
        -13    1    4    4    0    0 -0.22748808196E+01 -0.41308369702E+02 -0.49201835641E+02  0.64283568045E+02  0.00000000000E+00 0.  1.
         14    1    4    4    0    0 -0.36179130619E+02  0.18590183071E+02  0.26201282631E+01  0.40760145621E+02  0.00000000000E+00 0. -1.
         -5    1    5    5    0  502  0.20835222170E+02  0.15817870025E+03  0.97710457113E+02  0.18714708420E+03  0.47000000000E+01 0.  1.
         13    1    6    6    0    0  0.93698913095E+01 -0.15288291300E+02  0.41222546295E+02  0.44953587589E+02  0.00000000000E+00 0. -1.
        -14    1    6    6    0    0  0.64271649310E+02  0.45776740933E+02  0.15462977082E+02  0.80408075314E+02  0.00000000000E+00 0.  1.
</event>
<event>
12    1  0.8416569E-002  0.2090258E+03  0.7818608E-02  0.1146537E+00
         21   -1    0    0  503  502  0.00000000000E+00  0.00000000000E+00  0.22852926148E+03  0.22852926148E+03  0.00000000000E+00 0.  1.
         21   -1    0    0  501  503 -0.00000000000E+00 -0.00000000000E+00 -0.23499970873E+03  0.23499970873E+03  0.00000000000E+00 0. -1.
          6    2    1    2  501    0  0.78124457267E+02  0.11803497526E+02 -0.12194765871E+03  0.24199793704E+03  0.19351748419E+03 0.  0.
         24    2    3    3    0    0  0.12395354840E+03  0.49147368377E+02 -0.84525368314E+02  0.17187384629E+03  0.67942145763E+02 0.  0.
         -6    2    1    2    0  502 -0.78124457267E+02 -0.11803497526E+02  0.11547721147E+03  0.22153103317E+03  0.17175057180E+03 0.  0.
        -24    2    5    5    0    0  0.12540921194E+02 -0.46479106723E+02  0.53663896571E+02  0.10635471346E+03  0.78191618561E+02 0.  0.
          5    1    3    3  501    0 -0.45829091135E+02 -0.37343870852E+02 -0.37422290398E+02  0.70124090747E+02  0.47000000000E+01 0. -1.
        -13    1    4    4    0    0  0.31373426751E+02  0.45478820526E+02 -0.44511405998E+02  0.70949843456E+02  0.00000000000E+00 0.  1.
         14    1    4    4    0    0  0.92580121650E+02  0.36685478512E+01 -0.40013962315E+02  0.10092400284E+03  0.00000000000E+00 0. -1.
         -5    1    5    5    0  502 -0.90665378461E+02  0.34675609197E+02  0.61813314897E+02  0.11517631972E+03  0.47000000000E+01 0.  1.
         13    1    6    6    0    0 -0.16363703440E+02 -0.38558199442E+02 -0.32700538889E+01  0.42014268849E+02  0.00000000000E+00 0. -1.
        -14    1    6    6    0    0  0.28904624634E+02 -0.79209072813E+01  0.56933950460E+02  0.64340444608E+02  0.00000000000E+00 0.  1.
</event>
<event>
12    1  0.8416569E-002  0.1778896E+03  0.7818608E-02  0.1169922E+00
         21   -1    0    0  503  502  0.00000000000E+00  0.00000000000E+00  0.96666773879E+03  0.96666773879E+03  0.00000000000E+00 0. -1.
         21   -1    0    0  501  503 -0.00000000000E+00 -0.00000000000E+00 -0.62801236745E+02  0.62801236745E+02  0.00000000000E+00 0. -1.
          6    2    1    2  501    0 -0.44434268909E+01 -0.48988004675E+02  0.95677455203E+02  0.20198731381E+03  0.17095359271E+03 0.  0.
         24    2    3    3    0    0 -0.36033267295E+02  0.10770626367E+02 -0.20140319333E+01  0.83097748832E+02  0.74072780372E+02 0.  0.
         -6    2    1    2    0  502  0.44434268909E+01  0.48988004675E+02  0.80818904684E+03  0.82748166173E+03  0.17069503923E+03 0.  0.
        -24    2    5    5    0    0 -0.60233448723E+02  0.49255074957E+02  0.55149866025E+03  0.56272665397E+03  0.80351627702E+02 0.  0.
          5    1    3    3  501    0  0.31589840404E+02 -0.59758631041E+02  0.97691487136E+02  0.11888956497E+03  0.47000000000E+01 0. -1.
        -11    1    4    4    0    0  0.50083521529E+01  0.16489346404E+02 -0.28938185534E+02  0.33680865757E+02  0.00000000000E+00 0.  1.
         12    1    4    4    0    0 -0.41041619448E+02 -0.57187200371E+01  0.26924153601E+02  0.49416883075E+02  0.00000000000E+00 0. -1.
         -5    1    5    5    0  502  0.64676875614E+02 -0.26707028213E+00  0.25669038659E+03  0.26475500776E+03  0.47000000000E+01 0.  1.
         11    1    6    6    0    0  0.14885965421E+02 -0.75190936698E+01  0.59213827591E+02  0.61517526886E+02  0.00000000000E+00 0. -1.
        -12    1    6    6    0    0 -0.75119414144E+02  0.56774168627E+02  0.49228483266E+03  0.50120912709E+03  0.00000000000E+00 0.  1.
</event>
<event>
12    1  0.8416569E-002  0.1844750E+03  0.7818608E-02  0.1166324E+00
         21   -1    0    0  501  502  0.00000000000E+00  0.00000000000E+00  0.34716047144E+03  0.34716047144E+03  0.00000000000E+00 0.  1.
         21   -1    0    0  502  503 -0.00000000000E+00 -0.00000000000E+00 -0.16161528961E+03  0.16161528961E+03  0.00000000000E+00 0.  1.
         -6    2    1    2    0  503  0.88826466636E+01 -0.19115233488E+02 -0.75802771797E+02  0.18887923504E+03  0.17171200206E+03 0.  0.
        -24    2    3    3    0    0 -0.39722758388E+02 -0.18892545297E+02  0.95632431093E+01  0.90533002310E+02  0.78548985269E+02 0.  0.
          6    2    1    2  501    0 -0.88826466636E+01  0.19115233488E+02  0.26134795363E+03  0.31989652602E+03  0.18326685714E+03 0.  0.
         24    2    5    5    0    0 -0.46489543931E+02 -0.45232049028E+02  0.19259419093E+03  0.21838780041E+03  0.79959321113E+02 0.  0.
          5    1    5    5  501    0  0.37606897268E+02  0.64347282515E+02  0.68753762703E+02  0.10150872561E+03  0.47000000000E+01 0. -1.
        -13    1    6    6    0    0 -0.43269608393E+02 -0.61699257081E+02  0.10525476585E+03  0.12945123819E+03  0.00000000000E+00 0.  1.
         14    1    6    6    0    0 -0.32199355381E+01  0.16467208053E+02  0.87339425074E+02  0.88936562212E+02  0.00000000000E+00 0. -1.
         -5    1    3    3    0  503  0.48605405051E+02 -0.22268819110E+00 -0.85366014907E+02  0.98346232726E+02  0.47000000000E+01 0.  1.
         13    1    4    4    0    0 -0.51666803813E+01  0.22999878689E+02  0.24713909552E+02  0.34153569817E+02  0.00000000000E+00 0. -1.
        -14    1    4    4    0    0 -0.34556078006E+02 -0.41892423986E+02 -0.15150666443E+02  0.56379432493E+02  0.00000000000E+00 0.  1.
</event>
<event>
12    1  0.8416569E-002  0.2087828E+03  0.7818608E-02  0.1142731E+00
         21   -1    0    0  501  502  0.00000000000E+00  0.00000000000E+00  0.36704386260E+03  0.36704386260E+03  0.00000000000E+00 0. -1.
         21   -1    0    0  502  503 -0.00000000000E+00 -0.00000000000E+00 -0.19043242717E+03  0.19043242717E+03  0.00000000000E+00 0. -1.
         -6    2    1    2    0  503  0.99082540045E+02 -0.61594559961E+02 -0.83495133972E+02  0.22394116369E+03  0.17195048078E+03 0.  0.
        -24    2    3    3    0    0  0.79334719057E+02 -0.10361172333E+03 -0.88632718497E+02  0.17699541600E+03  0.80263513734E+02 0.  0.
          6    2    1    2  501    0 -0.99082540045E+02  0.61594559961E+02  0.26010656940E+03  0.33353512608E+03  0.17314448685E+03 0.  0.
         24    2    5    5    0    0 -0.69484429967E+02 -0.10868804618E+02  0.73642029031E+02  0.13125289221E+03  0.82812778910E+02 0.  0.
          5    1    5    5  501    0 -0.29598110078E+02  0.72463364580E+02  0.18646454037E+03  0.20228223388E+03  0.47000000000E+01 0. -1.
        -13    1    6    6    0    0 -0.10051196640E+02  0.32883719622E+02  0.17895258245E+02  0.38763460084E+02  0.00000000000E+00 0.  1.
         14    1    6    6    0    0 -0.59433233327E+02 -0.43752524240E+02  0.55746770786E+02  0.92489432121E+02  0.00000000000E+00 0. -1.
         -5    1    3    3    0  503  0.19747820988E+02  0.42017163371E+02  0.51375845246E+01  0.46945747691E+02  0.47000000000E+01 0.  1.
         11    1    4    4    0    0  0.32787529143E+02 -0.17868675949E+02 -0.67545463411E+02  0.77179668792E+02  0.00000000000E+00 0. -1.
        -12    1    4    4    0    0  0.46547189914E+02 -0.85743047383E+02 -0.21087255086E+02  0.99815747207E+02  0.00000000000E+00 0.  1.
</event>
<event>
12    1  0.8416569E-002  0.1714320E+03  0.7818608E-02  0.1176520E+00
         21   -1    0    0  501  502  0.00000000000E+00  0.00000000000E+00  0.43439406723E+03  0.43439406723E+03  0.00000000000E+00 0. -1.
         21   -1    0    0  502  503 -0.00000000000E+00 -0.00000000000E+00 -0.78169500665E+02  0.78169500665E+02  0.00000000000E+00 0. -1.
         -6    2    1    2    0  503  0.13998644803E+02  0.13598461652E+02  0.27290039226E+03  0.32195444273E+03  0.16970314929E+03 0.  0.
        -24    2    3    3    0    0 -0.47114133940E+02  0.23897936104E+02  0.22180055320E+03  0.24149243647E+03  0.79575489336E+02 0.  0.
          6    2    1    2  501    0 -0.13998644803E+02 -0.13598461652E+02  0.83324174302E+02  0.19060912516E+03  0.17031746933E+03 0.  0.
         24    2    5    5    0    0  0.34187975352E+02  0.42638424573E+02  0.50802817852E+02  0.10958896496E+03  0.80261834210E+02 0.  0.
          5    1    5    5  501    0 -0.48186620154E+02 -0.56236886225E+02  0.32521356450E+02  0.81020160204E+02  0.47000000000E+01 0. -1.
        -11    1    6    6    0    0 -0.17189757353E+02  0.41464617017E+02  0.16605337953E+02  0.47859580763E+02  0.00000000000E+00 0.  1.
         12    1    6    6    0    0  0.51377732705E+02  0.11738075558E+01  0.34197479898E+02  0.61729384198E+02  0.00000000000E+00 0. -1.
         -5    1    3    3    0  503  0.61112778743E+02 -0.10299474452E+02  0.51099839058E+02  0.80462006260E+02  0.47000000000E+01 0.  1.
         11    1    4    4    0    0 -0.39313354513E+02 -0.23830348834E+02  0.89233676293E+02  0.10037965109E+03  0.00000000000E+00 0. -1.
        -12    1    4    4    0    0 -0.78007794269E+01  0.47728284938E+02  0.13256687691E+03  0.14111278537E+03  0.00000000000E+00 0.  1.
</event>
<event>
12    1  0.8416569E-002  0.1988089E+03  0.7818608E-02  0.1151028E+00
         21   -1    0    0  501  502  0.00000000000E+00  0.00000000000E+00  0.21457366465E+03  0.21457366465E+03  0.00000000000E+00 0.  1.
         21   -1    0    0  502  503 -0.00000000000E+00 -0.00000000000E+00 -0.26174522813E+03  0.26174522813E+03  0.00000000000E+00 0. -1.
         -6    2    1    2    0  503 -0.65257425203E+02 -0.72723261155E+02 -0.15417128187E+03  0.25054484586E+03  0.17162963432E+03 0.  0.
        -24    2    3    3    0    0 -0.49073724146E+01 -0.98902256551E+02 -0.12760345726E+03  0.17944345364E+03  0.78176544402E+02 0.  0.
          6    2    1    2  501    0  0.65257425203E+02  0.72723261155E+02  0.10699971839E+03  0.22577404691E+03  0.17314091448E+03 0.  0.
         24    2    5    5    0    0  0.48553915972E+02  0.54428512747E+02  0.14473119259E+03  0.18039278222E+03  0.79211691123E+02 0.  0.
          5    1    5    5  501    0  0.16703509232E+02  0.18294748408E+02 -0.37731474203E+02  0.45381264697E+02  0.47000000000E+01 0. -1.
        -13    1    6    6    0    0  0.18967118542E+02  0.71151775478E+02  0.96318214490E+02  0.12124159840E+03  0.00000000000E+00 0.  1.
         14    1    6    6    0    0  0.29586797429E+02 -0.16723262730E+02  0.48412978103E+02  0.59151183819E+02  0.00000000000E+00 0. -1.
         -5    1    3    3    0  503 -0.60350052789E+02  0.26178995396E+02 -0.26567824618E+02  0.71101392226E+02  0.47000000000E+01 0.  1.
         13    1    4    4    0    0 -0.42260692574E+01 -0.10741066630E+03 -0.13168032233E+03  0.16998417040E+03  0.00000000000E+00 0. -1.
        -14    1    4    4    0    0 -0.68130315721E+00  0.85084097520E+01  0.40768650766E+01  0.94592832368E+01  0.00000000000E+00 0.  1.
</event>
<event>
12    1  0.8416569E-002  0.1976663E+03  0.7818608E-02  0.1151730E+00
         21   -1    0    0  501  502  0.00000000000E+00  0.00000000000E+00  0.10643659714E+04  0.10643659714E+04  0.00000000000E+00 0.  1.
         21   -1    0    0  502  503 -0.00000000000E+00 -0.00000000000E+00 -0.11413096168E+03  0.11413096168E+03  0.00000000000E+00 0.  1.
         -6    2    1    2    0  503  0.91507516230E+02 -0.36220796501E+02 -0.10209395407E+02  0.19792974631E+03  0.17142456385E+03 0.  0.
        -24    2    3    3    0    0  0.20273348389E+02 -0.79102347343E+02 -0.17882941421E+02  0.11429896621E+03  0.77950394953E+02 0.  0.
          6    2    1    2  501    0 -0.91507516230E+02  0.36220796501E+02  0.96044440516E+03  0.98056718681E+03  0.17138547436E+03 0.  0.
         24    2    5    5    0    0 -0.69741958260E+02  0.88848771322E+02  0.60950959867E+03  0.62501019889E+03  0.79860834888E+02 0.  0.
          5    1    5    5  501    0 -0.21765557969E+02 -0.52627974821E+02  0.35093480649E+03  0.35555698792E+03  0.47000000000E+01 0. -1.
        -11    1    6    6    0    0  0.10759505091E+02 -0.50741963158E+01  0.26899043845E+02  0.29412122974E+02  0.00000000000E+00 0.  1.
         12    1    6    6    0    0 -0.80501463352E+02  0.93922967638E+02  0.58261055482E+03  0.59559807592E+03  0.00000000000E+00 0. -1.
         -5    1    3    3    0  503  0.71234167841E+02  0.42881550843E+02  0.76735460147E+01  0.83630780094E+02  0.47000000000E+01 0.  1.
         11    1    4    4    0    0 -0.13471086007E+02 -0.13082205766E+02 -0.33614909105E+02  0.38504238468E+02  0.00000000000E+00 0. -1.
        -12    1    4    4    0    0  0.33744434396E+02 -0.66020141578E+02  0.15731967683E+02  0.75794727744E+02  0.00000000000E+00 0.  1.
</event>
<event>
12    1  0.8416569E-002  0.1755944E+03  0.7818608E-02  0.1173037E+00
         21   -1    0    0  503  502  0.00000000000E+00  0.00000000000E+00  0.41295000069E+03  0.41295000069E+03  0.00000000000E+00 0.  1.
         21   -1    0    0  501  503 -0.00000000000E+00 -0.00000000000E+00 -0.17820565190E+03  0.17820565190E+03  0.00000000000E+00 0.  1.
          6    2    1    2  501    0 -0.70517880375E+01 -0.14124684838E+02 -0.11005262684E+03  0.20422108184E+03  0.17130509379E+03 0.  0.
         24    2    3    3    0    0 -0.49114122864E+02 -0.13623021403E+02 -0.12726121009E+03  0.15852953979E+03  0.79614167192E+02 0.  0.
         -6    2    1    2    0  502  0.70517880375E+01  0.14124684838E+02  0.34479697563E+03  0.38693457075E+03  0.17488331311E+03 0.  0.
        -24    2    5    5    0    0 -0.45632553414E+02 -0.36345259891E+01  0.30403420818E+03  0.31783520307E+03  0.80541150101E+02 0.  0.
          5    1    3    3  501    0  0.42062334827E+02 -0.50166343483E+00  0.17208583244E+02  0.45691542046E+02  0.47000000000E+01 0. -1.
        -13    1    4    4    0    0  0.10207504693E+02  0.13170750670E+02 -0.69613433757E+02  0.71579969159E+02  0.00000000000E+00 0.  1.
         14    1    4    4    0    0 -0.59321627557E+02 -0.26793772073E+02 -0.57647776328E+02  0.86949570635E+02  0.00000000000E+00 0. -1.
         -5    1    5    5    0  502  0.52684341451E+02  0.17759210827E+02  0.40762767450E+02  0.69099367678E+02  0.47000000000E+01 0.  1.
         11    1    6    6    0    0 -0.14531770998E+02 -0.40471452474E+02  0.17137119949E+03  0.17668389527E+03  0.00000000000E+00 0. -1.
        -12    1    6    6    0    0 -0.31100782416E+02  0.36836926485E+02  0.13266300869E+03  0.14115130780E+03  0.00000000000E+00 0.  1.
</event>
<event>
12    1  0.8416569E-002  0.2286833E+03  0.7818608E-02  0.1127604E+00
         21   -1    0    0  501  502  0.00000000000E+00  0.00000000000E+00  0.56071596350E+03  0.56071596350E+03  0.00000000000E+00 0.  1.
         21   -1    0    0  502  503 -0.00000000000E+00 -0.00000000000E+00 -0.11429927418E+03  0.11429927418E+03  0.00000000000E+00 0.  1.
         -6    2    1    2    0  503 -0.13143572081E+03 -0.73395467158E+02  0.78232597037E+02  0.24169484887E+03  0.17214475719E+03 0.  0.
        -24    2    3    3    0    0 -0.17418253760E+02  0.12269974876E+02  0.50215241163E+02  0.96279536814E+02  0.79336189198E+02 0.  0.
          6    2    1    2  501    0  0.13143572081E+03  0.73395467158E+02  0.36818409228E+03  0.43332038882E+03  0.17188598038E+03 0.  0.
         24    2    5    5    0    0  0.10752933398E+03  0.85918033621E+02  0.37325530122E+03  0.40546115045E+03  0.78324698975E+02 0.  0.
          5    1    5    5  501    0  0.23906386831E+02 -0.12522566463E+02 -0.50712089399E+01  0.27859238365E+02  0.47000000000E+01 0. -1.
        -11    1    6    6    0    0  0.44655515286E+02 -0.79536281636E+01  0.11011062797E+03  0.11908705067E+03  0.00000000000E+00 0.  1.
         12    1    6    6    0    0  0.62873818689E+02  0.93871661784E+02  0.26314467326E+03  0.28637409978E+03  0.00000000000E+00 0. -1.
         -5    1    3    3    0  503 -0.11401746705E+03 -0.85665442034E+02  0.28017355874E+02  0.14541531206E+03  0.47000000000E+01 0.  1.
         13    1    4    4    0    0  0.55342000192E+01  0.29636276988E+01  0.66397915836E+02  0.66694030365E+02  0.00000000000E+00 0. -1.
        -14    1    4    4    0    0 -0.22952453779E+02  0.93063471770E+01 -0.16182674673E+02  0.29585506449E+02  0.00000000000E+00 0.  1.
</event>
<event>
12    1  0.8416569E-002  0.1903234E+03  0.7818608E-02  0.1158351E+00
         21   -1    0    0  501  502  0.00000000000E+00  0.00000000000E+00  0.21025196133E+03  0.21025196133E+03  0.00000000000E+00 0. -1.
         21   -1    0    0  502  503 -0.00000000000E+00 -0.00000000000E+00 -0.24534069986E+03  0.24534069986E+03  0.00000000000E+00 0. -1.
         -6    2    1    2    0  503  0.34278551766E+02 -0.73463484899E+02  0.10740385841E+03  0.21783827094E+03  0.17130680301E+03 0.  0.
        -24    2    3    3    0    0  0.29702684493E+02 -0.67806039401E+01 -0.65186083477E+01  0.85671847038E+02  0.79805683158E+02 0.  0.
          6    2    1    2  501    0 -0.34278551766E+02  0.73463484899E+02 -0.14249259693E+03  0.23775439025E+03  0.17219496851E+03 0.  0.
         24    2    5    5    0    0 -0.98158098367E+01  0.11544368756E+03 -0.11340712034E+03  0.18093170018E+03  0.80321292735E+02 0.  0.
          5    1    5    5  501    0 -0.24462741929E+02 -0.41980202662E+02 -0.29085476591E+02  0.56822690069E+02  0.47000000000E+01 0. -1.
        -13    1    6    6    0    0  0.51953004985E+01  0.51789827150E+02 -0.24163029497E+01  0.52105814104E+02  0.00000000000E+00 0.  1.
         14    1    6    6    0    0 -0.15011110335E+02  0.63653860410E+02 -0.11099081739E+03  0.12882588608E+03  0.00000000000E+00 0. -1.
         -5    1    3    3    0  503  0.45758672727E+01 -0.66682880959E+02  0.11392246675E+03  0.13216642390E+03  0.47000000000E+01 0.  1.
         13    1    4    4    0    0 -0.33141232592E+01 -0.33440580701E+02  0.16453769638E+02  0.37416338489E+02  0.00000000000E+00 0. -1.
        -14    1    4    4    0    0  0.33016807752E+02  0.26659976761E+02 -0.22972377985E+02  0.48255508549E+02  0.00000000000E+00 0.  1.
</event>
<event>
12    1  0.8416569E-002  0.1736656E+03  0.7818608E-02  0.1174618E+00
         21   -1    0    0  503  502  0.00000000000E+00  0.00000000000E+00  0.72354878053E+03  0.72354878053E+03  0.00000000000E+00 0. -1.
         21   -1    0    0  501  503 -0.00000000000E+00 -0.00000000000E+00 -0.47238408928E+02  0.47238408928E+02  0.00000000000E+00 0. -1.
          6    2    1    2  501    0  0.17092873355E+02 -0.45580000569E+01  0.20190994649E+03  0.26632190071E+03  0.17276222567E+03 0.  0.
         24    2    3    3    0    0  0.66754768619E+02  0.24259819873E+02  0.17014053049E+03  0.20053317538E+03  0.78873419596E+02 0.  0.
         -6    2    1    2    0  502 -0.17092873355E+02  0.45580000569E+01  0.47440042510E+03  0.50446528875E+03  0.17063564261E+03 0.  0.
        -24    2    5    5    0    0 -0.25043913095E+02  0.40416047796E+02  0.45151793864E+03  0.46093694388E+03  0.79584940864E+02 0.  0.
          5    1    3    3  501    0 -0.49661895265E+02 -0.28817819930E+02  0.31769416008E+02  0.65788725328E+02  0.47000000000E+01 0. -1.
        -11    1    4    4    0    0  0.59846957233E+02  0.47352099745E+02  0.15293778082E+03  0.17092057934E+03  0.00000000000E+00 0.  1.
         12    1    4    4    0    0  0.69078113862E+01 -0.23092279872E+02  0.17202749664E+02  0.29612596033E+02  0.00000000000E+00 0. -1.
         -5    1    5    5    0  502  0.79510397406E+01 -0.35858047739E+02  0.22882486461E+02  0.43528344871E+02  0.47000000000E+01 0.  1.
         13    1    6    6    0    0  0.22934945021E+02  0.23458442546E+02  0.88795081766E+02  0.94661907732E+02  0.00000000000E+00 0. -1.
        -14    1    6    6    0    0 -0.47978858116E+02  0.16957605250E+02  0.36272285688E+03  0.36627503614E+03  0.00000000000E+00 0.  1.
</event>
<event>
12    1  0.8416569E-002  0.1841831E+03  0.7818608E-02  0.1166449E+00
         21   -1    0    0  501  502  0.00000000000E+00  0.00000000000E+00  0.55270781111E+02  0.55270781111E+02  0.00000000000E+00 0.  1.
         21   -1    0    0  502  503 -0.00000000000E+00 -0.00000000000E+00 -0.58684322127E+03  0.58684322127E+03  0.00000000000E+00 0.  1.
         -6    2    1    2    0  503 -0.12183769967E+02  0.11996905784E+02 -0.29697568901E+03  0.34385395589E+03  0.17247786269E+03 0.  0.
        -24    2    3    3    0    0 -0.38089766230E+02 -0.23932766128E+02 -0.28282140601E+03  0.29711536698E+03  0.79157981351E+02 0.  0.
          6    2    1    2  501    0  0.12183769967E+02 -0.11996905784E+02 -0.23459675114E+03  0.29826004649E+03  0.18338770320E+03 0.  0.
         24    2    5    5    0    0 -0.40910227268E+02  0.47523443088E+02 -0.15603978913E+03  0.18621125911E+03  0.79963072039E+02 0.  0.
          5    1    5    5  501    0  0.53093997236E+02 -0.59520348872E+02 -0.78556962014E+02  0.11204878738E+03  0.47000000000E+01 0. -1.
        -13    1    6    6    0    0 -0.21793123235E+02  0.61165875679E+02 -0.63809368320E+02  0.91037574953E+02  0.00000000000E+00 0.  1.
         14    1    6    6    0    0 -0.19117104033E+02 -0.13642432590E+02 -0.92230420806E+02  0.95173684156E+02  0.00000000000E+00 0. -1.
         -5    1    3    3    0  503  0.25905996263E+02  0.35929671911E+02 -0.14154283004E+02  0.46738588910E+02  0.47000000000E+01 0.  1.
         11    1    4    4    0    0 -0.45859513776E+02 -0.40475552591E+01 -0.26594757967E+03  0.26990293226E+03  0.00000000000E+00 0. -1.
        -12    1    4    4    0    0  0.77697475463E+01 -0.19885210868E+02 -0.16873826338E+02  0.27212434722E+02  0.00000000000E+00 0.  1.
</event>
<event>
12    1  0.8416569E-002  0.1897472E+03  0.7818608E-02  0.1158915E+00
         21   -1    0    0  501  502  0.00000000000E+00  0.00000000000E+00  0.80561581729E+03  0.80561581729E+03  0.00000000000E+00 0. -1.
         21   -1    0    0  502  503 -0.00000000000E+00 -0.00000000000E+00 -0.64076162719E+02  0.64076162719E+02  0.00000000000E+00 0.  1.
         -6    2    1    2    0  503  0.45596492002E+02 -0.62667013604E+02  0.12947499496E+03  0.22889001675E+03  0.17210656807E+03 0.  0.
        -24    2    3    3    0    0 -0.36844780731E+02 -0.24001536629E+02  0.32661349638E+02  0.95899210753E+02  0.78716473722E+02 0.  0.
          6    2    1    2  501    0 -0.45596492002E+02  0.62667013604E+02  0.61206465961E+03  0.64080196326E+03  0.17319876989E+03 0.  0.
         24    2    5    5    0    0  0.29974974027E+02 -0.57591122369E+01  0.33372386854E+03  0.34434139733E+03  0.79168876712E+02 0.  0.
          5    1    5    5  501    0 -0.75571466030E+02  0.68426125841E+02  0.27834079107E+03  0.29646056593E+03  0.47000000000E+01 0. -1.
        -13    1    6    6    0    0  0.39719964073E+02 -0.34721427748E+02  0.24119093102E+03  0.24689333385E+03  0.00000000000E+00 0.  1.
         14    1    6    6    0    0 -0.97449900458E+01  0.28962315511E+02  0.92532937520E+02  0.97448063484E+02  0.00000000000E+00 0. -1.
         -5    1    3    3    0  503  0.82441272734E+02 -0.38665476975E+02  0.96813645318E+02  0.13299080600E+03  0.47000000000E+01 0.  1.
         13    1    4    4    0    0 -0.51019387996E+02 -0.24763117565E+02 -0.37333543320E+01  0.56834213970E+02  0.00000000000E+00 0. -1.
        -14    1    4    4    0    0  0.14174607264E+02  0.76158093584E+00  0.36394703970E+02  0.39064996783E+02  0.00000000000E+00 0.  1.
</event>
<event>
12    1  0.8416569E-002  0.2269297E+03  0.7818608E-02  0.1129445E+00
         21   -1    0    0  501  502  0.00000000000E+00  0.00000000000E+00  0.49544954742E+03  0.49544954742E+03  0.00000000000E+00 0. -1.
         21   -1    0    0  502  503 -0.00000000000E+00 -0.00000000000E+00 -0.45085738180E+03  0.45085738180E+03  0.00000000000E+00 0. -1.
         -6    2    1    2    0  503 -0.13898021236E+03 -0.46416907932E+02 -0.39372943151E+03  0.45272521855E+03  0.16872234441E+03 0.  0.
        -24    2    3    3    0    0 -0.10061039102E+03  0.25056857725E+02 -0.16923844414E+03  0.21398051017E+03  0.79973188376E+02 0.  0.
          6    2    1    2  501    0  0.13898021236E+03  0.46416907932E+02  0.43832159713E+03  0.49358171067E+03  0.17328316084E+03 0.  0.
         24    2    5    5    0    0  0.69039591828E+02 -0.35227740936E+02  0.15794991181E+03  0.19326868895E+03  0.79982201238E+02 0.  0.
          5    1    5    5  501    0  0.69940620537E+02  0.81644648868E+02  0.28037168532E+03  0.30031302172E+03  0.47000000000E+01 0. -1.
        -11    1    6    6    0    0  0.11349618471E+02 -0.42841836370E+02  0.10741124791E+03  0.11619558064E+03  0.00000000000E+00 0.  1.
         12    1    6    6    0    0  0.57689973356E+02  0.76140954338E+01  0.50538663907E+02  0.77073108310E+02  0.00000000000E+00 0. -1.
         -5    1    3    3    0  503 -0.38369821345E+02 -0.71473765657E+02 -0.22449098737E+03  0.23874470837E+03  0.47000000000E+01 0.  1.
         11    1    4    4    0    0 -0.50693167341E+02  0.15497149485E+02 -0.15091489644E+03  0.15995394595E+03  0.00000000000E+00 0. -1.
        -12    1    4    4    0    0 -0.49917223678E+02  0.95597082397E+01 -0.18323547697E+02  0.54026564222E+02  0.00000000000E+00 0.  1.
</event>
<event>
12    1  0.8416569E-002  0.1912842E+03  0.7818608E-02  0.1157445E+00
         21   -1    0    0  503  502  0.00000000000E+00  0.00000000000E+00  0.90652079235E+03  0.90652079235E+03  0.00000000000E+00 0.  1.
         21   -1    0    0  501  503 -0.00000000000E+00 -0.00000000000E+00 -0.87424335128E+02  0.87424335128E+02  0.00000000000E+00 0.  1.
          6    2    1    2  501    0 -0.46146073056E+02 -0.71307705200E+02  0.44119740543E+02  0.19571048118E+03  0.17070967184E+03 0.  0.
         24    2    3    3    0    0  0.32465370598E+02 -0.68333955368E+02  0.31597879409E+02  0.11591393196E+03  0.81939513638E+02 0.  0.
         -6    2    1    2    0  502  0.46146073056E+02  0.71307705200E+02  0.77497671668E+03  0.79823464630E+03  0.17139250355E+03 0.  0.
        -24    2    5    5    0    0  0.51584492837E+02  0.48379227635E+02  0.76830711999E+03  0.77329742486E+03  0.51880315095E+02 0.  0.
          5    1    3    3  501    0 -0.78611443654E+02 -0.29737498314E+01  0.12521861134E+02  0.79796549222E+02  0.47000000000E+01 0. -1.
        -13    1    4    4    0    0  0.32387108105E+02 -0.84402570338E+02  0.12995559784E+02  0.91332377748E+02  0.00000000000E+00 0.  1.
         14    1    4    4    0    0  0.78262493013E-01  0.16068614970E+02  0.18602319626E+02  0.24581554213E+02  0.00000000000E+00 0. -1.
         -5    1    5    5    0  502 -0.54384197809E+01  0.22928477565E+02  0.66695966910E+01  0.24937221441E+02  0.47000000000E+01 0.  1.
         13    1    6    6    0    0  0.17457578513E+02 -0.73141383998E+01  0.97683933237E+02  0.99500826533E+02  0.00000000000E+00 0. -1.
        -14    1    6    6    0    0  0.34126914324E+02  0.55693366035E+02  0.67062318675E+03  0.67379659832E+03  0.00000000000E+00 0.  1.
</event>
<event>
12    1  0.8416569E-002  0.2422548E+03  0.7818608E-02  0.1118383E+00
         21   -1    0    0  503  502  0.00000000000E+00  0.00000000000E+00  0.15661057765E+03  0.15661057765E+03  0.00000000000E+00 0.  1.
         21   -1    0    0  501  503 -0.00000000000E+00 -0.00000000000E+00 -0.37853338280E+03  0.37853338280E+03  0.00000000000E+00 0. -1.
          6    2    1    2  501    0 -0.98904583869E+02 -0.13658919075E+03 -0.14028056095E+03  0.27950192483E+03  0.17321653057E+03 0.  0.
         24    2    3    3    0    0 -0.56398693937E+02 -0.12729165859E+03 -0.33083131852E+02  0.16371516571E+03  0.79524731034E+02 0.  0.
         -6    2    1    2    0  502  0.98904583869E+02  0.13658919075E+03 -0.81642244213E+02  0.25564203562E+03  0.17392144950E+03 0.  0.
        -24    2    5    5    0    0  0.39698689307E+01  0.99886194728E+02 -0.32839247814E+01  0.12710477938E+03  0.78433596262E+02 0.  0.
          5    1    3    3  501    0 -0.42505889932E+02 -0.92975321636E+01 -0.10719742909E+03  0.11578675912E+03  0.47000000000E+01 0. -1.
        -11    1    4    4    0    0 -0.57037343449E+02 -0.13377303394E+03 -0.43179741087E+02  0.15170027421E+03  0.00000000000E+00 0.  1.
         12    1    4    4    0    0  0.63864951276E+00  0.64813753477E+01  0.10096609235E+02  0.12014891495E+02  0.00000000000E+00 0. -1.
         -5    1    5    5    0  502  0.94934714938E+02  0.36702996026E+02 -0.78358319432E+02  0.12853725624E+03  0.47000000000E+01 0.  1.
         11    1    6    6    0    0  0.28820927852E+02  0.57758030224E+02 -0.30212527645E+02  0.71270139360E+02  0.00000000000E+00 0. -1.
        -12    1    6    6    0    0 -0.24851058921E+02  0.42128164503E+02  0.26928602864E+02  0.55834640020E+02  0.00000000000E+00 0.  1.
</event>
<event>
12    1  0.8416569E-002  0.1947291E+03  0.7818608E-02  0.1155060E+00
         21   -1    0    0  503  502  0.00000000000E+00  0.00000000000E+00  0.56033292920E+02  0.56033292920E+02  0.00000000000E+00 0.  1.
         21   -1    0    0  501  503 -0.00000000000E+00 -0.00000000000E+00 -0.11236235024E+04  0.11236235024E+04  0.00000000000E+00 0.  1.
          6    2    1    2  501    0 -0.80558013202E+02 -0.35928318449E+02 -0.90797080614E+03  0.92786762459E+03  0.16954912679E+03 0.  0.
         24    2    3    3    0    0 -0.71977070097E+02  0.24249783399E+02 -0.74028024652E+03  0.74943766547E+03  0.88731169346E+02 0.  0.
         -6    2    1    2    0  502  0.80558013202E+02  0.35928318449E+02 -0.15961940336E+03  0.25178917076E+03  0.17360586114E+03 0.  0.
        -24    2    5    5    0    0  0.73980073581E+02  0.45378690572E+02 -0.30749611549E+02  0.12232067241E+03  0.80526588419E+02 0.  0.
          5    1    3    3  501    0 -0.85809431042E+01 -0.60178101848E+02 -0.16769055962E+03  0.17842995912E+03  0.47000000000E+01 0. -1.
        -11    1    4    4    0    0 -0.42189365262E+02  0.39144405667E+00 -0.65070103394E+03  0.65206742852E+03  0.00000000000E+00 0.  1.
         12    1    4    4    0    0 -0.29787704835E+02  0.23858339342E+02 -0.89579212581E+02  0.97370236942E+02  0.00000000000E+00 0. -1.
         -5    1    5    5    0  502  0.65779396203E+01 -0.94503721226E+01 -0.12886979181E+03  0.12946849835E+03  0.47000000000E+01 0.  1.
         11    1    6    6    0    0 -0.98512140382E+01  0.24291840084E+02 -0.24123826861E+02  0.35624414874E+02  0.00000000000E+00 0. -1.
        -12    1    6    6    0    0  0.83831287620E+02  0.21086850488E+02 -0.66257846884E+01  0.86696257533E+02  0.00000000000E+00 0.  1.
</event>
<event>
12    1  0.8416569E-002  0.2276406E+03  0.7818608E-02  0.1128338E+00
         21   -1    0    0  501  502  0.00000000000E+00  0.00000000000E+00  0.42151532104E+03  0.42151532104E+03  0.00000000000E+00 0. -1.
         21   -1    0    0  502  503 -0.00000000000E+00 -0.00000000000E+00 -0.23199182439E+03  0.23199182439E+03  0.00000000000E+00 0. -1.
         -6    2    1    2    0  503  0.25739407657E+02 -0.14701333500E+03 -0.12933430625E+03  0.26181598098E+03  0.17188603011E+03 0.  0.
        -24    2    3    3    0    0  0.74835864374E+01 -0.26680162567E+01 -0.54014842465E+02  0.97913700099E+02  0.81279561292E+02 0.  0.
          6    2    1    2  501    0 -0.25739407657E+02  0.14701333500E+03  0.31885780290E+03  0.39169116446E+03  0.17168643529E+03 0.  0.
         24    2    5    5    0    0 -0.60341995471E+02  0.13404352084E+03  0.17107557816E+03  0.23928633805E+03  0.79889149682E+02 0.  0.
          5    1    5    5  501    0  0.34602587814E+02  0.12969814167E+02  0.14778222474E+03  0.15240482641E+03  0.47000000000E+01 0. -1.
        -11    1    6    6    0    0  0.12220989804E+02  0.30800280986E+02  0.98945267414E+01  0.34581954254E+02  0.00000000000E+00 0.  1.
         12    1    6    6    0    0 -0.72562985276E+02  0.10324323985E+03  0.16118105142E+03  0.20470438379E+03  0.00000000000E+00 0. -1.
         -5    1    3    3    0  503  0.18255821220E+02 -0.14434531875E+03 -0.75319463784E+02  0.16390228088E+03  0.47000000000E+01 0.  1.
         13    1    4    4    0    0  0.30785579627E+02 -0.29914737319E+02 -0.16406403317E+02  0.45954471944E+02  0.00000000000E+00 0. -1.
        -14    1    4    4    0    0 -0.23301993190E+02  0.27246721063E+02 -0.37608439148E+02  0.51959228155E+02  0.00000000000E+00 0.  1.
</event>
<event>
12    1  0.8416569E-002  0.1862200E+03  0.7818608E-02  0.1162107E+00
         21   -1    0    0  501  502  0.00000000000E+00  0.00000000000E+00  0.26739154664E+02  0.26739154664E+02  0.00000000000E+00 0. -1.
         21   -1    0    0  502  503 -0.00000000000E+00 -0.00000000000E+00 -0.15237148366E+04  0.15237148366E+04  0.00000000000E+00 0. -1.
         -6    2    1    2    0  503 -0.60146715158E+02 -0.37163582969E+02 -0.10499364402E+04  0.10661792916E+04  0.17138551363E+03 0.  0.
        -24    2    3    3    0    0 -0.86666216631E+01  0.42756559535E+02 -0.50288783837E+03  0.51091206594E+03  0.78941291026E+02 0.  0.
          6    2    1    2  501    0  0.60146715158E+02  0.37163582969E+02 -0.44703924176E+03  0.48427469962E+03  0.17227635292E+03 0.  0.
         24    2    5    5    0    0  0.44655247519E+02  0.85441995713E+02 -0.38058713910E+03  0.40055634647E+03  0.79400191959E+02 0.  0.
          5    1    5    5  501    0  0.15491467639E+02 -0.48278412743E+02 -0.66452102656E+02  0.83718353149E+02  0.47000000000E+01 0. -1.
        -13    1    6    6    0    0  0.41610182570E+02  0.22748424323E+01 -0.12709663740E+03  0.13375401841E+03  0.00000000000E+00 0.  1.
         14    1    6    6    0    0  0.30450649487E+01  0.83167153280E+02 -0.25349050170E+03  0.26680232806E+03  0.00000000000E+00 0. -1.
         -5    1    3    3    0  503 -0.51480093495E+02 -0.79920142504E+02 -0.54704860179E+03  0.55526722569E+03  0.47000000000E+01 0.  1.
         13    1    4    4    0    0 -0.11273345166E+02  0.63729138833E+02 -0.29854810976E+03  0.30548234857E+03  0.00000000000E+00 0. -1.
        -14    1    4    4    0    0  0.26067235032E+01 -0.20972579297E+02 -0.20433972861E+03  0.20542971737E+03  0.00000000000E+00 0.  1.
</event>
<event>
12    1  0.8416569E-002  0.1920268E+03  0.7818608E-02  0.1157154E+00
         21   -1    0    0  503  502  0.00000000000E+00  0.00000000000E+00  0.72266554481E+03  0.72266554481E+03  0.00000000000E+00 0. -1.
         21   -1    0    0  501  503 -0.00000000000E+00 -0.00000000000E+00 -0.88410140095E+02  0.88410140095E+02  0.00000000000E+00 0. -1.
          6    2    1    2  501    0 -0.66136399055E+02 -0.34647288085E+02  0.50230957266E+02  0.19629211065E+03  0.17445052532E+03 0.  0.
         24    2    3    3    0    0 -0.58915647211E+02  0.14638775799E+02  0.87903044315E+02  0.13366199415E+03  0.80332037420E+02 0.  0.
         -6    2    1    2    0  502  0.66136399055E+02  0.34647288085E+02  0.58402444745E+03  0.61478357426E+03  0.17691757999E+03 0.  0.
        -24    2    5    5    0    0  0.10206960368E+03 -0.14753837322E+02  0.41536326530E+03  0.43533901249E+03  0.79734145268E+02 0.  0.
          5    1    3    3  501    0 -0.72207518448E+01 -0.49286063884E+02 -0.37672087049E+02  0.62630116502E+02  0.47000000000E+01 0. -1.
        -13    1    4    4    0    0  0.14808527678E+02  0.21578757671E+02  0.17480877355E+02  0.31472469679E+02  0.00000000000E+00 0.  1.
         14    1    4    4    0    0 -0.73724174888E+02 -0.69399818719E+01  0.70422166960E+02  0.10218952447E+03  0.00000000000E+00 0. -1.
         -5    1    5    5    0  502 -0.35933204620E+02  0.49401125407E+02  0.16866118215E+03  0.17944456177E+03  0.47000000000E+01 0.  1.
         11    1    6    6    0    0  0.12377204393E+02 -0.28260113923E+01  0.28403560085E+01  0.13009579211E+02  0.00000000000E+00 0. -1.
        -12    1    6    6    0    0  0.89692399282E+02 -0.11927825930E+02  0.41252290930E+03  0.42232943328E+03  0.00000000000E+00 0.  1.
</event>
<event>
12    1  0.8416569E-002  0.2150925E+03  0.7818608E-02  0.1137997E+00
         21   -1    0    0  501  502  0.00000000000E+00  0.00000000000E+00  0.20526851611E+03  0.20526851611E+03  0.00000000000E+00 0. -1.
         21   -1    0    0  502  503 -0.00000000000E+00 -0.00000000000E+00 -0.24739991296E+03  0.24739991296E+03  0.00000000000E+00 0. -1.
         -6    2    1    2    0  503  0.41377449915E+02  0.11841517459E+03 -0.91925920598E+02  0.23391271811E+03  0.17472989979E+03 0.  0.
        -24    2    3    3    0    0 -0.29939460935E+02  0.17685700009E+02 -0.13538681142E+02  0.87628138841E+02  0.79285809094E+02 0.  0.
          6    2    1    2  501    0 -0.41377449915E+02 -0.11841517459E+03  0.49794523747E+02  0.21875571096E+03  0.17216364177E+03 0.  0.
         24    2    5    5    0    0  0.25195373052E+02 -0.92461028655E+02  0.68480178028E+02  0.14475029140E+03  0.84138358868E+02 0.  0.
          5    1    5    5  501    0 -0.66572822967E+02 -0.25954145939E+02 -0.18685654282E+02  0.74005419566E+02  0.47000000000E+01 0. -1.
        -11    1    6    6    0    0 -0.20367620596E+02 -0.13351313895E+01  0.29051254114E+02  0.35504899805E+02  0.00000000000E+00 0.  1.
         12    1    6    6    0    0  0.45562993648E+02 -0.91125897266E+02  0.39428923915E+02  0.10924539159E+03  0.00000000000E+00 0. -1.
         -5    1    3    3    0  503  0.71316910850E+02  0.10072947459E+03 -0.78387239456E+02  0.14628457927E+03  0.47000000000E+01 0.  1.
         13    1    4    4    0    0  0.10151541841E+02  0.19776291626E+02 -0.35486982966E+02  0.41874592204E+02  0.00000000000E+00 0. -1.
        -14    1    4    4    0    0 -0.40091002776E+02 -0.20905916171E+01  0.21948301824E+02  0.45753546637E+02  0.00000000000E+00 0.  1.
</event>
<event>
12    1  0.8416569E-002  0.2143430E+03  0.7818608E-02  0.1138404E+00
         21   -1    0    0  503  502  0.00000000000E+00  0.00000000000E+00  0.32493140019E+03  0.32493140019E+03  0.00000000000E+00 0.  1.
         21   -1    0    0  501  503 -0.00000000000E+00 -0.00000000000E+00 -0.21353233078E+03  0.21353233078E+03  0.00000000000E+00 0.  1.
          6    2    1    2  501    0  0.27814871128E+02 -0.12303318423E+03 -0.10174462007E+03  0.23618377917E+03  0.17181378975E+03 0.  0.
         24    2    3    3    0    0 -0.43715417660E+02 -0.38886010955E+02 -0.72275596621E+02  0.12178167111E+03  0.78637484459E+02 0.  0.
         -6    2    1    2    0  502 -0.27814871128E+02  0.12303318423E+03  0.21314368949E+03  0.30227995179E+03  0.17329773631E+03 0.  0.
        -24    2    5    5    0    0 -0.13721046986E+02  0.72444353534E+01  0.15443449251E+03  0.17161040654E+03  0.73207719426E+02 0.  0.
          5    1    3    3  501    0  0.71530288788E+02 -0.84147173280E+02 -0.29469023454E+02  0.11440210806E+03  0.47000000000E+01 0. -1.
        -11    1    4    4    0    0 -0.36329514185E+02 -0.27416466617E+02  0.26821525861E+01  0.45592654948E+02  0.00000000000E+00 0.  1.
         12    1    4    4    0    0 -0.73859034751E+01 -0.11469544338E+02 -0.74957749207E+02  0.76189016161E+02  0.00000000000E+00 0. -1.
         -5    1    5    5    0  502 -0.14093824142E+02  0.11578874888E+03  0.58709196976E+02  0.13066954525E+03  0.47000000000E+01 0.  1.
         13    1    6    6    0    0  0.61899653452E+01 -0.30389199000E+02  0.50088258740E+02  0.58912246184E+02  0.00000000000E+00 0. -1.
        -14    1    6    6    0    0 -0.19911012331E+02  0.37633634353E+02  0.10434623377E+03  0.11269816036E+03  0.00000000000E+00 0.  1.
</event>
<event>
12    1  0.8416569E-002  0.3229226E+03  0.7818608E-02  0.1074369E+00
         21   -1    0    0  501  502  0.00000000000E+00  0.00000000000E+00  0.21858201646E+04  0.21858201646E+04  0.00000000000E+00 0.  1.
         21   -1    0    0  502  503 -0.00000000000E+00 -0.00000000000E+00 -0.48591050236E+02  0.48591050236E+02  0.00000000000E+00 0. -1.
         -6    2    1    2    0  503 -0.26262337201E+03  0.75417517371E+02  0.12263290190E+04  0.12681332184E+04  0.17210508251E+03 0.  0.
        -24    2    3    3    0    0 -0.23067883240E+03  0.62990476874E+02  0.11954954577E+04  0.12217901127E+04  0.79882202191E+02 0.  0.
          6    2    1    2  501    0  0.26262337201E+03 -0.75417517371E+02  0.91090009539E+03  0.96627799641E+03  0.17115883010E+03 0.  0.
         24    2    5    5    0    0  0.50495724795E+02 -0.47750663820E+02  0.24845649029E+03  0.27013346154E+03  0.80071938646E+02 0.  0.
          5    1    5    5  501    0  0.21212764722E+03 -0.27666853551E+02  0.66244360509E+03  0.69614453487E+03  0.47000000000E+01 0. -1.
        -13    1    6    6    0    0  0.51435972213E+02 -0.62455268259E+01  0.19863594956E+03  0.20528250364E+03  0.00000000000E+00 0.  1.
         14    1    6    6    0    0 -0.94024741745E+00 -0.41505136994E+02  0.49820540734E+02  0.64850957904E+02  0.00000000000E+00 0. -1.
         -5    1    3    3    0  503 -0.31944539614E+02  0.12427040497E+02  0.30833561282E+02  0.46343105723E+02  0.47000000000E+01 0.  1.
         13    1    4    4    0    0 -0.38025204546E+02  0.31301279511E+02  0.14054526733E+03  0.14892500948E+03  0.00000000000E+00 0. -1.
        -14    1    4    4    0    0 -0.19265362785E+03  0.31689197363E+02  0.10549501904E+04  0.10728651032E+04  0.00000000000E+00 0.  1.
</event>
<event>
12    1  0.8416569E-002  0.1790865E+03  0.7818608E-02  0.1169024E+00
         21   -1    0    0  501  502  0.00000000000E+00  0.00000000000E+00  0.40558070425E+03  0.40558070425E+03  0.00000000000E+00 0. -1.
         21   -1    0    0  502  503 -0.00000000000E+00 -0.00000000000E+00 -0.87981243287E+02  0.87981243287E+02  0.00000000000E+00 0. -1.
         -6    2    1    2    0  503 -0.48891463276E+02  0.15905140601E+02  0.77135856482E+02  0.19373743715E+03  0.17012026781E+03 0.  0.
        -24    2    3    3    0    0 -0.23438319801E+01  0.59239000624E+02  0.58564796791E+01  0.98095683921E+02  0.77934024061E+02 0.  0.
          6    2    1    2  501    0  0.48891463276E+02 -0.15905140601E+02  0.24046360448E+03  0.29982451039E+03  0.17154778713E+03 0.  0.
         24    2    5    5    0    0 -0.34200177834E+02 -0.27482757771E+02  0.91815137905E+02  0.12907112489E+03  0.79400135984E+02 0.  0.
          5    1    5    5  501    0  0.83091641110E+02  0.11577617170E+02  0.14864846658E+03  0.17075338549E+03  0.47000000000E+01 0. -1.
        -11    1    6    6    0    0  0.72658023672E+01 -0.12713648351E+02 -0.10279786748E+02  0.17891415652E+02  0.00000000000E+00 0.  1.
         12    1    6    6    0    0 -0.41465980201E+02 -0.14769109419E+02  0.10209492465E+03  0.11117970924E+03  0.00000000000E+00 0. -1.
         -5    1    3    3    0  503 -0.46547631296E+02 -0.43333860024E+02  0.71279376803E+02  0.95641753232E+02  0.47000000000E+01 0.  1.
         13    1    4    4    0    0 -0.31189401190E+02  0.21077988992E+02  0.26457784474E+02  0.46011680320E+02  0.00000000000E+00 0. -1.
        -14    1    4    4    0    0  0.28845569210E+02  0.38161011632E+02 -0.20601304795E+02  0.52084003601E+02  0.00000000000E+00 0.  1.
</event>
<event>
12    1  0.8416569E-002  0.2137662E+03  0.7818608E-02  0.1138673E+00
         21   -1    0    0  501  502  0.00000000000E+00  0.00000000000E+00  0.99090012033E+03  0.99090012033E+03  0.00000000000E+00 0.  1.
         21   -1    0    0  502  503 -0.00000000000E+00 -0.00000000000E+00 -0.89092301081E+02  0.89092301081E+02  0.00000000000E+00 0.  1.
         -6    2    1    2    0  503  0.12238887537E+03 -0.30121741919E+02  0.75743250610E+02  0.22678850238E+03  0.17265465139E+03 0.  0.
        -24    2    3    3    0    0  0.11518390978E+03 -0.50383903777E+02  0.10983783960E+03  0.18620528257E+03  0.82475362475E+02 0.  0.
          6    2    1    2  501    0 -0.12238887537E+03  0.30121741919E+02  0.82606456864E+03  0.85320391904E+03  0.17230176941E+03 0.  0.
         24    2    5    5    0    0 -0.14891302876E+03  0.35431516935E+02  0.55579236271E+03  0.58154074574E+03  0.76511476169E+02 0.  0.
          5    1    5    5  501    0  0.26524153389E+02 -0.53097750154E+01  0.27027220594E+03  0.27166317330E+03  0.47000000000E+01 0. -1.
        -13    1    6    6    0    0 -0.98799861620E+02 -0.10224570519E+02  0.26642267832E+03  0.28433606529E+03  0.00000000000E+00 0.  1.
         14    1    6    6    0    0 -0.50113167142E+02  0.45656087454E+02  0.28936968438E+03  0.29720468045E+03  0.00000000000E+00 0. -1.
         -5    1    3    3    0  503  0.72049655887E+01  0.20262161857E+02 -0.34094588985E+02  0.40583219813E+02  0.47000000000E+01 0.  1.
         11    1    4    4    0    0 -0.11875712935E+02 -0.10178647212E+02  0.43353177278E+01  0.16230600623E+02  0.00000000000E+00 0. -1.
        -12    1    4    4    0    0  0.12705962272E+03 -0.40205256565E+02  0.10550252187E+03  0.16997468194E+03  0.00000000000E+00 0.  1.
</event>
<event>
12    1  0.8416569E-002  0.3265735E+03  0.7818608E-02  0.1072765E+00
         21   -1    0    0  503  502  0.00000000000E+00  0.00000000000E+00  0.72384946874E+03  0.72384946874E+03  0.00000000000E+00 0. -1.
         21   -1    0    0  501  503 -0.00000000000E+00 -0.00000000000E+00 -0.15276120837E+03  0.15276120837E+03  0.00000000000E+00 0.  1.
          6    2    1    2  501    0  0.56628934939E+02  0.27188662277E+03  0.20028082781E+03  0.38309615142E+03  0.17181699371E+03 0.  0.
         24    2    3    3    0    0  0.35323914089E+02  0.50039907942E+02  0.72818398014E+02  0.12631096921E+03  0.83067265266E+02 0.  0.
         -6    2    1    2    0  502 -0.56628934939E+02 -0.27188662277E+03  0.37080743256E+03  0.49351452569E+03  0.17008604619E+03 0.  0.
        -24    2    5    5    0    0 -0.75559712770E+02 -0.74832629596E+02  0.16596225503E+03  0.20860701906E+03  0.68295136434E+02 0.  0.
          5    1    3    3  501    0  0.21305020850E+02  0.22184671483E+03  0.12746242980E+03  0.25678518221E+03  0.47000000000E+01 0. -1.
        -11    1    4    4    0    0 -0.13051440627E+02  0.35544867728E+02  0.20805662015E+00  0.37865829078E+02  0.00000000000E+00 0.  1.
         12    1    4    4    0    0  0.48375354717E+02  0.14495040215E+02  0.72610341394E+02  0.88445140127E+02  0.00000000000E+00 0. -1.
         -5    1    5    5    0  502  0.18930777831E+02 -0.19705399318E+03  0.20484517753E+03  0.28490750663E+03  0.47000000000E+01 0.  1.
         13    1    6    6    0    0 -0.96136264964E+01 -0.41136565216E+02  0.10327511727E+03  0.11158130963E+03  0.00000000000E+00 0. -1.
        -14    1    6    6    0    0 -0.65946086274E+02 -0.33696064380E+02  0.62687137762E+02  0.97025709429E+02  0.00000000000E+00 0.  1.
</event>
<event>
12    1  0.8416569E-002  0.2425469E+03  0.7818608E-02  0.1118122E+00
         21   -1    0    0  503  502  0.00000000000E+00  0.00000000000E+00  0.24528404795E+03  0.24528404795E+03  0.00000000000E+00 0.  1.
         21   -1    0    0  501  503 -0.00000000000E+00 -0.00000000000E+00 -0.23979067335E+03  0.23979067335E+03  0.00000000000E+00 0. -1.
          6    2    1    2  501    0  0.32185152620E+02  0.16797630138E+03 -0.27747875746E+00  0.24254709825E+03  0.17197992906E+03 0.  0.
         24    2    3    3    0    0  0.27833458993E+02  0.19601877291E+03 -0.29079200600E+00  0.21378240420E+03  0.80652160623E+02 0.  0.
         -6    2    1    2    0  502 -0.32185152620E+02 -0.16797630138E+03  0.57708533595E+01  0.24252762305E+03  0.17185582132E+03 0.  0.
        -24    2    5    5    0    0  0.15602357415E+02 -0.14310282275E+03 -0.42155601011E+02  0.17026856768E+03  0.80575672559E+02 0.  0.
          5    1    3    3  501    0  0.43516936273E+01 -0.28042471525E+02  0.13313248544E-01  0.28764694052E+02  0.47000000000E+01 0. -1.
        -11    1    4    4    0    0  0.21917641627E+02  0.15684665314E+03  0.33309878525E+02  0.16183573036E+03  0.00000000000E+00 0.  1.
         12    1    4    4    0    0  0.59158173654E+01  0.39172119770E+02 -0.33600670531E+02  0.51946673835E+02  0.00000000000E+00 0. -1.
         -5    1    5    5    0  502 -0.47787510035E+02 -0.24873478633E+02  0.47926454370E+02  0.72259055371E+02  0.47000000000E+01 0.  1.
         11    1    6    6    0    0 -0.68313374225E+01 -0.10536804821E+03  0.51716713507E+01  0.10571584053E+03  0.00000000000E+00 0. -1.
        -12    1    6    6    0    0  0.22433694838E+02 -0.37734774540E+02 -0.47327272361E+02  0.64552727152E+02  0.00000000000E+00 0.  1.
</event>
<event>
12    1  0.8416569E-002  0.3268430E+03  0.7818608E-02  0.1072595E+00
         21   -1    0    0  501  502  0.00000000000E+00  0.00000000000E+00  0.30895942699E+03  0.30895942699E+03  0.00000000000E+00 0.  1.
         21   -1    0    0  502  503 -0.00000000000E+00 -0.00000000000E+00 -0.37907069674E+03  0.37907069674E+03  0.00000000000E+00 0.  1.
         -6    2    1    2    0  503  0.22017582894E+03 -0.16932458956E+03  0.67659023575E+02  0.33377252766E+03  0.17227345840E+03 0.  0.
        -24    2    3    3    0    0  0.71452873382E+02 -0.46914424285E+02  0.78513213286E+02  0.14078892860E+03  0.79691413804E+02 0.  0.
          6    2    1    2  501    0 -0.22017582894E+03  0.16932458956E+03 -0.13777029332E+03  0.35425759607E+03  0.17137554777E+03 0.  0.
         24    2    5    5    0    0 -0.14222454663E+03  0.10484963797E+03 -0.14070094559E+02  0.19439124261E+03  0.79804256746E+02 0.  0.
          5    1    5    5  501    0 -0.77951282311E+02  0.64474951590E+02 -0.12370019876E+03  0.15986635347E+03  0.47000000000E+01 0. -1.
        -13    1    6    6    0    0 -0.62705745682E+02  0.13048985437E+01  0.26150626846E+01  0.62773815039E+02  0.00000000000E+00 0.  1.
         14    1    6    6    0    0 -0.79518800947E+02  0.10354473943E+03 -0.16685157244E+02  0.13161742757E+03  0.00000000000E+00 0. -1.
         -5    1    3    3    0  503  0.14872295556E+03 -0.12241016528E+03 -0.10854189711E+02  0.19298359906E+03  0.47000000000E+01 0.  1.
         11    1    4    4    0    0  0.20395679133E+02 -0.59111322482E+02  0.30181619699E+02  0.69433870268E+02  0.00000000000E+00 0. -1.
        -12    1    4    4    0    0  0.51057194250E+02  0.12196898197E+02  0.48331593587E+02  0.71355058327E+02  0.00000000000E+00 0.  1.
</event>
<event>
12    1  0.8416569E-002  0.1771116E+03  0.7818608E-02  0.1170684E+00
         21   -1    0    0  503  502  0.00000000000E+00  0.00000000000E+00  0.40450340060E+02  0.40450340060E+02  0.00000000000E+00 0. -1.
         21   -1    0    0  501  503 -0.00000000000E+00 -0.00000000000E+00 -0.15658719541E+04  0.15658719541E+04  0.00000000000E+00 0. -1.
          6    2    1    2  501    0  0.39608471237E+02  0.83979838408E+01 -0.13339291388E+04  0.13456357171E+04  0.17242151506E+03 0.  0.
         24    2    3    3    0    0  0.88409849244E+01 -0.49874265693E+02 -0.48322836386E+03  0.49237362862E+03  0.79727869185E+02 0.  0.
         -6    2    1    2    0  502 -0.39608471237E+02 -0.83979838408E+01 -0.19149247530E+03  0.26068657705E+03  0.17218817100E+03 0.  0.
        -24    2    5    5    0    0 -0.11687742460E+02 -0.30680426869E+02 -0.23995292013E+02  0.89358030765E+02  0.79568786008E+02 0.  0.
          5    1    3    3  501    0  0.30767486313E+02  0.58272249534E+02 -0.85070077491E+03  0.85326208852E+03  0.47000000000E+01 0. -1.
        -11    1    4    4    0    0  0.29457188767E+02 -0.60170366968E+02 -0.41464663389E+03  0.42002384460E+03  0.00000000000E+00 0.  1.
         12    1    4    4    0    0 -0.20616203842E+02  0.10296101276E+02 -0.68581729967E+02  0.72349784019E+02  0.00000000000E+00 0. -1.
         -5    1    5    5    0  502 -0.27920728778E+02  0.22282443029E+02 -0.16749718329E+03  0.17132854629E+03  0.47000000000E+01 0.  1.
         11    1    6    6    0    0 -0.36752912817E+02 -0.71091599349E+01 -0.36944317717E+02  0.52594670519E+02  0.00000000000E+00 0. -1.
        -12    1    6    6    0    0  0.25065170357E+02 -0.23571266934E+02  0.12949025704E+02  0.36763360246E+02  0.00000000000E+00 0.  1.
</event>
<event>
12    1  0.8416569E-002  0.1843501E+03  0.7818608E-02  0.1163811E+00
         21   -1    0    0  503  502  0.00000000000E+00  0.00000000000E+00  0.13110508854E+04  0.13110508854E+04  0.00000000000E+00 0. -1.
         21   -1    0    0  501  503 -0.00000000000E+00 -0.00000000000E+00 -0.25830640630E+02  0.25830640630E+02  0.00000000000E+00 0. -1.
          6    2    1    2  501    0 -0.66092936426E+02 -0.98933914983E+01  0.64229102765E+03  0.66804451287E+03  0.17111268668E+03 0.  0.
         24    2    3    3    0    0  0.21472383939E+02 -0.34833184086E+02  0.37508807771E+03  0.38571636153E+03  0.80072664039E+02 0.  0.
         -6    2    1    2    0  502  0.66092936426E+02  0.98933914983E+01  0.64292921708E+03  0.66883701311E+03  0.17181040858E+03 0.  0.
        -24    2    5    5    0    0  0.10376750628E+03  0.13010374560E+02  0.35997222266E+03  0.38332722433E+03  0.80142339772E+02 0.  0.
          5    1    3    3  501    0 -0.87565320365E+02  0.24939792588E+02  0.26720294994E+03  0.28232815135E+03  0.47000000000E+01 0. -1.
        -13    1    4    4    0    0 -0.38573098143E+01  0.22953801430E+02  0.59655802463E+02  0.64035697908E+02  0.00000000000E+00 0.  1.
         14    1    4    4    0    0  0.25329693754E+02 -0.57786985516E+02  0.31543227524E+03  0.32168066362E+03  0.00000000000E+00 0. -1.
         -5    1    5    5    0  502 -0.37674569857E+02 -0.31169830617E+01  0.28295699442E+03  0.28550978878E+03  0.47000000000E+01 0.  1.
         11    1    6    6    0    0  0.64077404710E+02 -0.25452689460E+02  0.13404171165E+03  0.15073464651E+03  0.00000000000E+00 0. -1.
        -12    1    6    6    0    0  0.39690101573E+02  0.38463064020E+02  0.22593051101E+03  0.23259257783E+03  0.00000000000E+00 0.  1.
</event>
<event>
12    1  0.8416569E-002  0.1793002E+03  0.7818608E-02  0.1168937E+00
         21   -1    0    0  501  502  0.00000000000E+00  0.00000000000E+00  0.17540842323E+03  0.17540842323E+03  0.00000000000E+00 0.  1.
         21   -1    0    0  502  503 -0.00000000000E+00 -0.00000000000E+00 -0.21991960140E+03  0.21991960140E+03  0.00000000000E+00 0.  1.
         -6    2    1    2    0  503  0.36774750642E+02 -0.35261734524E+02  0.60392428891E+02  0.18919779333E+03  0.17190924154E+03 0.  0.
        -24    2    3    3    0    0  0.32657929596E+02  0.45225165321E+02  0.23230783866E+02  0.10032616049E+03  0.80086286072E+02 0.  0.
          6    2    1    2  501    0 -0.36774750642E+02  0.35261734524E+02 -0.10490360706E+03  0.20613023131E+03  0.16996803605E+03 0.  0.
         24    2    5    5    0    0 -0.26712436430E+02  0.49054583848E+02 -0.13768397229E+03  0.16887254480E+03  0.80256798500E+02 0.  0.
          5    1    5    5  501    0 -0.10062314212E+02 -0.13792849324E+02  0.32780365225E+02  0.37257686510E+02  0.47000000000E+01 0. -1.
        -13    1    6    6    0    0 -0.23143832936E+02  0.59508587678E+02 -0.51631761781E+02  0.82114236494E+02  0.00000000000E+00 0.  1.
         14    1    6    6    0    0 -0.35686034943E+01 -0.10454003830E+02 -0.86052210504E+02  0.86758308303E+02  0.00000000000E+00 0. -1.
         -5    1    3    3    0  503  0.41168210468E+01 -0.80486899844E+02  0.37161645025E+02  0.88871632837E+02  0.47000000000E+01 0.  1.
         13    1    4    4    0    0 -0.64038017147E+01  0.48008067276E+02  0.34629993459E+02  0.59540067576E+02  0.00000000000E+00 0. -1.
        -14    1    4    4    0    0  0.39061731310E+02 -0.27829019549E+01 -0.11399209593E+02  0.40786092919E+02  0.00000000000E+00 0.  1.
</event>
<event>
12    1  0.8416569E-002  0.2109490E+03  0.7818608E-02  0.1143384E+00
         21   -1    0    0  501  502  0.00000000000E+00  0.00000000000E+00  0.21121582902E+03  0.21121582902E+03  0.00000000000E+00 0.  1.
         21   -1    0    0  502  503 -0.00000000000E+00 -0.00000000000E+00 -0.28961990035E+03  0.28961990035E+03  0.00000000000E+00 0.  1.
         -6    2    1    2    0  503  0.25257864129E+00 -0.95849273532E+02 -0.17897205296E+03  0.26714058767E+03  0.17362589325E+03 0.  0.
        -24    2    3    3    0    0 -0.36901083092E+02 -0.27551474654E+02 -0.16035775969E+03  0.18705584614E+03  0.84584305831E+02 0.  0.
          6    2    1    2  501    0 -0.25257864129E+00  0.95849273532E+02  0.10056798163E+03  0.23369514169E+03  0.18791581437E+03 0.  0.
         24    2    5    5    0    0  0.21446846109E+02 -0.15437219598E+02  0.19346935170E+01  0.83341677779E+02  0.79017828742E+02 0.  0.
          5    1    5    5  501    0 -0.21699424750E+02  0.11128649313E+03  0.98633288112E+02  0.15035346392E+03  0.47000000000E+01 0. -1.
        -11    1    6    6    0    0 -0.24161681603E+02 -0.78022805243E+01 -0.19845683028E+02  0.32225976697E+02  0.00000000000E+00 0.  1.
         12    1    6    6    0    0  0.45608527711E+02 -0.76349390733E+01  0.21780376545E+02  0.51115701082E+02  0.00000000000E+00 0. -1.
         -5    1    3    3    0  503  0.37153661734E+02 -0.68297798878E+02 -0.18614293269E+02  0.80084741529E+02  0.47000000000E+01 0.  1.
         13    1    4    4    0    0 -0.17018174174E+02  0.29217345809E+02 -0.78521240019E+02  0.85491851556E+02  0.00000000000E+00 0. -1.
        -14    1    4    4    0    0 -0.19882908918E+02 -0.56768820463E+02 -0.81836519674E+02  0.10156399459E+03  0.00000000000E+00 0.  1.
</event>
<event>
12    1  0.8416569E-002  0.1746140E+03  0.7818608E-02  0.1174131E+00
         21   -1    0    0  503  502  0.00000000000E+00  0.00000000000E+00  0.55396789302E+03  0.55396789302E+03  0.00000000000E+00 0.  1.
         21   -1    0    0  501  503 -0.00000000000E+00 -0.00000000000E+00 -0.55813323326E+02  0.55813323326E+02  0.00000000000E+00 0.  1.
          6    2    1    2  501    0  0.86332800689E+00 -0.30154443299E+02  0.30979958580E+03  0.35562034384E+03  0.17198840022E+03 0.  0.
         24    2    3    3    0    0  0.59006470653E+02  0.14459626853E+02  0.20318343359E+03  0.22615940687E+03  0.78573056701E+02 0.  0.
         -6    2    1    2    0  502 -0.86332800689E+00  0.30154443299E+02  0.18835498390E+03  0.25416087251E+03  0.16795866565E+03 0.  0.
        -24    2    5    5    0    0 -0.62007891510E+02  0.22912738091E+02  0.96482335731E+02  0.14346410913E+03  0.83085120958E+02 0.  0.
          5    1    3    3  501    0 -0.58143142646E+02 -0.44614070152E+02  0.10661615220E+03  0.12946093698E+03  0.47000000000E+01 0. -1.
        -11    1    4    4    0    0 -0.19280293933E+02  0.65566998823E+01  0.48860782138E+02  0.52934828597E+02  0.00000000000E+00 0.  1.
         12    1    4    4    0    0  0.78286764586E+02  0.79029269708E+01  0.15432265146E+03  0.17322457827E+03  0.00000000000E+00 0. -1.
         -5    1    5    5    0  502  0.61144563503E+02  0.72417052072E+01  0.91872648170E+02  0.11069676338E+03  0.47000000000E+01 0.  1.
         11    1    6    6    0    0 -0.37375440725E+02 -0.11268120550E+02  0.93388225715E+02  0.10121884613E+03  0.00000000000E+00 0. -1.
        -12    1    6    6    0    0 -0.24632450785E+02  0.34180858641E+02  0.30941100158E+01  0.42245263000E+02  0.00000000000E+00 0.  1.
</event>
<event>
12    1  0.8416569E-002  0.1965005E+03  0.7818608E-02  0.1152999E+00
         21   -1    0    0  503  502  0.00000000000E+00  0.00000000000E+00  0.42889139011E+03  0.42889139011E+03  0.00000000000E+00 0. -1.
         21   -1    0    0  501  503 -0.00000000000E+00 -0.00000000000E+00 -0.20497722044E+03  0.20497722044E+03  0.00000000000E+00 0.  1.
          6    2    1    2  501    0 -0.52903956893E+01 -0.94677737395E+02 -0.12613388367E+03  0.23243853692E+03  0.17066357137E+03 0.  0.
         24    2    3    3    0    0  0.45909428113E+02 -0.84939804439E+02 -0.12988367032E+03  0.17997521454E+03  0.78732865223E+02 0.  0.
         -6    2    1    2    0  502  0.52903956893E+01  0.94677737395E+02  0.35004805334E+03  0.40143007363E+03  0.17210636862E+03 0.  0.
        -24    2    5    5    0    0  0.50518983745E+02  0.35942946768E+02  0.27956690595E+03  0.29903337961E+03  0.86135033992E+02 0.  0.
          5    1    3    3  501    0 -0.51199823802E+02 -0.97379329553E+01  0.37497866454E+01  0.52463322383E+02  0.47000000000E+01 0. -1.
        -11    1    4    4    0    0  0.11495224537E+02  0.79064403932E+01 -0.52451005916E+02  0.54274856135E+02  0.00000000000E+00 0.  1.
         12    1    4    4    0    0  0.34414203576E+02 -0.92846244832E+02 -0.77432664401E+02  0.12570035841E+03  0.00000000000E+00 0. -1.
         -5    1    5    5    0  502 -0.45228588056E+02  0.58734790627E+02  0.70481147399E+02  0.10239669402E+03  0.47000000000E+01 0.  1.
         11    1    6    6    0    0  0.32592769924E+02  0.55542998566E+02  0.11053215644E+03  0.12792447361E+03  0.00000000000E+00 0. -1.
        -12    1    6    6    0    0  0.17926213821E+02 -0.19600051798E+02  0.16903474951E+03  0.17110890600E+03  0.00000000000E+00 0.  1.
</event>
<event>
12    1  0.8416569E-002  0.2446724E+03  0.7818608E-02  0.1116766E+00
         21   -1    0    0  503  502  0.00000000000E+00  0.00000000000E+00  0.17392182785E+03  0.17392182785E+03  0.00000000000E+00 0. -1.
         21   -1    0    0  501  503 -0.00000000000E+00 -0.00000000000E+00 -0.45215313626E+03  0.45215313626E+03  0.00000000000E+00 0.  1.
          6    2    1    2  501    0 -0.10681295270E+03  0.13709327563E+03 -0.29242582063E+03  0.38128397085E+03  0.17222378688E+03 0.  0.
         24    2    3    3    0    0 -0.28409838432E+02  0.14100854246E+03 -0.18815923137E+03  0.25068539016E+03  0.82150718335E+02 0.  0.
         -6    2    1    2    0  502  0.10681295270E+03 -0.13709327563E+03  0.14194512210E+02  0.24479099327E+03  0.17180679008E+03 0.  0.
        -24    2    5    5    0    0  0.12846346978E+02 -0.10384268567E+03 -0.31684896475E+02  0.13496233186E+03  0.79136378233E+02 0.  0.
          5    1    3    3  501    0 -0.78403114270E+02 -0.39152668320E+01 -0.10426658926E+03  0.13059858069E+03  0.47000000000E+01 0. -1.
        -13    1    4    4    0    0  0.40311896890E+01  0.96135147617E+02 -0.16427958341E+03  0.19038381922E+03  0.00000000000E+00 0.  1.
         14    1    4    4    0    0 -0.32441028121E+02  0.44873394847E+02 -0.23879647961E+02  0.60301570936E+02  0.00000000000E+00 0. -1.
         -5    1    5    5    0  502  0.93966605724E+02 -0.33250589965E+02  0.45879408685E+02  0.10982866140E+03  0.47000000000E+01 0.  1.
         13    1    6    6    0    0 -0.68742499291E+01 -0.27951571519E+02  0.25065912147E+02  0.38168647006E+02  0.00000000000E+00 0. -1.
        -14    1    6    6    0    0  0.19720596907E+02 -0.75891114148E+02 -0.56750808622E+02  0.96793684857E+02  0.00000000000E+00 0.  1.
</event>
<event>
12    1  0.8416569E-002  0.1915971E+03  0.7818608E-02  0.1157949E+00
         21   -1    0    0  503  502  0.00000000000E+00  0.00000000000E+00  0.73850740446E+02  0.73850740446E+02  0.00000000000E+00 0. -1.
         21   -1    0    0  501  503 -0.00000000000E+00 -0.00000000000E+00 -0.14419336317E+04  0.14419336317E+04  0.00000000000E+00 0.  1.
          6    2    1    2  501    0  0.81770539370E+02 -0.17814644619E+02 -0.12984589028E+04  0.13119291278E+04  0.16780563641E+03 0.  0.
         24    2    3    3    0    0  0.89166802283E+02  0.41136965585E+02 -0.94605990747E+03  0.95452579974E+03  0.80294366353E+02 0.  0.
         -6    2    1    2    0  502 -0.81770539370E+02  0.17814644619E+02 -0.69623988463E+02  0.20385524429E+03  0.17235335269E+03 0.  0.
        -24    2    5    5    0    0 -0.31463363768E+02  0.18745653201E+02 -0.11262914991E+03  0.13749853698E+03  0.69851123743E+02 0.  0.
          5    1    3    3  501    0 -0.73962629125E+01 -0.58951610204E+02 -0.35239899528E+03  0.35740332809E+03  0.47000000000E+01 0. -1.
        -11    1    4    4    0    0  0.15903834490E+02  0.49328365606E+02 -0.32513358540E+03  0.32923861857E+03  0.00000000000E+00 0.  1.
         12    1    4    4    0    0  0.73262967793E+02 -0.81914000216E+01 -0.62092632207E+03  0.62528718117E+03  0.00000000000E+00 0. -1.
         -5    1    5    5    0  502 -0.50307175602E+02 -0.93100858172E+00  0.43005161446E+02  0.66356707310E+02  0.47000000000E+01 0.  1.
         13    1    6    6    0    0 -0.32327017105E+02  0.22277452966E+02 -0.18676664668E+02  0.43475725971E+02  0.00000000000E+00 0. -1.
        -14    1    6    6    0    0  0.86365333652E+00 -0.35317997649E+01 -0.93952485242E+02  0.94022811007E+02  0.00000000000E+00 0.  1.
</event>
<event>
12    1  0.8416569E-002  0.1722230E+03  0.7818608E-02  0.1177093E+00
         21   -1    0    0  501  502  0.00000000000E+00  0.00000000000E+00  0.46751200750E+03  0.46751200750E+03  0.00000000000E+00 0.  1.
         21   -1    0    0  502  503 -0.00000000000E+00 -0.00000000000E+00 -0.91502733375E+02  0.91502733375E+02  0.00000000000E+00 0.  1.
         -6    2    1    2    0  503 -0.25763474037E+01 -0.15702036255E+02  0.29596283160E+02  0.17474753187E+03  0.17148635050E+03 0.  0.
        -24    2    3    3    0    0  0.65335736895E+01 -0.61161501408E+02  0.62438679241E+02  0.11773642229E+03  0.78612083227E+02 0.  0.
          6    2    1    2  501    0  0.25763474037E+01  0.15702036255E+02  0.34641299097E+03  0.38426720901E+03  0.16554798731E+03 0.  0.
         24    2    5    5    0    0 -0.11184490400E+01 -0.39822519307E+01  0.35342040771E+03  0.36253436264E+03  0.80672611520E+02 0.  0.
          5    1    5    5  501    0  0.36947964437E+01  0.19684288185E+02 -0.70074167420E+01  0.21732846374E+02  0.47000000000E+01 0. -1.
        -13    1    6    6    0    0 -0.22656357607E+02 -0.30224611830E+02  0.26743739126E+03  0.27009182872E+03  0.00000000000E+00 0.  1.
         14    1    6    6    0    0  0.21537908567E+02  0.26242359899E+02  0.85983016450E+02  0.92442533914E+02  0.00000000000E+00 0. -1.
         -5    1    3    3    0  503 -0.91099210932E+01  0.45459465153E+02 -0.32842396081E+02  0.57011109573E+02  0.47000000000E+01 0.  1.
         13    1    4    4    0    0  0.12173486992E+02 -0.23555102122E+02  0.73497560845E+02  0.78134039136E+02  0.00000000000E+00 0. -1.
        -14    1    4    4    0    0 -0.56399133020E+01 -0.37606399286E+02 -0.11058881604E+02  0.39602383156E+02  0.00000000000E+00 0.  1.
</event>
<event>
12    1  0.8416569E-002  0.2953919E+03  0.7818608E-02  0.1087648E+00
         21   -1    0    0  503  502  0.00000000000E+00  0.00000000000E+00  0.40148604251E+03  0.40148604251E+03  0.00000000000E+00 0. -1.
         21   -1    0    0  501  503 -0.00000000000E+00 -0.00000000000E+00 -0.21890604141E+03  0.21890604141E+03  0.00000000000E+00 0. -1.
          6    2    1    2  501    0 -0.94158886989E+02  0.21988359446E+03  0.12111406063E+03  0.31867298632E+03  0.17224739596E+03 0.  0.
         24    2    3    3    0    0 -0.12857418154E+03  0.16297660865E+03  0.94122243298E+02  0.24674617814E+03  0.94509177408E+02 0.  0.
         -6    2    1    2    0  502  0.94158886989E+02 -0.21988359446E+03  0.61465940471E+02  0.30171909760E+03  0.17332530372E+03 0.  0.
        -24    2    5    5    0    0  0.77039262465E+02 -0.86844279964E+02  0.86205710464E+02  0.16523947654E+03  0.79973015252E+02 0.  0.
          5    1    3    3  501    0  0.34415294551E+02  0.56906985804E+02  0.26991817327E+02  0.71926808180E+02  0.47000000000E+01 0. -1.
        -13    1    4    4    0    0 -0.42779805517E+02  0.41072479920E+02 -0.15986264040E+02  0.61421665597E+02  0.00000000000E+00 0.  1.
         14    1    4    4    0    0 -0.85794376024E+02  0.12190412873E+03  0.11010850734E+03  0.18532451254E+03  0.00000000000E+00 0. -1.
         -5    1    5    5    0  502  0.17119624524E+02 -0.13303931449E+03 -0.24739769993E+02  0.13647962106E+03  0.47000000000E+01 0.  1.
         13    1    6    6    0    0  0.24383900640E+01 -0.52077375829E+02  0.58586764474E+02  0.78424535643E+02  0.00000000000E+00 0. -1.
        -14    1    6    6    0    0  0.74600872401E+02 -0.34766904135E+02  0.27618945990E+02  0.86814940901E+02  0.00000000000E+00 0.  1.
</event>
<event>
12    1  0.8416569E-002  0.2591405E+03  0.7818608E-02  0.1107928E+00
         21   -1    0    0  503  502  0.00000000000E+00  0.00000000000E+00  0.61824632515E+02  0.61824632515E+02  0.00000000000E+00 0. -1.
         21   -1    0    0  501  503 -0.00000000000E+00 -0.00000000000E+00 -0.11241970974E+04  0.11241970974E+04  0.00000000000E+00 0.  1.
          6    2    1    2  501    0 -0.19083671667E+03  0.88754730967E+01 -0.41376545537E+03  0.48821679126E+03  0.17508956781E+03 0.  0.
         24    2    3    3    0    0 -0.15380369055E+03  0.66224997511E+02 -0.34604372167E+03  0.39194251541E+03  0.76363293266E+02 0.  0.
         -6    2    1    2    0  502  0.19083671667E+03 -0.88754730967E+01 -0.64860700949E+03  0.69780493863E+03  0.17246232392E+03 0.  0.
        -24    2    5    5    0    0  0.12695292295E+03  0.29916582953E+02 -0.25887791200E+03  0.30094624572E+03  0.80862988503E+02 0.  0.
          5    1    3    3  501    0 -0.37033026120E+02 -0.57349524414E+02 -0.67721733696E+02  0.96274275842E+02  0.47000000000E+01 0. -1.
        -13    1    4    4    0    0 -0.72363278227E+02  0.62042741825E+02 -0.23950946536E+03  0.25778000281E+03  0.00000000000E+00 0.  1.
         14    1    4    4    0    0 -0.81440412318E+02  0.41822556856E+01 -0.10653425631E+03  0.13416251261E+03  0.00000000000E+00 0. -1.
         -5    1    5    5    0  502  0.63883793719E+02 -0.38792056050E+02 -0.38972909749E+03  0.39685869291E+03  0.47000000000E+01 0.  1.
         13    1    6    6    0    0  0.23303013272E+02 -0.26413061061E+02 -0.67315315723E+02  0.75973889943E+02  0.00000000000E+00 0. -1.
        -14    1    6    6    0    0  0.10364990967E+03  0.56329644014E+02 -0.19156259628E+03  0.22497235578E+03  0.00000000000E+00 0.  1.
</event>
<event>
12    1  0.8416569E-002  0.2417069E+03  0.7818608E-02  0.1118746E+00
         21   -1    0    0  501  502  0.00000000000E+00  0.00000000000E+00  0.11483919852E+03  0.11483919852E+03  0.00000000000E+00 0. -1.
         21   -1    0    0  502  503 -0.00000000000E+00 -0.00000000000E+00 -0.53107947525E+03  0.53107947525E+03  0.00000000000E+00 0. -1.
         -6    2    1    2    0  503  0.13974950403E+03 -0.97087559279E+02 -0.27574631125E+03  0.36634617328E+03  0.17093148472E+03 0.  0.
        -24    2    3    3    0    0  0.39784736239E+02 -0.56086289174E+02 -0.22686288378E+03  0.24766281965E+03  0.71705000714E+02 0.  0.
          6    2    1    2  501    0 -0.13974950403E+03  0.97087559279E+02 -0.14049396548E+03  0.27957250049E+03  0.17165753887E+03 0.  0.
         24    2    5    5    0    0 -0.94089661695E+02 -0.11243940968E+02 -0.69849984647E+02  0.14233840423E+03  0.80011938591E+02 0.  0.
          5    1    5    5  501    0 -0.45659842330E+02  0.10833150025E+03 -0.70643980834E+02  0.13723409626E+03  0.47000000000E+01 0. -1.
        -13    1    6    6    0    0  0.52830498145E+01  0.98341731929E+01 -0.32069128782E+02  0.33956598749E+02  0.00000000000E+00 0.  1.
         14    1    6    6    0    0 -0.99372711510E+02 -0.21078114161E+02 -0.37780855864E+02  0.10838180548E+03  0.00000000000E+00 0. -1.
         -5    1    3    3    0  503  0.99964767786E+02 -0.41001270105E+02 -0.48883427462E+02  0.11868335363E+03  0.47000000000E+01 0.  1.
         13    1    4    4    0    0  0.45163306578E+02 -0.10001564138E+02 -0.68598885458E+02  0.82737915325E+02  0.00000000000E+00 0. -1.
        -14    1    4    4    0    0 -0.53785703389E+01 -0.46084725036E+02 -0.15826399833E+03  0.16492490433E+03  0.00000000000E+00 0.  1.
</event>
<event>
12    1  0.8416569E-002  0.2195048E+03  0.7818608E-02  0.1137687E+00
         21   -1    0    0  503  502  0.00000000000E+00  0.00000000000E+00  0.92691955227E+03  0.92691955227E+03  0.00000000000E+00 0. -1.
         21   -1    0    0  501  503 -0.00000000000E+00 -0.00000000000E+00 -0.67068039050E+02  0.67068039050E+02  0.00000000000E+00 0. -1.
          6    2    1    2  501    0  0.46710333248E+02  0.95564227267E+02  0.70823276511E+03  0.74146882393E+03  0.19201039172E+03 0.  0.
         24    2    3    3    0    0  0.34752613448E+02 -0.27209029995E+02  0.21793838498E+03  0.23587320593E+03  0.78682616713E+02 0.  0.
         -6    2    1    2    0  502 -0.46710333248E+02 -0.95564227267E+02  0.15161874811E+03  0.25251876739E+03  0.17164820517E+03 0.  0.
        -24    2    5    5    0    0  0.34537083772E+02 -0.24413174508E+02  0.48370062595E+02  0.10303299501E+03  0.80543912623E+02 0.  0.
          5    1    3    3  501    0  0.11957719800E+02  0.12277325726E+03  0.49029438013E+03  0.50559561801E+03  0.47000000000E+01 0. -1.
        -13    1    4    4    0    0  0.15713135739E+02 -0.97233650745E+01  0.20696791958E+03  0.20779116006E+03  0.00000000000E+00 0.  1.
         14    1    4    4    0    0  0.19039477709E+02 -0.17485664921E+02  0.10970465399E+02  0.28082045870E+02  0.00000000000E+00 0. -1.
         -5    1    5    5    0  502 -0.81247417020E+02 -0.71151052759E+02  0.10324868552E+03  0.14948577237E+03  0.47000000000E+01 0.  1.
         11    1    6    6    0    0 -0.18431219497E+01 -0.47418602280E+02  0.30603117366E+02  0.56466554112E+02  0.00000000000E+00 0. -1.
        -12    1    6    6    0    0  0.36380205721E+02  0.23005427772E+02  0.17766945229E+02  0.46566440900E+02  0.00000000000E+00 0.  1.
</event>
<event>
12    1  0.8416569E-002  0.1755897E+03  0.7818608E-02  0.1172232E+00
         21   -1    0    0  501  502  0.00000000000E+00  0.00000000000E+00  0.48946356472E+03  0.48946356472E+03  0.00000000000E+00 0.  1.
         21   -1    0    0  502  503 -0.00000000000E+00 -0.00000000000E+00 -0.16446109328E+03  0.16446109328E+03  0.00000000000E+00 0.  1.
         -6    2    1    2    0  503  0.10237511268E+02 -0.35302532578E+02 -0.94423238136E+02  0.19936768812E+03  0.17169930613E+03 0.  0.
        -24    2    3    3    0    0  0.64642843884E+01 -0.38597882419E-01  0.17677539145E+02  0.81696720598E+02  0.79498869827E+02 0.  0.
          6    2    1    2  501    0 -0.10237511268E+02  0.35302532578E+02  0.41942570958E+03  0.45455696987E+03  0.17132728201E+03 0.  0.
         24    2    5    5    0    0 -0.34304492595E+02  0.61704182172E+02  0.16167284538E+03  0.19429768436E+03  0.81420371566E+02 0.  0.
          5    1    5    5  501    0  0.24066981327E+02 -0.26401649594E+02  0.25775286420E+03  0.26025928551E+03  0.47000000000E+01 0. -1.
        -11    1    6    6    0    0  0.96819062829E+01  0.28732540711E+02  0.12400615435E+03  0.12765901661E+03  0.00000000000E+00 0.  1.
         12    1    6    6    0    0 -0.43986398878E+02  0.32971641461E+02  0.37666691028E+02  0.66638667753E+02  0.00000000000E+00 0. -1.
         -5    1    3    3    0  503  0.37732268797E+01 -0.35263934695E+02 -0.11210077728E+03  0.11767096753E+03  0.47000000000E+01 0.  1.
         13    1    4    4    0    0  0.40318309814E+02 -0.99759425558E+01  0.20469072601E+02  0.46304086961E+02  0.00000000000E+00 0. -1.
        -14    1    4    4    0    0 -0.33854025426E+02  0.99373446733E+01 -0.27915334562E+01  0.35392633637E+02  0.00000000000E+00 0.  1.
</event>
<event>
12    1  0.8416569E-002  0.1806127E+03  0.7818608E-02  0.1171518E+00
         21   -1    0    0  503  502  0.00000000000E+00  0.00000000000E+00  0.23495920785E+03  0.23495920785E+03  0.00000000000E+00 0. -1.
         21   -1    0    0  501  503 -0.00000000000E+00 -0.00000000000E+00 -0.17182351954E+03  0.17182351954E+03  0.00000000000E+00 0.  1.
          6    2    1    2  501    0 -0.47967469761E+02  0.13826303842E+02  0.13524757619E+03  0.21230628257E+03  0.15585251335E+03 0.  0.
         24    2    3    3    0    0 -0.87269090464E+02  0.38537353962E+01  0.74712996313E+02  0.13929535960E+03  0.78679221915E+02 0.  0.
         -6    2    1    2    0  502  0.47967469761E+02 -0.13826303842E+02 -0.72111887885E+02  0.19447644483E+03  0.17357683712E+03 0.  0.
        -24    2    5    5    0    0  0.31328713146E+01 -0.42030510577E+02  0.20942198033E+02  0.87300088284E+02  0.73527893033E+02 0.  0.
          5    1    3    3  501    0  0.39301620703E+02  0.99725684462E+01  0.60534579879E+02  0.73010922966E+02  0.47000000000E+01 0. -1.
        -13    1    4    4    0    0 -0.21481918405E+02 -0.26931271834E+02 -0.88213174507E+00  0.34460765768E+02  0.00000000000E+00 0.  1.
         14    1    4    4    0    0 -0.65787172059E+02  0.30785007230E+02  0.75595128058E+02  0.10483459383E+03  0.00000000000E+00 0. -1.
         -5    1    5    5    0  502  0.44834598447E+02  0.28204206735E+02 -0.93054085918E+02  0.10717635654E+03  0.47000000000E+01 0.  1.
         11    1    6    6    0    0  0.24599195583E+02 -0.15309960854E+01  0.31762465479E+02  0.40203464846E+02  0.00000000000E+00 0. -1.
        -12    1    6    6    0    0 -0.21466324268E+02 -0.40499514492E+02 -0.10820267446E+02  0.47096623438E+02  0.00000000000E+00 0.  1.
</event>
<event>
12    1  0.8416569E-002  0.1901769E+03  0.7818608E-02  0.1159686E+00
         21   -1    0    0  503  502  0.00000000000E+00  0.00000000000E+00  0.20214234886E+04  0.20214234886E+04  0.00000000000E+00 0.  1.
         21   -1    0    0  501  503 -0.00000000000E+00 -0.00000000000E+00 -0.18759637901E+02  0.18759637901E+02  0.00000000000E+00 0.  1.
          6    2    1    2  501    0 -0.71353029104E+02 -0.41400101891E+02  0.12980228912E+04  0.13118805828E+04  0.17135347728E+03 0.  0.
         24    2    3    3    0    0 -0.18098740198E+02 -0.11957493541E+02  0.27778097061E+03  0.28981475661E+03  0.79748225491E+02 0.  0.
         -6    2    1    2    0  502  0.71353029104E+02  0.41400101891E+02  0.70464095946E+03  0.72830254369E+03  0.16462226520E+03 0.  0.
        -24    2    5    5    0    0  0.77744069931E+02 -0.26268339593E+02  0.49874306244E+03  0.51142493449E+03  0.77952903799E+02 0.  0.
          5    1    3    3  501    0 -0.53254288907E+02 -0.29442608350E+02  0.10202419206E+04  0.10220658262E+04  0.47000000000E+01 0. -1.
        -13    1    4    4    0    0 -0.27186949535E+02 -0.42314458700E+00  0.27303028445E+03  0.27438084027E+03  0.00000000000E+00 0.  1.
         14    1    4    4    0    0  0.90882093374E+01 -0.11534348954E+02  0.47506861521E+01  0.15433916342E+02  0.00000000000E+00 0. -1.
         -5    1    5    5    0  502 -0.63910408273E+01  0.67668441484E+02  0.20589789702E+03  0.21687760920E+03  0.47000000000E+01 0.  1.
         13    1    6    6    0    0 -0.15596084258E+02 -0.15558546669E+01  0.95863816731E+02  0.97136655729E+02  0.00000000000E+00 0. -1.
        -14    1    6    6    0    0  0.93340154189E+02 -0.24712484926E+02  0.40287924571E+03  0.41428827876E+03  0.00000000000E+00 0.  1.
</event>
<event>
12    1  0.8416569E-002  0.3065152E+03  0.7818608E-02  0.1082075E+00
         21   -1    0    0  501  502  0.00000000000E+00  0.00000000000E+00  0.68109005268E+03  0.68109005268E+03  0.00000000000E+00 0. -1.
         21   -1    0    0  502  503 -0.00000000000E+00 -0.00000000000E+00 -0.14984914603E+03  0.14984914603E+03  0.00000000000E+00 0.  1.
         -6    2    1    2    0  503  0.16709219934E+02 -0.25291284609E+03  0.14782219746E+03  0.34029839466E+03  0.17235860755E+03 0.  0.
        -24    2    3    3    0    0 -0.27079630712E+02 -0.17012665864E+03  0.33638889263E+02  0.19254544496E+03  0.79156725072E+02 0.  0.
          6    2    1    2  501    0 -0.16709219934E+02  0.25291284609E+03  0.38341870919E+03  0.49064080405E+03  0.17168105982E+03 0.  0.
         24    2    5    5    0    0 -0.34870890473E+02  0.12440888521E+03  0.11001639627E+03  0.18796270946E+03  0.80825880621E+02 0.  0.
          5    1    5    5  501    0  0.18161670539E+02  0.12850396088E+03  0.27340231292E+03  0.30267809459E+03  0.47000000000E+01 0. -1.
        -11    1    6    6    0    0 -0.43088764438E+02  0.20880851754E+02  0.43061351805E+02  0.64396673905E+02  0.00000000000E+00 0.  1.
         12    1    6    6    0    0  0.82178739647E+01  0.10352803346E+03  0.66955044462E+02  0.12356603555E+03  0.00000000000E+00 0. -1.
         -5    1    3    3    0  503  0.43788850646E+02 -0.82786187451E+02  0.11418330820E+03  0.14775294970E+03  0.47000000000E+01 0.  1.
         11    1    4    4    0    0  0.21771659709E+02 -0.31433098965E+02  0.24085082082E+02  0.45189999513E+02  0.00000000000E+00 0. -1.
        -12    1    4    4    0    0 -0.48851290422E+02 -0.13869355967E+03  0.95538071808E+01  0.14735544544E+03  0.00000000000E+00 0.  1.
</event>
<event>
12    1  0.8416569E-002  0.1866132E+03  0.7818608E-02  0.1161993E+00
         21   -1    0    0  501  502  0.00000000000E+00  0.00000000000E+00  0.20224988482E+03  0.20224988482E+03  0.00000000000E+00 0.  1.
         21   -1    0    0  502  503 -0.00000000000E+00 -0.00000000000E+00 -0.19745701614E+03  0.19745701614E+03  0.00000000000E+00 0.  1.
         -6    2    1    2    0  503 -0.23065263248E+02  0.62354747396E+02 -0.71543992446E+02  0.19808398384E+03  0.17233282017E+03 0.  0.
        -24    2    3    3    0    0  0.22758685880E+02  0.95455368176E+02 -0.57808169962E+02  0.13972091136E+03  0.80934933506E+02 0.  0.
          6    2    1    2  501    0  0.23065263248E+02 -0.62354747396E+02  0.76336861123E+02  0.20162291712E+03  0.17436847034E+03 0.  0.
         24    2    5    5    0    0  0.39412872428E+02 -0.10510817594E+03  0.71160741255E+02  0.15531976177E+03  0.80369609550E+02 0.  0.
          5    1    5    5  501    0 -0.16347609180E+02  0.42753428541E+02  0.51761198679E+01  0.46303155344E+02  0.47000000000E+01 0. -1.
        -13    1    6    6    0    0  0.36282340785E+01 -0.45936141368E+01  0.45113684350E+02  0.45491866185E+02  0.00000000000E+00 0.  1.
         14    1    6    6    0    0  0.35784638350E+02 -0.10051456180E+03  0.26047056905E+02  0.10982789559E+03  0.00000000000E+00 0. -1.
         -5    1    3    3    0  503 -0.45823949128E+02 -0.33100620780E+02 -0.13735822484E+02  0.58363072478E+02  0.47000000000E+01 0.  1.
         11    1    4    4    0    0 -0.13354154734E+02  0.78578387215E+02 -0.14775982008E+02  0.81063099066E+02  0.00000000000E+00 0. -1.
        -12    1    4    4    0    0  0.36112840614E+02  0.16876980961E+02 -0.43032187954E+02  0.58657812299E+02  0.00000000000E+00 0.  1.
</event>
<event>
12    1  0.8416569E-002  0.1739372E+03  0.7818608E-02  0.1174017E+00
         21   -1    0    0  503  502  0.00000000000E+00  0.00000000000E+00  0.21711576253E+03  0.21711576253E+03  0.00000000000E+00 0. -1.
         21   -1    0    0  501  503 -0.00000000000E+00 -0.00000000000E+00 -0.30197965776E+03  0.30197965776E+03  0.00000000000E+00 0. -1.
          6    2    1    2  501    0  0.14377587197E+02 -0.13835482622E+02 -0.23325282099E+03  0.29046156981E+03  0.17193867931E+03 0.  0.
         24    2    3    3    0    0 -0.47055182477E+02 -0.24575116674E+02 -0.19551116343E+03  0.21741468319E+03  0.78907559098E+02 0.  0.
         -6    2    1    2    0  502 -0.14377587197E+02  0.13835482622E+02  0.14838892576E+03  0.22863385048E+03  0.17278897160E+03 0.  0.
        -24    2    5    5    0    0  0.51947931049E+02 -0.27327953783E+02  0.72333157375E+02  0.11954639579E+03  0.74925633081E+02 0.  0.
          5    1    3    3  501    0  0.61432769673E+02  0.10739634051E+02 -0.37741657555E+02  0.73046886616E+02  0.47000000000E+01 0. -1.
        -11    1    4    4    0    0 -0.45878064672E+01  0.26233255367E+02 -0.79410737610E+02  0.83757369247E+02  0.00000000000E+00 0.  1.
         12    1    4    4    0    0 -0.42467376010E+02 -0.50808372041E+02 -0.11610042582E+03  0.13365731395E+03  0.00000000000E+00 0. -1.
         -5    1    5    5    0  502 -0.66325518245E+02  0.41163436405E+02  0.76055768383E+02  0.10908745469E+03  0.47000000000E+01 0.  1.
         11    1    6    6    0    0  0.54143348890E+02  0.71890119900E+01  0.63677908872E+02  0.83893147519E+02  0.00000000000E+00 0. -1.
        -12    1    6    6    0    0 -0.21954178414E+01 -0.34516965773E+02  0.86552485031E+01  0.35653248272E+02  0.00000000000E+00 0.  1.
</event>
<event>
12    1  0.8416569E-002  0.1821964E+03  0.7818608E-02  0.1166060E+00
         21   -1    0    0  501  502  0.00000000000E+00  0.00000000000E+00  0.14952736732E+03  0.14952736732E+03  0.00000000000E+00 0.  1.
         21   -1    0    0  502  503 -0.00000000000E+00 -0.00000000000E+00 -0.95137324680E+03  0.95137324680E+03  0.00000000000E+00 0.  1.
         -6    2    1    2    0  503  0.24048603744E+02 -0.52754456807E+02 -0.88311097070E+03  0.90140242240E+03  0.17111391668E+03 0.  0.
        -24    2    3    3    0    0  0.68526954404E+02 -0.32273136179E+02 -0.73881928028E+03  0.74895574288E+03  0.96660628397E+02 0.  0.
          6    2    1    2  501    0 -0.24048603744E+02  0.52754456807E+02  0.81265091219E+02  0.19949819173E+03  0.17272563619E+03 0.  0.
         24    2    5    5    0    0 -0.43284094242E+02  0.33664324942E+02  0.11925503757E+03  0.15259655793E+03  0.77827668077E+02 0.  0.
          5    1    5    5  501    0  0.19235490498E+02  0.19090131865E+02 -0.37989946350E+02  0.46901633799E+02  0.47000000000E+01 0. -1.
        -11    1    6    6    0    0  0.54051195702E+01 -0.19323093816E+02  0.44603389721E+02  0.48908686823E+02  0.00000000000E+00 0.  1.
         12    1    6    6    0    0 -0.48689213812E+02  0.52987418757E+02  0.74651647848E+02  0.10368787111E+03  0.00000000000E+00 0. -1.
         -5    1    3    3    0  503 -0.44478350660E+02 -0.20481320627E+02 -0.14429169042E+03  0.15244667952E+03  0.47000000000E+01 0.  1.
         13    1    4    4    0    0  0.16542030211E+02 -0.26293640931E+02 -0.55231438902E+02  0.63368021589E+02  0.00000000000E+00 0. -1.
        -14    1    4    4    0    0  0.51984924193E+02 -0.59794952485E+01 -0.68358784137E+03  0.68558772129E+03  0.00000000000E+00 0.  1.
</event>
<event>
12    1  0.8416569E-002  0.1793560E+03  0.7818608E-02  0.1168693E+00
         21   -1    0    0  501  502  0.00000000000E+00  0.00000000000E+00  0.65599152939E+02  0.65599152939E+02  0.00000000000E+00 0.  1.
         21   -1    0    0  502  503 -0.00000000000E+00 -0.00000000000E+00 -0.48828989099E+03  0.48828989099E+03  0.00000000000E+00 0.  1.
         -6    2    1    2    0  503 -0.24957440193E+02 -0.43440247708E+02 -0.19898313687E+03  0.26715977646E+03  0.17108514972E+03 0.  0.
        -24    2    3    3    0    0 -0.48908198563E+02 -0.12711594582E+02 -0.36861885559E+02  0.10035666175E+03  0.78479707104E+02 0.  0.
          6    2    1    2  501    0  0.24957440193E+02  0.43440247708E+02 -0.22370760118E+03  0.28672926748E+03  0.17221687797E+03 0.  0.
         24    2    5    5    0    0 -0.20760732107E+02  0.81804110259E+01 -0.21209273063E+03  0.22764963834E+03  0.79643608202E+02 0.  0.
          5    1    5    5  501    0  0.45718172300E+02  0.35259836682E+02 -0.11614870558E+02  0.59079629141E+02  0.47000000000E+01 0. -1.
        -13    1    6    6    0    0 -0.32111606511E+02  0.17244760689E+02 -0.36938236833E+02  0.51893837633E+02  0.00000000000E+00 0.  1.
         14    1    6    6    0    0  0.11350874404E+02 -0.90643496628E+01 -0.17515449379E+03  0.17575580070E+03  0.00000000000E+00 0. -1.
         -5    1    3    3    0  503  0.23950758370E+02 -0.30728653127E+02 -0.16212125131E+03  0.16680311471E+03  0.47000000000E+01 0.  1.
         11    1    4    4    0    0 -0.32185828923E+02  0.30305909051E+02 -0.30633932709E+02  0.53784882077E+02  0.00000000000E+00 0. -1.
        -12    1    4    4    0    0 -0.16722369640E+02 -0.43017503633E+02 -0.62279528500E+01  0.46571779673E+02  0.00000000000E+00 0.  1.
</event>
<event>
12    1  0.8416569E-002  0.2097842E+03  0.7818608E-02  0.1142005E+00
         21   -1    0    0  501  502  0.00000000000E+00  0.00000000000E+00  0.20075103669E+02  0.20075103669E+02  0.00000000000E+00 0.  1.
         21   -1    0    0  502  503 -0.00000000000E+00 -0.00000000000E+00 -0.24646890528E+04  0.24646890528E+04  0.00000000000E+00 0. -1.
         -6    2    1    2    0  503 -0.11156123482E+03  0.37999018874E+02 -0.16424169531E+04  0.16555902122E+04  0.17191762022E+03 0.  0.
        -24    2    3    3    0    0 -0.90615956872E+02  0.89364620451E+02 -0.13095875165E+04  0.13181370249E+04  0.79173645057E+02 0.  0.
          6    2    1    2  501    0  0.11156123482E+03 -0.37999018874E+02 -0.80219699605E+03  0.82917394435E+03  0.17354992068E+03 0.  0.
         24    2    5    5    0    0  0.57045231309E+02 -0.86965075193E+02 -0.43551384788E+03  0.45521099102E+03  0.82022264867E+02 0.  0.
          5    1    5    5  501    0  0.54516003512E+02  0.48966056319E+02 -0.36668314817E+03  0.37396295333E+03  0.47000000000E+01 0. -1.
        -13    1    6    6    0    0  0.11888133388E+02  0.12339212259E+02 -0.24036107175E+02  0.29518101612E+02  0.00000000000E+00 0.  1.
         14    1    6    6    0    0  0.45157097921E+02 -0.99304287452E+02 -0.41147774070E+03  0.42569288941E+03  0.00000000000E+00 0. -1.
         -5    1    3    3    0  503 -0.20945277949E+02 -0.51365601577E+02 -0.33282943664E+03  0.33745318726E+03  0.47000000000E+01 0.  1.
         11    1    4    4    0    0  0.52320928289E+01 -0.43672711375E+01 -0.25124513377E+03  0.25133755210E+03  0.00000000000E+00 0. -1.
        -12    1    4    4    0    0 -0.95848049701E+02  0.93731891588E+02 -0.10583423827E+04  0.10667994728E+04  0.00000000000E+00 0.  1.
</event>
<event>
12    1  0.8416569E-002  0.1905883E+03  0.7818608E-02  0.1158531E+00
         21   -1    0    0  503  502  0.00000000000E+00  0.00000000000E+00  0.97381662479E+02  0.97381662479E+02  0.00000000000E+00 0.  1.
         21   -1    0    0  501  503 -0.00000000000E+00 -0.00000000000E+00 -0.36785957841E+03  0.36785957841E+03  0.00000000000E+00 0.  1.
          6    2    1    2  501    0 -0.63683371907E+01 -0.73730337601E+02 -0.13246468373E+03  0.22992964331E+03  0.17275424752E+03 0.  0.
         24    2    3    3    0    0  0.51511526374E+02 -0.75157845120E+02 -0.12038825435E+03  0.17059966328E+03  0.79427792956E+02 0.  0.
         -6    2    1    2    0  502  0.63683371907E+01  0.73730337601E+02 -0.13801323220E+03  0.23531159758E+03  0.17563364510E+03 0.  0.
        -24    2    5    5    0    0  0.47911035370E+02 -0.10426748679E+02 -0.77048842223E+02  0.12329839394E+03  0.82835894772E+02 0.  0.
          5    1    3    3  501    0 -0.57879863565E+02  0.14275075188E+01 -0.12076429381E+02  0.59329980032E+02  0.47000000000E+01 0. -1.
        -13    1    4    4    0    0  0.41811049532E+02 -0.90758012509E+02 -0.11287807054E+03  0.15075357212E+03  0.00000000000E+00 0.  1.
         14    1    4    4    0    0  0.97004768425E+01  0.15600167389E+02 -0.75101838056E+01  0.19846091160E+02  0.00000000000E+00 0. -1.
         -5    1    5    5    0  502 -0.41542698179E+02  0.84157086280E+02 -0.60964389979E+02  0.11201320364E+03  0.47000000000E+01 0.  1.
         13    1    6    6    0    0 -0.86720249911E+01 -0.16219500037E+02  0.87427327303E+01  0.20364468431E+02  0.00000000000E+00 0. -1.
        -14    1    6    6    0    0  0.56583060361E+02  0.57927513580E+01 -0.85791574953E+02  0.10293392551E+03  0.00000000000E+00 0.  1.
</event>
<event>
12    1  0.8416569E-002  0.1764776E+03  0.7818608E-02  0.1171334E+00
         21   -1    0    0  503  502  0.00000000000E+00  0.00000000000E+00  0.53860590409E+03  0.53860590409E+03  0.00000000000E+00 0. -1.
         21   -1    0    0  501  503 -0.00000000000E+00 -0.00000000000E+00 -0.58927816766E+02  0.58927816766E+02  0.00000000000E+00 0.  1.
          6    2    1    2  501    0 -0.13370553225E+02 -0.38273078810E+02  0.19689085602E+03  0.26419761987E+03  0.17143737313E+03 0.  0.
         24    2    3    3    0    0  0.60170094742E+01 -0.84873715553E+02  0.94869949081E+02  0.15027724248E+03  0.79644148397E+02 0.  0.
         -6    2    1    2    0  502  0.13370553225E+02  0.38273078810E+02  0.28278723131E+03  0.33333610099E+03  0.17175778811E+03 0.  0.
        -24    2    5    5    0    0 -0.28921539211E+02  0.52805600947E+02  0.90844984004E+02  0.13619723729E+03  0.81682246565E+02 0.  0.
          5    1    3    3  501    0 -0.19387562699E+02  0.46600636743E+02  0.10202090694E+03  0.11392037739E+03  0.47000000000E+01 0. -1.
        -13    1    4    4    0    0  0.30301056297E+02 -0.15696378610E+02  0.53109641513E+01  0.34536019667E+02  0.00000000000E+00 0.  1.
         14    1    4    4    0    0 -0.24284046823E+02 -0.69177336943E+02  0.89558984930E+02  0.11574122281E+03  0.00000000000E+00 0. -1.
         -5    1    5    5    0  502  0.42292092437E+02 -0.14532522137E+02  0.19194224730E+03  0.19713886370E+03  0.47000000000E+01 0.  1.
         11    1    6    6    0    0  0.18241497389E+02 -0.37324456049E+01  0.46881400199E+02  0.50443523487E+02  0.00000000000E+00 0. -1.
        -12    1    6    6    0    0 -0.47163036600E+02  0.56538046552E+02  0.43963583805E+02  0.85753713799E+02  0.00000000000E+00 0.  1.
</event>
<event>
12    1  0.8416569E-002  0.1807642E+03  0.7818608E-02  0.1167325E+00
         21   -1    0    0  501  502  0.00000000000E+00  0.00000000000E+00  0.10104931196E+03  0.10104931196E+03  0.00000000000E+00 0. -1.
         21   -1    0    0  502  503 -0.00000000000E+00 -0.00000000000E+00 -0.59376748642E+03  0.59376748642E+03  0.00000000000E+00 0. -1.
         -6    2    1    2    0  503  0.19242504274E+02  0.48817122409E+02 -0.48203170341E+03  0.51481089887E+03  0.17298067260E+03 0.  0.
        -24    2    3    3    0    0  0.80246590284E+02  0.28285866752E+02 -0.29725965400E+03  0.31909214348E+03  0.78847248684E+02 0.  0.
          6    2    1    2  501    0 -0.19242504274E+02 -0.48817122409E+02 -0.10686471050E+02  0.18000589950E+03  0.17185615433E+03 0.  0.
         24    2    5    5    0    0 -0.12728112198E+02 -0.15453341189E+02 -0.72022913354E+02  0.10972198701E+03  0.80316896046E+02 0.  0.
          5    1    5    5  501    0 -0.65143920757E+01 -0.33363781220E+02  0.61336442304E+02  0.70283912497E+02  0.47000000000E+01 0. -1.
        -13    1    6    6    0    0  0.87183476873E+01  0.17894863871E+02  0.71703533641E+01  0.21157733970E+02  0.00000000000E+00 0.  1.
         14    1    6    6    0    0 -0.21446459885E+02 -0.33348205060E+02 -0.79193266718E+02  0.88564253036E+02  0.00000000000E+00 0. -1.
         -5    1    3    3    0  503 -0.61004086010E+02  0.20531255656E+02 -0.18477204941E+03  0.19571875539E+03  0.47000000000E+01 0.  1.
         13    1    4    4    0    0 -0.10545745145E+02 -0.71451863062E+01 -0.79545456840E+02  0.80558960594E+02  0.00000000000E+00 0. -1.
        -14    1    4    4    0    0  0.90792335429E+02  0.35431053059E+02 -0.21771419716E+03  0.23853318289E+03  0.00000000000E+00 0.  1.
</event>
<event>
12    1  0.8416569E-002  0.2453436E+03  0.7818608E-02  0.1116762E+00
         21   -1    0    0  501  502  0.00000000000E+00  0.00000000000E+00  0.37554295260E+03  0.37554295260E+03  0.00000000000E+00 0.  1.
         21   -1    0    0  502  503 -0.00000000000E+00 -0.00000000000E+00 -0.24624529977E+03  0.24624529977E+03  0.00000000000E+00 0. -1.
         -6    2    1    2    0  503 -0.62575557453E+02 -0.16458267190E+03 -0.12132146694E+03  0.27106984366E+03  0.16660373802E+03 0.  0.
        -24    2    3    3    0    0 -0.89139041551E+02 -0.86708728003E+02 -0.11784048579E+03  0.18858240793E+03  0.78821140859E+02 0.  0.
          6    2    1    2  501    0  0.62575557453E+02  0.16458267190E+03  0.25061911977E+03  0.35071840871E+03  0.17085169808E+03 0.  0.
         24    2    5    5    0    0  0.95480181106E+02  0.93026868420E+02  0.21280961723E+03  0.26322786208E+03  0.78933585720E+02 0.  0.
          5    1    5    5  501    0 -0.32904623653E+02  0.71555803476E+02  0.37809502540E+02  0.87490546639E+02  0.47000000000E+01 0. -1.
        -13    1    6    6    0    0  0.25268681358E+02  0.95907823485E+01  0.11030095683E+03  0.11356403674E+03  0.00000000000E+00 0.  1.
         14    1    6    6    0    0  0.70211499748E+02  0.83436086072E+02  0.10250866040E+03  0.14966382533E+03  0.00000000000E+00 0. -1.
         -5    1    3    3    0  503  0.26563484099E+02 -0.77873943893E+02 -0.34809811497E+01  0.82487435739E+02  0.47000000000E+01 0.  1.
         13    1    4    4    0    0 -0.81820287571E+02 -0.28545103898E+02 -0.85013617080E+02  0.12139480015E+03  0.00000000000E+00 0. -1.
        -14    1    4    4    0    0 -0.73187539801E+01 -0.58163624105E+02 -0.32826868713E+02  0.67187607774E+02  0.00000000000E+00 0.  1.
</event>
<event>
12    1  0.8416569E-002  0.2517878E+03  0.7818608E-02  0.1112993E+00
         21   -1    0    0  501  502  0.00000000000E+00  0.00000000000E+00  0.58461086344E+02  0.58461086344E+02  0.00000000000E+00 0.  1.
         21   -1    0    0  502  503 -0.00000000000E+00 -0.00000000000E+00 -0.10801490930E+04  0.10801490930E+04  0.00000000000E+00 0.  1.
         -6    2    1    2    0  503  0.16059718824E+03 -0.69568875502E+02 -0.43274936736E+03  0.49810583273E+03  0.17379908036E+03 0.  0.
        -24    2    3    3    0    0  0.97432794419E+02  0.28947567101E+02 -0.23324574375E+03  0.26676405971E+03  0.80177150760E+02 0.  0.
          6    2    1    2  501    0 -0.16059718824E+03  0.69568875502E+02 -0.58893863930E+03  0.64050434663E+03  0.18101329198E+03 0.  0.
         24    2    5    5    0    0 -0.59373473112E+02  0.22320420422E+02 -0.11613369289E+03  0.15465944919E+03  0.80056855563E+02 0.  0.
          5    1    5    5  501    0 -0.10122371513E+03  0.47248455080E+02 -0.47280494641E+03  0.48584489743E+03  0.47000000000E+01 0. -1.
        -11    1    6    6    0    0  0.12913034848E+02  0.26209651744E+02 -0.26516174373E+02  0.39456302626E+02  0.00000000000E+00 0.  1.
         12    1    6    6    0    0 -0.72286507959E+02 -0.38892313228E+01 -0.89617518520E+02  0.11520314657E+03  0.00000000000E+00 0. -1.
         -5    1    3    3    0  503  0.63164393822E+02 -0.98516442603E+02 -0.19950362361E+03  0.23134177302E+03  0.47000000000E+01 0.  1.
         13    1    4    4    0    0  0.13320834063E+02  0.30407132584E+02 -0.12688585532E+03  0.13115661864E+03  0.00000000000E+00 0. -1.
        -14    1    4    4    0    0  0.84111960356E+02 -0.14595654831E+01 -0.10635988843E+03  0.13560744107E+03  0.00000000000E+00 0.  1.
</event>
<event>
12    1  0.8416569E-002  0.2145448E+03  0.7818608E-02  0.1138307E+00
         21   -1    0    0  503  502  0.00000000000E+00  0.00000000000E+00  0.40840748129E+03  0.40840748129E+03  0.00000000000E+00 0. -1.
         21   -1    0    0  501  503 -0.00000000000E+00 -0.00000000000E+00 -0.11390325070E+03  0.11390325070E+03  0.00000000000E+00 0. -1.
          6    2    1    2  501    0  0.15737754429E+02 -0.12153320548E+03  0.18122561534E+03  0.27969677560E+03  0.17426865948E+03 0.  0.
         24    2    3    3    0    0 -0.89548959245E+01 -0.14371230072E+03  0.10253611566E+03  0.19416452083E+03  0.80329263618E+02 0.  0.
         -6    2    1    2    0  502 -0.15737754429E+02  0.12153320548E+03  0.11327861525E+03  0.24261395639E+03  0.17610079561E+03 0.  0.
        -24    2    5    5    0    0  0.23816674782E+02  0.22403195727E+01  0.11513614337E+02  0.80831537978E+02  0.76347371843E+02 0.  0.
          5    1    3    3  501    0  0.24692650354E+02  0.22179095239E+02  0.78689499678E+02  0.85532254774E+02  0.47000000000E+01 0. -1.
        -13    1    4    4    0    0 -0.61443010496E+01 -0.11855481428E+02  0.50746161062E+02  0.52473590861E+02  0.00000000000E+00 0.  1.
         14    1    4    4    0    0 -0.28105948749E+01 -0.13185681929E+03  0.51789954602E+02  0.14169092996E+03  0.00000000000E+00 0. -1.
         -5    1    5    5    0  502 -0.39554429212E+02  0.11929288591E+03  0.10176500091E+03  0.16178241841E+03  0.47000000000E+01 0.  1.
         13    1    6    6    0    0 -0.17528865880E+02  0.16195294885E+02  0.25579286560E+02  0.34983547796E+02  0.00000000000E+00 0. -1.
        -14    1    6    6    0    0  0.41345540662E+02 -0.13954975312E+02 -0.14065672224E+02  0.45847990182E+02  0.00000000000E+00 0.  1.
</event>
<event>
12    1  0.8416569E-002  0.1954278E+03  0.7818608E-02  0.1153914E+00
         21   -1    0    0  503  502  0.00000000000E+00  0.00000000000E+00  0.89553628630E+02  0.89553628630E+02  0.00000000000E+00 0. -1.
         21   -1    0    0  501  503 -0.00000000000E+00 -0.00000000000E+00 -0.75380295802E+03  0.75380295802E+03  0.00000000000E+00 0. -1.
          6    2    1    2  501    0  0.79568137003E+02 -0.45061618589E+02 -0.61166263048E+03  0.64212396464E+03  0.17271472013E+03 0.  0.
         24    2    3    3    0    0  0.10473920878E+02 -0.71380928873E+02 -0.48212121874E+03  0.49289332385E+03  0.72787492825E+02 0.  0.
         -6    2    1    2    0  502 -0.79568137003E+02  0.45061618589E+02 -0.52586698910E+02  0.20123262201E+03  0.17136968624E+03 0.  0.
        -24    2    5    5    0    0 -0.26252476986E+02 -0.37117097100E+02 -0.68390443017E+01  0.93015992889E+02  0.80859946582E+02 0.  0.
          5    1    3    3  501    0  0.69094216125E+02  0.26319310284E+02 -0.12954141173E+03  0.14923064079E+03  0.47000000000E+01 0. -1.
        -13    1    4    4    0    0  0.33695456675E+02 -0.95570009583E+01 -0.20805485779E+03  0.21098233082E+03  0.00000000000E+00 0.  1.
         14    1    4    4    0    0 -0.23221535797E+02 -0.61823927915E+02 -0.27406636095E+03  0.28191099303E+03  0.00000000000E+00 0. -1.
         -5    1    5    5    0  502 -0.53315660017E+02  0.82178715689E+02 -0.45747654609E+02  0.10821662912E+03  0.47000000000E+01 0.  1.
         11    1    6    6    0    0  0.17837761835E+02 -0.13758215846E+02  0.25136418319E+02  0.33753722409E+02  0.00000000000E+00 0. -1.
        -12    1    6    6    0    0 -0.44090238820E+02 -0.23358881254E+02 -0.31975462621E+02  0.59262270480E+02  0.00000000000E+00 0.  1.
</event>
<event>
12    1  0.8416569E-002  0.1965753E+03  0.7818608E-02  0.1152679E+00
         21   -1    0    0  503  502  0.00000000000E+00  0.00000000000E+00  0.68342964142E+03  0.68342964142E+03  0.00000000000E+00 0. -1.
         21   -1    0    0  501  503 -0.00000000000E+00 -0.00000000000E+00 -0.57998244390E+02  0.57998244390E+02  0.00000000000E+00 0.  1.
          6    2    1    2  501    0 -0.60502729848E+02  0.73187747199E+02  0.37201874629E+03  0.42076097276E+03  0.17211862754E+03 0.  0.
         24    2    3    3    0    0 -0.50428887177E+01  0.10424975398E+03  0.27410042909E+03  0.30392463814E+03  0.79659892739E+02 0.  0.
         -6    2    1    2    0  502  0.60502729848E+02 -0.73187747199E+02  0.25341265074E+03  0.32066691305E+03  0.17202404167E+03 0.  0.
        -24    2    5    5    0    0  0.12042791479E+02 -0.10850491518E+03  0.15634572625E+03  0.20647520665E+03  0.79181307123E+02 0.  0.
          5    1    3    3  501    0 -0.55459841131E+02 -0.31062006782E+02  0.97918317197E+02  0.11683633462E+03  0.47000000000E+01 0. -1.
        -11    1    4    4    0    0  0.16342589638E+02  0.38186814112E+02  0.19179225275E+03  0.19623858240E+03  0.00000000000E+00 0.  1.
         12    1    4    4    0    0 -0.21385478356E+02  0.66062939869E+02  0.82308176339E+02  0.10768605574E+03  0.00000000000E+00 0. -1.
         -5    1    5    5    0  502  0.48459938370E+02  0.35317167985E+02  0.97066924492E+02  0.11419170641E+03  0.47000000000E+01 0.  1.
         13    1    6    6    0    0 -0.61946304661E+01 -0.11067235167E+03  0.15105688682E+03  0.18736308582E+03  0.00000000000E+00 0. -1.
        -14    1    6    6    0    0  0.18237421945E+02  0.21674364865E+01  0.52888394290E+01  0.19112120830E+02  0.00000000000E+00 0.  1.
</event>
<event>
12    1  0.8416569E-002  0.1792067E+03  0.7818608E-02  0.1169147E+00
         21   -1    0    0  501  502  0.00000000000E+00  0.00000000000E+00  0.40203481875E+03  0.40203481875E+03  0.00000000000E+00 0. -1.
         21   -1    0    0  502  503 -0.00000000000E+00 -0.00000000000E+00 -0.10510943625E+03  0.10510943625E+03  0.00000000000E+00 0. -1.
         -6    2    1    2    0  503 -0.39473027793E+02  0.28262090256E+02  0.27595864617E+03  0.32904134413E+03  0.17250555378E+03 0.  0.
        -24    2    3    3    0    0 -0.74345866253E+02  0.66405495252E+02  0.20833417384E+03  0.24379937404E+03  0.78089750706E+02 0.  0.
          6    2    1    2  501    0  0.39473027793E+02 -0.28262090256E+02  0.20966736323E+02  0.17810291086E+03  0.17007109442E+03 0.  0.
         24    2    5    5    0    0  0.19324081440E+00  0.36866088671E+02 -0.16309138781E+02  0.93272714471E+02  0.84111030318E+02 0.  0.
          5    1    5    5  501    0  0.39279786979E+02 -0.65128178926E+02  0.37275875104E+02  0.84830196393E+02  0.47000000000E+01 0. -1.
        -13    1    6    6    0    0 -0.10477660354E+02  0.21781018172E+02  0.32833812619E+02  0.40770741594E+02  0.00000000000E+00 0.  1.
         14    1    6    6    0    0  0.10670901168E+02  0.15085070499E+02 -0.49142951399E+02  0.52501972877E+02  0.00000000000E+00 0. -1.
         -5    1    3    3    0  503  0.34872838460E+02 -0.38143404997E+02  0.67624472334E+02  0.85241970093E+02  0.47000000000E+01 0.  1.
         11    1    4    4    0    0 -0.44156669118E+01  0.52962631906E+02  0.66818918366E+02  0.85377434631E+02  0.00000000000E+00 0. -1.
        -12    1    4    4    0    0 -0.69930199341E+02  0.13442863346E+02  0.14151525547E+03  0.15842193941E+03  0.00000000000E+00 0.  1.
</event>
<event>
12    1  0.8416569E-002  0.2230434E+03  0.7818608E-02  0.1131695E+00
         21   -1    0    0  501  502  0.00000000000E+00  0.00000000000E+00  0.10449135100E+04  0.10449135100E+04  0.00000000000E+00 0. -1.
         21   -1    0    0  502  503 -0.00000000000E+00 -0.00000000000E+00 -0.56342819991E+02  0.56342819991E+02  0.00000000000E+00 0.  1.
         -6    2    1    2    0  503  0.13849292057E+03  0.33868895551E+02  0.27693714662E+03  0.35558757109E+03  0.17152535207E+03 0.  0.
        -24    2    3    3    0    0  0.11582940678E+03  0.44870924683E+02  0.29116207972E+03  0.32627685250E+03  0.79065646505E+02 0.  0.
          6    2    1    2  501    0 -0.13849292057E+03 -0.33868895551E+02  0.71163354335E+03  0.74566875886E+03  0.17109122358E+03 0.  0.
         24    2    5    5    0    0 -0.10839584708E+02  0.47048328076E+01  0.15866096904E+03  0.17682425936E+03  0.77161412325E+02 0.  0.
          5    1    5    5  501    0 -0.12765333586E+03 -0.38573728359E+02  0.55297257431E+03  0.56884449950E+03  0.47000000000E+01 0. -1.
        -11    1    6    6    0    0  0.16125149232E+02 -0.18018706079E+02  0.14028566928E+02  0.27955230218E+02  0.00000000000E+00 0.  1.
         12    1    6    6    0    0 -0.26964733940E+02  0.22723538886E+02  0.14463240211E+03  0.14886902914E+03  0.00000000000E+00 0. -1.
         -5    1    3    3    0  503  0.22663513796E+02 -0.11002029131E+02 -0.14224933097E+02  0.29310718589E+02  0.47000000000E+01 0.  1.
         11    1    4    4    0    0 -0.45625358024E+01  0.89780112611E+01  0.10418530295E+01  0.10124567985E+02  0.00000000000E+00 0. -1.
        -12    1    4    4    0    0  0.12039194258E+03  0.35892913422E+02  0.29012022669E+03  0.31615228452E+03  0.00000000000E+00 0.  1.
</event>
<event>
12    1  0.8416569E-002  0.1816613E+03  0.7818608E-02  0.1166476E+00
         21   -1    0    0  501  502  0.00000000000E+00  0.00000000000E+00  0.29661469194E+03  0.29661469194E+03  0.00000000000E+00 0.  1.
         21   -1    0    0  502  503 -0.00000000000E+00 -0.00000000000E+00 -0.11115794837E+03  0.11115794837E+03  0.00000000000E+00 0.  1.
         -6    2    1    2    0  503 -0.33091787662E+02  0.44360177341E+02  0.77563870354E+02  0.19648677228E+03  0.17183714951E+03 0.  0.
        -24    2    3    3    0    0 -0.75031989307E+02  0.23024194258E+02  0.89887046656E+01  0.11318702415E+03  0.81059192476E+02 0.  0.
          6    2    1    2  501    0  0.33091787662E+02 -0.44360177341E+02  0.10789287321E+03  0.21128586803E+03  0.17302587724E+03 0.  0.
         24    2    5    5    0    0 -0.57587899147E+01 -0.84030666079E+02  0.37013500005E+02  0.12112439843E+03  0.78783273662E+02 0.  0.
          5    1    5    5  501    0  0.38850577577E+02  0.39670488739E+02  0.70879373205E+02  0.90161469602E+02  0.47000000000E+01 0. -1.
        -13    1    6    6    0    0  0.10620019130E+02 -0.78337882328E+02 -0.13049035990E+01  0.79065235011E+02  0.00000000000E+00 0.  1.
         14    1    6    6    0    0 -0.16378809045E+02 -0.56927837510E+01  0.38318403604E+02  0.42059163416E+02  0.00000000000E+00 0. -1.
         -5    1    3    3    0  503  0.41940201645E+02  0.21335983083E+02  0.68575165689E+02  0.83299748123E+02  0.47000000000E+01 0.  1.
         13    1    4    4    0    0 -0.15710804855E+02 -0.16626218845E+02  0.30991459696E+02  0.38519230475E+02  0.00000000000E+00 0. -1.
        -14    1    4    4    0    0 -0.59321184452E+02  0.39650413103E+02 -0.22002755031E+02  0.74667793679E+02  0.00000000000E+00 0.  1.
</event>
<event>
12    1  0.8416569E-002  0.2378634E+03  0.7818608E-02  0.1121252E+00
         21   -1    0    0  501  502  0.00000000000E+00  0.00000000000E+00  0.16672395663E+03  0.16672395663E+03  0.00000000000E+00 0. -1.
         21   -1    0    0  502  503 -0.00000000000E+00 -0.00000000000E+00 -0.49134478082E+03  0.49134478082E+03  0.00000000000E+00 0.  1.
         -6    2    1    2    0  503 -0.12933516253E+02 -0.16496138800E+03 -0.34541404726E+03  0.41929826470E+03  0.17064769370E+03 0.  0.
        -24    2    3    3    0    0  0.29913650826E+02 -0.15017549985E+03 -0.18872787745E+03  0.25611999402E+03  0.80819133534E+02 0.  0.
          6    2    1    2  501    0  0.12933516253E+02  0.16496138800E+03  0.20793223068E+02  0.23877047274E+03  0.17087845141E+03 0.  0.
         24    2    5    5    0    0  0.16916550194E+02  0.68299521742E+01 -0.31600730667E+01  0.78716525743E+02  0.76508087456E+02 0.  0.
          5    1    5    5  501    0 -0.39830339415E+01  0.15813143582E+03  0.23953296135E+02  0.16005394700E+03  0.47000000000E+01 0. -1.
        -13    1    6    6    0    0 -0.32743865118E+01  0.34167669646E+02 -0.21095514894E+02  0.40288608871E+02  0.00000000000E+00 0.  1.
         14    1    6    6    0    0  0.20190936706E+02 -0.27337717472E+02  0.17935441827E+02  0.38427916873E+02  0.00000000000E+00 0. -1.
         -5    1    3    3    0  503 -0.42847167078E+02 -0.14785888142E+02 -0.15668616980E+03  0.16317827068E+03  0.47000000000E+01 0.  1.
         11    1    4    4    0    0  0.13267019102E+02 -0.31971503627E+00  0.15324809891E+01  0.13359061028E+02  0.00000000000E+00 0. -1.
        -12    1    4    4    0    0  0.16646631723E+02 -0.14985578482E+03 -0.19026035844E+03  0.24276093299E+03  0.00000000000E+00 0.  1.
</event>
<event>
12    1  0.8416569E-002  0.2187510E+03  0.7818608E-02  0.1135336E+00
         21   -1    0    0  503  502  0.00000000000E+00  0.00000000000E+00  0.13625852878E+03  0.13625852878E+03  0.00000000000E+00 0. -1.
         21   -1    0    0  501  503 -0.00000000000E+00 -0.00000000000E+00 -0.36165212641E+03  0.36165212641E+03  0.00000000000E+00 0. -1.
          6    2    1    2  501    0 -0.13162391410E+03  0.89874682399E+01 -0.16247331302E+03  0.27029047552E+03  0.17103723093E+03 0.  0.
         24    2    3    3    0    0 -0.52201019766E+02 -0.47689983678E+02 -0.12719503341E+03  0.16643010429E+03  0.80753464821E+02 0.  0.
         -6    2    1    2    0  502  0.13162391410E+03 -0.89874682399E+01 -0.62920284615E+02  0.22762017967E+03  0.17448883812E+03 0.  0.
        -24    2    5    5    0    0  0.12983314228E+03  0.19502373892E+02  0.23523813738E+01  0.15622347881E+03  0.84636010136E+02 0.  0.
          5    1    3    3  501    0 -0.79422894338E+02  0.56677451918E+02 -0.35278279602E+02  0.10386037123E+03  0.47000000000E+01 0. -1.
        -11    1    4    4    0    0  0.88746199735E+01  0.15791498532E+02 -0.13449341689E+02  0.22561362934E+02  0.00000000000E+00 0.  1.
         12    1    4    4    0    0 -0.61075639740E+02 -0.63481482210E+02 -0.11374569172E+03  0.14386874135E+03  0.00000000000E+00 0. -1.
         -5    1    5    5    0  502  0.17907718251E+01 -0.28489842132E+02 -0.65272665989E+02  0.71396700860E+02  0.47000000000E+01 0.  1.
         11    1    6    6    0    0  0.10520018687E+03  0.32060300438E+01 -0.32864400436E+02  0.11026072175E+03  0.00000000000E+00 0. -1.
        -12    1    6    6    0    0  0.24632955410E+02  0.16296343848E+02  0.35216781809E+02  0.45962757054E+02  0.00000000000E+00 0.  1.
</event>
<event>
12    1  0.8416569E-002  0.2044919E+03  0.7818608E-02  0.1147030E+00
         21   -1    0    0  501  502  0.00000000000E+00  0.00000000000E+00  0.36727420848E+02  0.36727420848E+02  0.00000000000E+00 0.  1.
         21   -1    0    0  502  503 -0.00000000000E+00 -0.00000000000E+00 -0.11185389480E+04  0.11185389480E+04  0.00000000000E+00 0.  1.
         -6    2    1    2    0  503 -0.10205388915E+03  0.29598361749E+02 -0.59417204420E+03  0.62837674889E+03  0.17471651646E+03 0.  0.
        -24    2    3    3    0    0 -0.34392317380E+02 -0.39098698323E+02 -0.17657560212E+03  0.19976707472E+03  0.77565463772E+02 0.  0.
          6    2    1    2  501    0  0.10205388915E+03 -0.29598361749E+02 -0.48763948298E+03  0.52688961999E+03  0.16890632606E+03 0.  0.
         24    2    5    5    0    0 -0.43888307088E+01  0.33067706380E+01 -0.15185246902E+03  0.17307072692E+03  0.82849910095E+02 0.  0.
          5    1    5    5  501    0  0.10644271986E+03 -0.32905132387E+02 -0.33578701396E+03  0.35381889307E+03  0.47000000000E+01 0. -1.
        -11    1    6    6    0    0  0.16351917775E+02 -0.32361325426E+02 -0.10260837737E+03  0.10882609846E+03  0.00000000000E+00 0.  1.
         12    1    6    6    0    0 -0.20740748484E+02  0.35668096064E+02 -0.49244091651E+02  0.64244628469E+02  0.00000000000E+00 0. -1.
         -5    1    3    3    0  503 -0.67661571769E+02  0.68697060071E+02 -0.41759644208E+03  0.42860967417E+03  0.47000000000E+01 0.  1.
         11    1    4    4    0    0  0.20868581427E+02 -0.28326127243E+02 -0.88465519757E+02  0.95205122558E+02  0.00000000000E+00 0. -1.
        -12    1    4    4    0    0 -0.55260898807E+02 -0.10772571079E+02 -0.88110082366E+02  0.10456195216E+03  0.00000000000E+00 0.  1.
</event>
<event>
12    1  0.8416569E-002  0.1923102E+03  0.7818608E-02  0.1156657E+00
         21   -1    0    0  503  502  0.00000000000E+00  0.00000000000E+00  0.18133987513E+04  0.18133987513E+04  0.00000000000E+00 0.  1.
         21   -1    0    0  501  503 -0.00000000000E+00 -0.00000000000E+00 -0.20951990257E+02  0.20951990257E+02  0.00000000000E+00 0.  1.
          6    2    1    2  501    0 -0.79111980857E+02  0.26656306632E+02  0.72798291529E+03  0.75265462155E+03  0.17193193472E+03 0.  0.
         24    2    3    3    0    0 -0.10148790979E+03  0.64408703549E+02  0.59545456236E+03  0.61297004831E+03  0.81962597350E+02 0.  0.
         -6    2    1    2    0  502  0.79111980857E+02 -0.26656306632E+02  0.10644638458E+04  0.10816961200E+04  0.17324535474E+03 0.  0.
        -24    2    5    5    0    0  0.80628717758E+01 -0.65721995578E+02  0.73744449427E+03  0.74474233951E+03  0.80202116679E+02 0.  0.
          5    1    3    3  501    0  0.22375928933E+02 -0.37752396917E+02  0.13252835294E+03  0.13968457324E+03  0.47000000000E+01 0. -1.
        -13    1    4    4    0    0 -0.86432632948E+02  0.22731284079E+02  0.26748743627E+03  0.28202276482E+03  0.00000000000E+00 0.  1.
         14    1    4    4    0    0 -0.15055276842E+02  0.41677419470E+02  0.32796712609E+03  0.33094728349E+03  0.00000000000E+00 0. -1.
         -5    1    5    5    0  502  0.71049109082E+02  0.39065688946E+02  0.32701935149E+03  0.33695378051E+03  0.47000000000E+01 0.  1.
         11    1    6    6    0    0 -0.33705429673E+01  0.90479124624E+01  0.12172968295E+02  0.15537259634E+02  0.00000000000E+00 0. -1.
        -12    1    6    6    0    0  0.11433414743E+02 -0.74769908041E+02  0.72527152598E+03  0.72920507987E+03  0.00000000000E+00 0.  1.
</event>
<event>
12    1  0.8416569E-002  0.3408462E+03  0.7818608E-02  0.1067493E+00
         21   -1    0    0  501  502  0.00000000000E+00  0.00000000000E+00  0.17765222332E+03  0.17765222332E+03  0.00000000000E+00 0.  1.
         21   -1    0    0  502  503 -0.00000000000E+00 -0.00000000000E+00 -0.63760399314E+03  0.63760399314E+03  0.00000000000E+00 0.  1.
         -6    2    1    2    0  503  0.12565847598E+03  0.25503036599E+03 -0.25792523202E+03  0.42743605941E+03  0.18800430688E+03 0.  0.
        -24    2    3    3    0    0  0.15287840987E+03  0.16474772306E+03 -0.14082722893E+03  0.27701693581E+03  0.79952822698E+02 0.  0.
          6    2    1    2  501    0 -0.12565847598E+03 -0.25503036599E+03 -0.20202653780E+03  0.38782015705E+03  0.16958541232E+03 0.  0.
         24    2    5    5    0    0 -0.39688318902E+02 -0.17104629610E+03 -0.65424153020E+02  0.20581330709E+03  0.85128135829E+02 0.  0.
          5    1    5    5  501    0 -0.85970157079E+02 -0.83984069892E+02 -0.13660238478E+03  0.18200684996E+03  0.47000000000E+01 0. -1.
        -13    1    6    6    0    0 -0.72495060476E+01 -0.13508975991E+03 -0.77490866197E+02  0.15590584632E+03  0.00000000000E+00 0.  1.
         14    1    6    6    0    0 -0.32438812855E+02 -0.35956536187E+02  0.12066713177E+02  0.49907460774E+02  0.00000000000E+00 0. -1.
         -5    1    3    3    0  503 -0.27219933894E+02  0.90282642935E+02 -0.11709800310E+03  0.15041912360E+03  0.47000000000E+01 0.  1.
         11    1    4    4    0    0  0.39749799197E+02  0.31322411132E+02  0.27901342926E+01  0.50684561996E+02  0.00000000000E+00 0. -1.
        -12    1    4    4    0    0  0.11312861068E+03  0.13342531193E+03 -0.14361736322E+03  0.22633237381E+03  0.00000000000E+00 0.  1.
</event>
<event>
12    1  0.8416569E-002  0.1813373E+03  0.7818608E-02  0.1167032E+00
         21   -1    0    0  503  502  0.00000000000E+00  0.00000000000E+00  0.82445293913E+02  0.82445293913E+02  0.00000000000E+00 0.  1.
         21   -1    0    0  501  503 -0.00000000000E+00 -0.00000000000E+00 -0.39433167560E+03  0.39433167560E+03  0.00000000000E+00 0.  1.
          6    2    1    2  501    0  0.46017831467E+02  0.32461061946E+02 -0.14989174030E+03  0.23361968661E+03  0.17011543965E+03 0.  0.
         24    2    3    3    0    0  0.63604640563E+02  0.51806636798E+02 -0.16735205505E+03  0.20183132849E+03  0.77457710477E+02 0.  0.
         -6    2    1    2    0  502 -0.46017831467E+02 -0.32461061946E+02 -0.16199464139E+03  0.24315728290E+03  0.17237122449E+03 0.  0.
        -24    2    5    5    0    0  0.38459196208E+02  0.36844135486E+01 -0.68388983423E+02  0.11190571984E+03  0.79706664731E+02 0.  0.
          5    1    3    3  501    0 -0.17586809095E+02 -0.19345574853E+02  0.17460314756E+02  0.31788358119E+02  0.47000000000E+01 0. -1.
        -13    1    4    4    0    0  0.50351506471E+02  0.64124016935E+02 -0.16439006453E+03  0.18349729444E+03  0.00000000000E+00 0.  1.
         14    1    4    4    0    0  0.13253134092E+02 -0.12317380137E+02 -0.29619905268E+01  0.18334034051E+02  0.00000000000E+00 0. -1.
         -5    1    5    5    0  502 -0.84477027676E+02 -0.36145475494E+02 -0.93605657966E+02  0.13125156306E+03  0.47000000000E+01 0.  1.
         13    1    6    6    0    0  0.22516478301E+02 -0.29072948739E+02 -0.65805874141E+02  0.75383295331E+02  0.00000000000E+00 0. -1.
        -14    1    6    6    0    0  0.15942717907E+02  0.32757362287E+02 -0.25831092822E+01  0.36522424507E+02  0.00000000000E+00 0.  1.
</event>
<event>
12    1  0.8416569E-002  0.1897861E+03  0.7818608E-02  0.1158843E+00
         21   -1    0    0  503  502  0.00000000000E+00  0.00000000000E+00  0.65085818777E+03  0.65085818777E+03  0.00000000000E+00 0. -1.
         21   -1    0    0  501  503 -0.00000000000E+00 -0.00000000000E+00 -0.16030058761E+03  0.16030058761E+03  0.00000000000E+00 0. -1.
          6    2    1    2  501    0 -0.78796301396E+02  0.88998483249E+01 -0.83471193914E+02  0.20656980966E+03  0.17150971295E+03 0.  0.
         24    2    3    3    0    0  0.25654440914E+02 -0.71905318755E+01 -0.34998407789E+02  0.90205902461E+02  0.78755077321E+02 0.  0.
         -6    2    1    2    0  502  0.78796301396E+02 -0.88998483249E+01  0.57402879408E+03  0.60458896571E+03  0.17242591632E+03 0.  0.
        -24    2    5    5    0    0  0.69339221686E+02  0.55662659991E+02  0.43426064514E+03  0.45026793897E+03  0.79073697074E+02 0.  0.
          5    1    3    3  501    0 -0.10445074231E+03  0.16090380200E+02 -0.48472786125E+02  0.11636390720E+03  0.47000000000E+01 0. -1.
        -11    1    4    4    0    0 -0.43444629844E+01  0.49821434807E+01  0.22919585601E+02  0.23853794591E+02  0.00000000000E+00 0.  1.
         12    1    4    4    0    0  0.29998903898E+02 -0.12172675356E+02 -0.57917993390E+02  0.66352107870E+02  0.00000000000E+00 0. -1.
         -5    1    5    5    0  502  0.94570797093E+01 -0.64562508316E+02  0.13976814894E+03  0.15432102674E+03  0.47000000000E+01 0.  1.
         13    1    6    6    0    0  0.26939968849E+02  0.47057544668E+02  0.36205683671E+03  0.36609469736E+03  0.00000000000E+00 0. -1.
        -14    1    6    6    0    0  0.42399252837E+02  0.86051153235E+01  0.72203808432E+02  0.84173241609E+02  0.00000000000E+00 0.  1.
</event>
<event>
12    1  0.8416569E-002  0.2036727E+03  0.7818608E-02  0.1149227E+00
         21   -1    0    0  503  502  0.00000000000E+00  0.00000000000E+00  0.54380828607E+02  0.54380828607E+02  0.00000000000E+00 0. -1.
         21   -1    0    0  501  503 -0.00000000000E+00 -0.00000000000E+00 -0.72688101928E+03  0.72688101928E+03  0.00000000000E+00 0. -1.
          6    2    1    2  501    0  0.11353170084E+03  0.10042525344E+02 -0.38801973086E+03  0.43822581107E+03  0.16879647667E+03 0.  0.
         24    2    3    3    0    0  0.88290676216E+02 -0.44842310492E+02 -0.33309018095E+03  0.35644072696E+03  0.79340071043E+02 0.  0.
         -6    2    1    2    0  502 -0.11353170084E+03 -0.10042525344E+02 -0.28448045980E+03  0.34303603682E+03  0.15412427172E+03 0.  0.
        -24    2    5    5    0    0 -0.78413026278E+02 -0.41951745017E+02 -0.11082137379E+03  0.16294970263E+03  0.79766390793E+02 0.  0.
          5    1    3    3  501    0  0.25241024623E+02  0.54884835836E+02 -0.54929549914E+02  0.81785084108E+02  0.47000000000E+01 0. -1.
        -13    1    4    4    0    0  0.81970521314E+02 -0.26520187289E+02 -0.15529522883E+03  0.17759249645E+03  0.00000000000E+00 0.  1.
         14    1    4    4    0    0  0.63201549017E+01 -0.18322123203E+02 -0.17779495212E+03  0.17884823051E+03  0.00000000000E+00 0. -1.
         -5    1    5    5    0  502 -0.35118674561E+02  0.31909219672E+02 -0.17365908602E+03  0.18008633418E+03  0.47000000000E+01 0.  1.
         11    1    6    6    0    0  0.73786176931E+01 -0.83405525470E+01 -0.53026371710E+02  0.54183068505E+02  0.00000000000E+00 0. -1.
        -12    1    6    6    0    0 -0.85791643971E+02 -0.33611192470E+02 -0.57795002076E+02  0.10876663413E+03  0.00000000000E+00 0.  1.
</event>
<event>
12    1  0.8416569E-002  0.2062973E+03  0.7818608E-02  0.1144559E+00
         21   -1    0    0  503  502  0.00000000000E+00  0.00000000000E+00  0.82358885364E+02  0.82358885364E+02  0.00000000000E+00 0.  1.
         21   -1    0    0  501  503 -0.00000000000E+00 -0.00000000000E+00 -0.51963425438E+03  0.51963425438E+03  0.00000000000E+00 0. -1.
          6    2    1    2  501    0 -0.10118760522E+02  0.11195811108E+03 -0.19488046450E+03  0.28369473756E+03  0.17282158639E+03 0.  0.
         24    2    3    3    0    0  0.24156747881E+02  0.93960968683E+01 -0.35693314565E+02  0.91194306548E+02  0.79815748681E+02 0.  0.
         -6    2    1    2    0  502  0.10118760522E+02 -0.11195811108E+03 -0.24239490452E+03  0.31829840219E+03  0.17297853955E+03 0.  0.
        -24    2    5    5    0    0  0.40494336231E+02 -0.11652480237E+03 -0.11665023860E+03  0.18877102563E+03  0.82519095490E+02 0.  0.
          5    1    3    3  501    0 -0.34275508403E+02  0.10256201421E+03 -0.15918714993E+03  0.19250043101E+03  0.47000000000E+01 0. -1.
        -13    1    4    4    0    0  0.45013991952E+00  0.42846251575E+02 -0.20119076268E+02  0.47336889735E+02  0.00000000000E+00 0.  1.
         14    1    4    4    0    0  0.23706607962E+02 -0.33450154706E+02 -0.15574238297E+02  0.43857416813E+02  0.00000000000E+00 0. -1.
         -5    1    5    5    0  502 -0.30375575708E+02  0.45666912863E+01 -0.12574466592E+03  0.12952737655E+03  0.47000000000E+01 0.  1.
         11    1    6    6    0    0  0.39528922829E+02 -0.81507004937E+02 -0.30192171604E+02  0.95485573884E+02  0.00000000000E+00 0. -1.
        -12    1    6    6    0    0  0.96541340138E+00 -0.35017797430E+02 -0.86458066993E+02  0.93285451749E+02  0.00000000000E+00 0.  1.
</event>
<event>
12    1  0.8416569E-002  0.3012849E+03  0.7818608E-02  0.1084951E+00
         21   -1    0    0  503  502  0.00000000000E+00  0.00000000000E+00  0.59091026037E+03  0.59091026037E+03  0.00000000000E+00 0.  1.
         21   -1    0    0  501  503 -0.00000000000E+00 -0.00000000000E+00 -0.41057881467E+03  0.41057881467E+03  0.00000000000E+00 0. -1.
          6    2    1    2  501    0  0.19237234301E+03  0.15309765588E+03 -0.30691977435E+03  0.43008412401E+03  0.17414532794E+03 0.  0.
         24    2    3    3    0    0  0.18446392750E+03  0.16275430840E+03 -0.21320158954E+03  0.33542165976E+03  0.80850891158E+02 0.  0.
         -6    2    1    2    0  502 -0.19237234301E+03 -0.15309765588E+03  0.48725122005E+03  0.57140495102E+03  0.16924495861E+03 0.  0.
        -24    2    5    5    0    0 -0.20638556029E+03 -0.16471876141E+03  0.42778522121E+03  0.50903736833E+03  0.79947339004E+02 0.  0.
          5    1    3    3  501    0  0.79084155130E+01 -0.96566525160E+01 -0.93718184810E+02  0.94662464250E+02  0.47000000000E+01 0. -1.
        -11    1    4    4    0    0  0.77956031642E+02  0.11289827526E+03 -0.14435507149E+03  0.19915207779E+03  0.00000000000E+00 0.  1.
         12    1    4    4    0    0  0.10650789586E+03  0.49856033143E+02 -0.68846518055E+02  0.13626958197E+03  0.00000000000E+00 0. -1.
         -5    1    5    5    0  502  0.14013217280E+02  0.11621105529E+02  0.59465998847E+02  0.62367582694E+02  0.47000000000E+01 0.  1.
         11    1    6    6    0    0 -0.89711532691E+02 -0.32438486514E+02  0.11016542326E+03  0.14572863475E+03  0.00000000000E+00 0. -1.
        -12    1    6    6    0    0 -0.11667402760E+03 -0.13228027490E+03  0.31761979795E+03  0.36330873358E+03  0.00000000000E+00 0.  1.
</event>
<event>
12    1  0.8416569E-002  0.1879165E+03  0.7818608E-02  0.1160815E+00
         21   -1    0    0  501  502  0.00000000000E+00  0.00000000000E+00  0.24281654822E+03  0.24281654822E+03  0.00000000000E+00 0. -1.
         21   -1    0    0  502  503 -0.00000000000E+00 -0.00000000000E+00 -0.17499124947E+03  0.17499124947E+03  0.00000000000E+00 0. -1.
         -6    2    1    2    0  503  0.76219693502E+02  0.43612059427E+01 -0.54313567481E+02  0.19368611130E+03  0.16951661955E+03 0.  0.
        -24    2    3    3    0    0  0.89118677036E+02 -0.47716939200E+02 -0.56939394722E+02  0.13976485440E+03  0.77929936287E+02 0.  0.
          6    2    1    2  501    0 -0.76219693502E+02 -0.43612059427E+01  0.12213886623E+03  0.22412168638E+03  0.17170953924E+03 0.  0.
         24    2    5    5    0    0 -0.10025437983E+03  0.13891048807E+02  0.37191753589E+02  0.13385035706E+03  0.79301889252E+02 0.  0.
          5    1    5    5  501    0  0.24034686326E+02 -0.18252254750E+02  0.84947112645E+02  0.90271329319E+02  0.47000000000E+01 0. -1.
        -11    1    6    6    0    0 -0.62720401958E+01 -0.25568157884E+02  0.11526065436E+02  0.28738812958E+02  0.00000000000E+00 0.  1.
         12    1    6    6    0    0 -0.93982339632E+02  0.39459206692E+02  0.25665688154E+02  0.10511154410E+03  0.00000000000E+00 0. -1.
         -5    1    3    3    0  503 -0.12898983535E+02  0.52078145142E+02  0.26258272409E+01  0.53921256907E+02  0.47000000000E+01 0.  1.
         13    1    4    4    0    0  0.99658698259E+02 -0.25630463696E+02 -0.42367062665E+02  0.11128227535E+03  0.00000000000E+00 0. -1.
        -14    1    4    4    0    0 -0.10540021223E+02 -0.22086475503E+02 -0.14572332058E+02  0.28482579047E+02  0.00000000000E+00 0.  1.
</event>
<event>
12    1  0.8416569E-002  0.2231034E+03  0.7818608E-02  0.1131753E+00
         21   -1    0    0  503  502  0.00000000000E+00  0.00000000000E+00  0.86520354490E+03  0.86520354490E+03  0.00000000000E+00 0. -1.
         21   -1    0    0  501  503 -0.00000000000E+00 -0.00000000000E+00 -0.64372075234E+02  0.64372075234E+02  0.00000000000E+00 0. -1.
          6    2    1    2  501    0  0.13964089115E+03 -0.21671101184E+02  0.55516316174E+03  0.59831534678E+03  0.17264386156E+03 0.  0.
         24    2    3    3    0    0  0.97853955711E+02 -0.81421950379E+02  0.37624509298E+03  0.40505366594E+03  0.79392516329E+02 0.  0.
         -6    2    1    2    0  502 -0.13964089115E+03  0.21671101184E+02  0.24566830793E+03  0.33126027336E+03  0.17149704392E+03 0.  0.
        -24    2    5    5    0    0 -0.15580800120E+03  0.28814790549E+02  0.25497881016E+03  0.31073752508E+03  0.80232103735E+02 0.  0.
          5    1    3    3  501    0  0.41786935443E+02  0.59750849194E+02  0.17891806876E+03  0.19326168084E+03  0.47000000000E+01 0. -1.
        -11    1    4    4    0    0  0.32090681064E+02 -0.43298175348E+02  0.26430416099E+03  0.26974290225E+03  0.00000000000E+00 0.  1.
         12    1    4    4    0    0  0.65763274647E+02 -0.38123775031E+02  0.11194093199E+03  0.13531076369E+03  0.00000000000E+00 0. -1.
         -5    1    5    5    0  502  0.16167110048E+02 -0.71436893643E+01 -0.93105022284E+01  0.20522748276E+02  0.47000000000E+01 0.  1.
         13    1    6    6    0    0 -0.96324245677E+02 -0.16182042970E+02  0.10605377278E+03  0.14417913005E+03  0.00000000000E+00 0. -1.
        -14    1    6    6    0    0 -0.59483755526E+02  0.44996833519E+02  0.14892503738E+03  0.16655839503E+03  0.00000000000E+00 0.  1.
</event>
<event>
12    1  0.8416569E-002  0.2043193E+03  0.7818608E-02  0.1146594E+00
         21   -1    0    0  501  502  0.00000000000E+00  0.00000000000E+00  0.29593528577E+03  0.29593528577E+03  0.00000000000E+00 0.  1.
         21   -1    0    0  502  503 -0.00000000000E+00 -0.00000000000E+00 -0.23639471727E+03  0.23639471727E+03  0.00000000000E+00 0.  1.
         -6    2    1    2    0  503  0.80732083619E+02  0.64468362300E+02 -0.14066860998E+03  0.24627037566E+03  0.17374579429E+03 0.  0.
        -24    2    3    3    0    0  0.61206652403E+02  0.12491754498E+01 -0.10423249520E+02  0.10010659092E+03  0.78516690433E+02 0.  0.
          6    2    1    2  501    0 -0.80732083619E+02 -0.64468362300E+02  0.20020917848E+03  0.28605962738E+03  0.17627409396E+03 0.  0.
         24    2    5    5    0    0  0.32062843167E+01 -0.84401133748E+02  0.11555953061E+03  0.16510253633E+03  0.82286151633E+02 0.  0.
          5    1    5    5  501    0 -0.83938367936E+02  0.19932771448E+02  0.84649647870E+02  0.12095709104E+03  0.47000000000E+01 0. -1.
        -11    1    6    6    0    0 -0.21607442394E+02 -0.31863874391E+02  0.96593318641E+02  0.10398296622E+03  0.00000000000E+00 0.  1.
         12    1    6    6    0    0  0.24813726710E+02 -0.52537259357E+02  0.18966211973E+02  0.61119570112E+02  0.00000000000E+00 0. -1.
         -5    1    3    3    0  503  0.19525431217E+02  0.63219186851E+02 -0.13024536046E+03  0.14616378475E+03  0.47000000000E+01 0.  1.
         13    1    4    4    0    0 -0.15912302638E+02 -0.95654376207E+01  0.77857619800E+01  0.20132487718E+02  0.00000000000E+00 0. -1.
        -14    1    4    4    0    0  0.77118955041E+02  0.10814613071E+02 -0.18209011500E+02  0.79974103197E+02  0.00000000000E+00 0.  1.
</event>
<event>
12    1  0.8416569E-002  0.2325551E+03  0.7818608E-02  0.1125114E+00
         21   -1    0    0  503  502  0.00000000000E+00  0.00000000000E+00  0.63048730698E+03  0.63048730698E+03  0.00000000000E+00 0. -1.
         21   -1    0    0  501  503 -0.00000000000E+00 -0.00000000000E+00 -0.35486322001E+03  0.35486322001E+03  0.00000000000E+00 0. -1.
          6    2    1    2  501    0  0.11412220196E+03 -0.10711988391E+03 -0.29174884362E+03  0.37216708067E+03  0.16997765051E+03 0.  0.
         24    2    3    3    0    0  0.30087992877E+02 -0.26584781341E+02 -0.46128819686E+02  0.10032349108E+03  0.79529220688E+02 0.  0.
         -6    2    1    2    0  502 -0.11412220196E+03  0.10711988391E+03  0.56737293059E+03  0.61318344632E+03  0.17199811036E+03 0.  0.
        -24    2    5    5    0    0 -0.10502828231E+03  0.23416529930E+02  0.44477364015E+03  0.46438281843E+03  0.79047688952E+02 0.  0.
          5    1    3    3  501    0  0.84034209083E+02 -0.80535102568E+02 -0.24562002393E+03  0.27184358959E+03  0.47000000000E+01 0. -1.
        -13    1    4    4    0    0 -0.76924966520E+01 -0.42367312782E+02 -0.40280516005E+02  0.58963409558E+02  0.00000000000E+00 0.  1.
         14    1    4    4    0    0  0.37780489529E+02  0.15782531442E+02 -0.58483036809E+01  0.41360081525E+02  0.00000000000E+00 0. -1.
         -5    1    5    5    0  502 -0.90939196484E+01  0.83703353978E+02  0.12259929044E+03  0.14880062788E+03  0.47000000000E+01 0.  1.
         11    1    6    6    0    0 -0.71106793908E+02 -0.14063211852E+01  0.14314509222E+03  0.15983951735E+03  0.00000000000E+00 0. -1.
        -12    1    6    6    0    0 -0.33921488404E+02  0.24822851116E+02  0.30162854792E+03  0.30454330108E+03  0.00000000000E+00 0.  1.
</event>
<event>
12    1  0.8416569E-002  0.1817377E+03  0.7818608E-02  0.1167485E+00
         21   -1    0    0  501  502  0.00000000000E+00  0.00000000000E+00  0.49127405482E+03  0.49127405482E+03  0.00000000000E+00 0. -1.
         21   -1    0    0  502  503 -0.00000000000E+00 -0.00000000000E+00 -0.77986144395E+02  0.77986144395E+02  0.00000000000E+00 0. -1.
         -6    2    1    2    0  503  0.39676999359E+02 -0.59049655206E+01  0.94029317504E+02  0.20462184241E+03  0.17725533263E+03 0.  0.
        -24    2    3    3    0    0  0.39252054547E+02 -0.68438487114E+02  0.84215358744E+02  0.14114723577E+03  0.81275858739E+02 0.  0.
          6    2    1    2  501    0 -0.39676999359E+02  0.59049655206E+01  0.31925859293E+03  0.36463835681E+03  0.17153993472E+03 0.  0.
         24    2    5    5    0    0  0.22137224875E+02 -0.47348589498E+02  0.15979335612E+03  0.18545077022E+03  0.78269571745E+02 0.  0.
          5    1    5    5  501    0 -0.61814224234E+02  0.53253555019E+02  0.15946523680E+03  0.17918758659E+03  0.47000000000E+01 0. -1.
        -11    1    6    6    0    0  0.34509503269E+02 -0.22671510380E+02  0.15090225975E+03  0.15644933748E+03  0.00000000000E+00 0.  1.
         12    1    6    6    0    0 -0.12372278394E+02 -0.24677079118E+02  0.88910963731E+01  0.29001432744E+02  0.00000000000E+00 0. -1.
         -5    1    3    3    0  503  0.42494481196E+00  0.62533521593E+02  0.98139587609E+01  0.63474606635E+02  0.47000000000E+01 0.  1.
         11    1    4    4    0    0  0.16633366866E+02 -0.15019746642E+02  0.79892490074E+02  0.82976331882E+02  0.00000000000E+00 0. -1.
        -12    1    4    4    0    0  0.22618687681E+02 -0.53418740472E+02  0.43228686699E+01  0.58170903892E+02  0.00000000000E+00 0.  1.
</event>
<event>
12    1  0.8416569E-002  0.1845489E+03  0.7818608E-02  0.1163674E+00
         21   -1    0    0  503  502  0.00000000000E+00  0.00000000000E+00  0.20686988571E+03  0.20686988571E+03  0.00000000000E+00 0.  1.
         21   -1    0    0  501  503 -0.00000000000E+00 -0.00000000000E+00 -0.19020382057E+03  0.19020382057E+03  0.00000000000E+00 0.  1.
          6    2    1    2  501    0 -0.61474347424E+02 -0.10659582507E+02 -0.65525154222E+02  0.19583623368E+03  0.17368236092E+03 0.  0.
         24    2    3    3    0    0 -0.10618374745E+02  0.57245291882E+02 -0.29393171491E+02  0.10350524160E+03  0.80371656588E+02 0.  0.
         -6    2    1    2    0  502  0.61474347424E+02  0.10659582507E+02  0.82191219360E+02  0.20123747260E+03  0.17276690003E+03 0.  0.
        -24    2    5    5    0    0 -0.25453128643E+02  0.20070533718E+02  0.76507032826E+02  0.11349152070E+03  0.77306604615E+02 0.  0.
          5    1    3    3  501    0 -0.50855972679E+02 -0.67904874389E+02 -0.36131982731E+02  0.92330992083E+02  0.47000000000E+01 0. -1.
        -13    1    4    4    0    0 -0.39529976811E+02  0.21572230656E+02 -0.35285952330E+02  0.57210826196E+02  0.00000000000E+00 0.  1.
         14    1    4    4    0    0  0.28911602066E+02  0.35673061226E+02  0.58927808389E+01  0.46294415401E+02  0.00000000000E+00 0. -1.
         -5    1    5    5    0  502  0.86927476067E+02 -0.94109512106E+01  0.56841865338E+01  0.87745951898E+02  0.47000000000E+01 0.  1.
         11    1    6    6    0    0 -0.23344940398E+02  0.37980726870E+01 -0.98269313938E+01  0.25612110006E+02  0.00000000000E+00 0. -1.
        -12    1    6    6    0    0 -0.21081882446E+01  0.16272461031E+02  0.86333964220E+02  0.87879410692E+02  0.00000000000E+00 0.  1.
</event>
<event>
12    1  0.8416569E-002  0.1833596E+03  0.7818608E-02  0.1164704E+00
         21   -1    0    0  501  502  0.00000000000E+00  0.00000000000E+00  0.15343181394E+03  0.15343181394E+03  0.00000000000E+00 0. -1.
         21   -1    0    0  502  503 -0.00000000000E+00 -0.00000000000E+00 -0.25877321523E+03  0.25877321523E+03  0.00000000000E+00 0. -1.
         -6    2    1    2    0  503  0.59731611845E+02  0.29665127656E+02 -0.13386582027E+03  0.22663996014E+03  0.17028719401E+03 0.  0.
        -24    2    3    3    0    0  0.61917352573E+02  0.82150744345E+02 -0.10290282110E+03  0.16548184752E+03  0.78820986559E+02 0.  0.
          6    2    1    2  501    0 -0.59731611845E+02 -0.29665127656E+02  0.28524418985E+02  0.18556506903E+03  0.17080066485E+03 0.  0.
         24    2    5    5    0    0  0.47872521728E+01  0.10665321230E+02 -0.33724793666E+02  0.87146151150E+02  0.79501088622E+02 0.  0.
          5    1    5    5  501    0 -0.64518864018E+02 -0.40330448887E+02  0.62249212651E+02  0.98418917883E+02  0.47000000000E+01 0. -1.
        -13    1    6    6    0    0  0.22532178189E+02  0.40087793406E+02 -0.19998346297E+02  0.50146426480E+02  0.00000000000E+00 0.  1.
         14    1    6    6    0    0 -0.17744926016E+02 -0.29422472176E+02 -0.13726447370E+02  0.36999724670E+02  0.00000000000E+00 0. -1.
         -5    1    3    3    0  503 -0.21857407282E+01 -0.52485616688E+02 -0.30962999165E+02  0.61158112618E+02  0.47000000000E+01 0.  1.
         11    1    4    4    0    0  0.57017281035E+02  0.11235860379E+02 -0.39865158638E+02  0.70473014469E+02  0.00000000000E+00 0. -1.
        -12    1    4    4    0    0  0.49000715381E+01  0.70914883966E+02 -0.63037662467E+02  0.95008833054E+02  0.00000000000E+00 0.  1.
</event>
<event>
12    1  0.8416569E-002  0.1739638E+03  0.7818608E-02  0.1174039E+00
         21   -1    0    0  501  502  0.00000000000E+00  0.00000000000E+00  0.13384578678E+03  0.13384578678E+03  0.00000000000E+00 0.  1.
         21   -1    0    0  502  503 -0.00000000000E+00 -0.00000000000E+00 -0.63477216512E+03  0.63477216512E+03  0.00000000000E+00 0.  1.
         -6    2    1    2    0  503 -0.64097967508E+00  0.20566565305E+02 -0.55906286080E+03  0.58519696491E+03  0.17169976979E+03 0.  0.
        -24    2    3    3    0    0 -0.59260948083E+02  0.36229990224E+02 -0.42843276061E+03  0.44108604702E+03  0.78598971738E+02 0.  0.
          6    2    1    2  501    0  0.64097967508E+00 -0.20566565305E+02  0.58136482465E+02  0.18342098699E+03  0.17274262187E+03 0.  0.
         24    2    5    5    0    0  0.47326149479E+02 -0.34561849551E+02 -0.13829347576E+02  0.96377642875E+02  0.75253659864E+02 0.  0.
          5    1    5    5  501    0 -0.46685169804E+02  0.13995284246E+02  0.71965830041E+02  0.87043344112E+02  0.47000000000E+01 0. -1.
        -11    1    6    6    0    0  0.55676140024E+02 -0.41727999098E+01  0.10187468271E+02  0.56754112951E+02  0.00000000000E+00 0.  1.
         12    1    6    6    0    0 -0.83499905458E+01 -0.30389049641E+02 -0.24016815847E+02  0.39623529924E+02  0.00000000000E+00 0. -1.
         -5    1    3    3    0  503  0.58619968408E+02 -0.15663424920E+02 -0.13063010020E+03  0.14411091789E+03  0.47000000000E+01 0.  1.
         13    1    4    4    0    0  0.75576669268E+01  0.23500419691E+02 -0.42040697991E+02  0.48752521397E+02  0.00000000000E+00 0. -1.
        -14    1    4    4    0    0 -0.66818615010E+02  0.12729570534E+02 -0.38639206261E+03  0.39233352563E+03  0.00000000000E+00 0.  1.
</event>
<event>
12    1  0.8416569E-002  0.2751528E+03  0.7818608E-02  0.1100364E+00
         21   -1    0    0  503  502  0.00000000000E+00  0.00000000000E+00  0.12784302124E+03  0.12784302124E+03  0.00000000000E+00 0. -1.
         21   -1    0    0  501  503 -0.00000000000E+00 -0.00000000000E+00 -0.56497619923E+03  0.56497619923E+03  0.00000000000E+00 0.  1.
          6    2    1    2  501    0 -0.47102520267E+02  0.18940992152E+03 -0.19061505943E+03  0.32338686868E+03  0.17363812994E+03 0.  0.
         24    2    3    3    0    0 -0.36591284156E+02  0.19874798471E+03 -0.11419640223E+03  0.24554352165E+03  0.80069465078E+02 0.  0.
         -6    2    1    2    0  502  0.47102520267E+02 -0.18940992152E+03 -0.24651811856E+03  0.36943235178E+03  0.19394410014E+03 0.  0.
        -24    2    5    5    0    0  0.86772082931E+02 -0.86936608402E+02 -0.20466782941E+03  0.25175486538E+03  0.80026393106E+02 0.  0.
          5    1    3    3  501    0 -0.10511236111E+02 -0.93380631923E+01 -0.76418657204E+02  0.77843347035E+02  0.47000000000E+01 0. -1.
        -13    1    4    4    0    0 -0.19407855424E+02  0.61732792847E+02 -0.80716886531E+02  0.10345442637E+03  0.00000000000E+00 0.  1.
         14    1    4    4    0    0 -0.17183428732E+02  0.13701519186E+03 -0.33479515699E+02  0.14208909527E+03  0.00000000000E+00 0. -1.
         -5    1    5    5    0  502 -0.39669562663E+02 -0.10247331312E+03 -0.41850289152E+02  0.11767748640E+03  0.47000000000E+01 0.  1.
         13    1    6    6    0    0  0.31067954570E+02 -0.16029413899E+02 -0.13019300098E+03  0.13480496065E+03  0.00000000000E+00 0. -1.
        -14    1    6    6    0    0  0.55704128361E+02 -0.70907194503E+02 -0.74474828431E+02  0.11694990474E+03  0.00000000000E+00 0.  1.
</event>
<event>
12    1  0.8416569E-002  0.1821751E+03  0.7818608E-02  0.1165821E+00
         21   -1    0    0  503  502  0.00000000000E+00  0.00000000000E+00  0.34447313832E+03  0.34447313832E+03  0.00000000000E+00 0. -1.
         21   -1    0    0  501  503 -0.00000000000E+00 -0.00000000000E+00 -0.10869600421E+03  0.10869600421E+03  0.00000000000E+00 0. -1.
          6    2    1    2  501    0 -0.25314172068E+01 -0.59423358196E+02  0.19486933488E+03  0.26645757237E+03  0.17172081010E+03 0.  0.
         24    2    3    3    0    0 -0.18723340694E+02 -0.90744247548E+02  0.80278235580E+02  0.14647262941E+03  0.80153316268E+02 0.  0.
         -6    2    1    2    0  502  0.25314172068E+01  0.59423358196E+02  0.40907799224E+02  0.18671157017E+03  0.17219238899E+03 0.  0.
        -24    2    5    5    0    0  0.42325494866E+02  0.62024854306E+02  0.75894591371E+02  0.13345274908E+03  0.80069452171E+02 0.  0.
          5    1    3    3  501    0  0.16191923487E+02  0.31320889353E+02  0.11459109930E+03  0.11998494295E+03  0.47000000000E+01 0. -1.
        -13    1    4    4    0    0  0.17355946545E+02 -0.54464861448E+02  0.76042529618E+02  0.95132099334E+02  0.00000000000E+00 0.  1.
         14    1    4    4    0    0 -0.36079287239E+02 -0.36279386101E+02  0.42357059619E+01  0.51340530076E+02  0.00000000000E+00 0. -1.
         -5    1    5    5    0  502 -0.39794077659E+02 -0.26014961098E+01 -0.34986792147E+02  0.53258821086E+02  0.47000000000E+01 0.  1.
         13    1    6    6    0    0  0.25836280029E+02  0.77742317327E+02  0.40565950544E+02  0.91416506238E+02  0.00000000000E+00 0. -1.
        -14    1    6    6    0    0  0.16489214837E+02 -0.15717463022E+02  0.35328640827E+02  0.42036242844E+02  0.00000000000E+00 0.  1.
</event>
<event>
12    1  0.8416569E-002  0.1922646E+03  0.7818608E-02  0.1156477E+00
         21   -1    0    0  501  502  0.00000000000E+00  0.00000000000E+00  0.12507779452E+03  0.12507779452E+03  0.00000000000E+00 0. -1.
         21   -1    0    0  502  503 -0.00000000000E+00 -0.00000000000E+00 -0.33782981987E+03  0.33782981987E+03  0.00000000000E+00 0. -1.
         -6    2    1    2    0  503  0.84806579638E+02 -0.20736390058E+02 -0.18850363993E+03  0.26911995454E+03  0.17108411335E+03 0.  0.
        -24    2    3    3    0    0  0.11570681019E+03  0.79773186875E+01 -0.10698735734E+03  0.17721622422E+03  0.80669647077E+02 0.  0.
          6    2    1    2  501    0 -0.84806579638E+02  0.20736390058E+02 -0.24248385423E+02  0.19378765985E+03  0.17129950115E+03 0.  0.
         24    2    5    5    0    0 -0.24862852556E+02  0.72804474952E+02  0.22146946921E+01  0.10996212383E+03  0.78537321024E+02 0.  0.
          5    1    5    5  501    0 -0.59943727082E+02 -0.52068084893E+02 -0.26463080115E+02  0.83825536026E+02  0.47000000000E+01 0. -1.
        -11    1    6    6    0    0 -0.65184460444E+00  0.34610039853E+02 -0.36592822742E+02  0.50371762290E+02  0.00000000000E+00 0.  1.
         12    1    6    6    0    0 -0.24211007952E+02  0.38194435098E+02  0.38807517434E+02  0.59590361536E+02  0.00000000000E+00 0. -1.
         -5    1    3    3    0  503 -0.30900230551E+02 -0.28713708746E+02 -0.81516282595E+02  0.91903730316E+02  0.47000000000E+01 0.  1.
         11    1    4    4    0    0  0.80286376437E+02  0.77726391631E+01 -0.19724410556E+02  0.83038355792E+02  0.00000000000E+00 0. -1.
        -12    1    4    4    0    0  0.35420433751E+02  0.20467952436E+00 -0.87262946779E+02  0.94177868427E+02  0.00000000000E+00 0.  1.
</event>
<event>
12    1  0.8416569E-002  0.2038304E+03  0.7818608E-02  0.1146947E+00
         21   -1    0    0  503  502  0.00000000000E+00  0.00000000000E+00  0.68119264880E+02  0.68119264880E+02  0.00000000000E+00 0.  1.
         21   -1    0    0  501  503 -0.00000000000E+00 -0.00000000000E+00 -0.81350869464E+03  0.81350869464E+03  0.00000000000E+00 0. -1.
          6    2    1    2  501    0 -0.81911854921E+02 -0.71688508151E+02 -0.14774281764E+03  0.25017859843E+03  0.17003704529E+03 0.  0.
         24    2    3    3    0    0 -0.12225173663E+03 -0.58645102585E+02 -0.10065473524E+03  0.18664267167E+03  0.79494502920E+02 0.  0.
         -6    2    1    2    0  502  0.81911854921E+02  0.71688508151E+02 -0.59764661212E+03  0.63144936109E+03  0.17233115930E+03 0.  0.
        -24    2    5    5    0    0  0.10849467881E+03  0.52082779383E+02 -0.38050217734E+03  0.41175678798E+03  0.10138064039E+03 0.  0.
          5    1    3    3  501    0  0.40339881712E+02 -0.13043405566E+02 -0.47088082396E+02  0.63535926759E+02  0.47000000000E+01 0. -1.
        -11    1    4    4    0    0 -0.73330343956E+02 -0.74178100631E+02 -0.54850100685E+02  0.11784847688E+03  0.00000000000E+00 0.  1.
         12    1    4    4    0    0 -0.48921392678E+02  0.15532998046E+02 -0.45804634560E+02  0.68794194791E+02  0.00000000000E+00 0. -1.
         -5    1    5    5    0  502 -0.26582823887E+02  0.19605728768E+02 -0.21714443478E+03  0.21969257312E+03  0.47000000000E+01 0.  1.
         11    1    6    6    0    0  0.10626240998E+03  0.31461278845E+02 -0.37391765374E+03  0.38999477383E+03  0.00000000000E+00 0. -1.
        -12    1    6    6    0    0  0.22322688315E+01  0.20621500537E+02 -0.65845236064E+01  0.21762014146E+02  0.00000000000E+00 0.  1.
</event>
<event>
12    1  0.8416569E-002  0.2040437E+03  0.7818608E-02  0.1146464E+00
         21   -1    0    0  503  502  0.00000000000E+00  0.00000000000E+00  0.70870648823E+03  0.70870648823E+03  0.00000000000E+00 0.  1.
         21   -1    0    0  501  503 -0.00000000000E+00 -0.00000000000E+00 -0.67461574653E+02  0.67461574653E+02  0.00000000000E+00 0.  1.
          6    2    1    2  501    0 -0.87265741981E+02 -0.64152501708E+02  0.17979587961E+03  0.27161970213E+03  0.17239446354E+03 0.  0.
         24    2    3    3    0    0 -0.11281367303E+03 -0.17053671291E+02  0.86485452053E+02  0.16391676578E+03  0.79819923317E+02 0.  0.
         -6    2    1    2    0  502  0.87265741981E+02  0.64152501708E+02  0.46144903397E+03  0.50454836075E+03  0.17292479346E+03 0.  0.
        -24    2    5    5    0    0  0.42990893687E+02 -0.20667552890E+02  0.13508490792E+03  0.16441553872E+03  0.80679441884E+02 0.  0.
          5    1    3    3  501    0  0.25547931053E+02 -0.47098830417E+02  0.93310427553E+02  0.10770293635E+03  0.47000000000E+01 0. -1.
        -11    1    4    4    0    0 -0.32648840584E+02  0.30293142559E+02  0.16710334966E+02  0.47569492033E+02  0.00000000000E+00 0.  1.
         12    1    4    4    0    0 -0.80164832450E+02 -0.47346813850E+02  0.69775117087E+02  0.11634727375E+03  0.00000000000E+00 0. -1.
         -5    1    5    5    0  502  0.44274848294E+02  0.84820054598E+02  0.32636412605E+03  0.34013282203E+03  0.47000000000E+01 0.  1.
         13    1    6    6    0    0  0.61473054863E+01 -0.42827548424E+02  0.99873392472E+02  0.10884246778E+03  0.00000000000E+00 0. -1.
        -14    1    6    6    0    0  0.36843588201E+02  0.22159995534E+02  0.35211515446E+02  0.55573070939E+02  0.00000000000E+00 0.  1.
</event>
<event>
12    1  0.8416569E-002  0.2411587E+03  0.7818608E-02  0.1119092E+00
         21   -1    0    0  501  502  0.00000000000E+00  0.00000000000E+00  0.25617558762E+03  0.25617558762E+03  0.00000000000E+00 0.  1.
         21   -1    0    0  502  503 -0.00000000000E+00 -0.00000000000E+00 -0.26774585830E+03  0.26774585830E+03  0.00000000000E+00 0. -1.
         -6    2    1    2    0  503 -0.11719295713E+03 -0.12067128020E+03 -0.10843422440E+03  0.26403662153E+03  0.17222546102E+03 0.  0.
        -24    2    3    3    0    0 -0.13933674877E+03 -0.64978825997E+02 -0.11044809218E+03  0.20388562298E+03  0.75720464918E+02 0.  0.
          6    2    1    2  501    0  0.11719295713E+03  0.12067128020E+03  0.96863953725E+02  0.25988482439E+03  0.17280552466E+03 0.  0.
         24    2    5    5    0    0  0.93853366578E+02  0.15515053702E+03  0.68850583100E+02  0.20948249734E+03  0.79135139762E+02 0.  0.
          5    1    5    5  501    0  0.23339590556E+02 -0.34479256819E+02  0.28013370625E+02  0.50402327048E+02  0.47000000000E+01 0. -1.
        -13    1    6    6    0    0  0.88323018971E+02  0.10914696080E+03  0.80309544614E+02  0.16175177801E+03  0.00000000000E+00 0.  1.
         14    1    6    6    0    0  0.55303476067E+01  0.46003576218E+02 -0.11458961514E+02  0.47730719338E+02  0.00000000000E+00 0. -1.
         -5    1    3    3    0  503  0.22143791634E+02 -0.55692454204E+02  0.20138677790E+01  0.60150998551E+02  0.47000000000E+01 0.  1.
         13    1    4    4    0    0 -0.57901413786E+02 -0.19041827539E+02 -0.89145767186E+02  0.10799135485E+03  0.00000000000E+00 0. -1.
        -14    1    4    4    0    0 -0.81435334982E+02 -0.45936998458E+02 -0.21302324992E+02  0.95894268134E+02  0.00000000000E+00 0.  1.
</event>
<event>
12    1  0.8416569E-002  0.1946024E+03  0.7818608E-02  0.1154507E+00
         21   -1    0    0  503  502  0.00000000000E+00  0.00000000000E+00  0.17391316533E+04  0.17391316533E+04  0.00000000000E+00 0. -1.
         21   -1    0    0  501  503 -0.00000000000E+00 -0.00000000000E+00 -0.21723040264E+02  0.21723040264E+02  0.00000000000E+00 0.  1.
          6    2    1    2  501    0 -0.79089549605E+02 -0.39531225635E+02  0.83670791271E+03  0.85904028645E+03  0.17335572647E+03 0.  0.
         24    2    3    3    0    0 -0.96154678967E+02 -0.13068200046E+02  0.36316306269E+03  0.38442641672E+03  0.80496954164E+02 0.  0.
         -6    2    1    2    0  502  0.79089549605E+02  0.39531225635E+02  0.88070070036E+03  0.90181440715E+03  0.17267781172E+03 0.  0.
        -24    2    5    5    0    0  0.40761511163E+02 -0.51176713337E+01  0.19944433870E+03  0.21800530890E+03  0.77849721382E+02 0.  0.
          5    1    3    3  501    0  0.17065129362E+02 -0.26463025589E+02  0.47354485002E+03  0.47461386973E+03  0.47000000000E+01 0. -1.
        -11    1    4    4    0    0 -0.93231762597E+02  0.35154515287E+01  0.35216441187E+03  0.36431345424E+03  0.00000000000E+00 0.  1.
         12    1    4    4    0    0 -0.29229163693E+01 -0.16583651574E+02  0.10998650822E+02  0.20112962475E+02  0.00000000000E+00 0. -1.
         -5    1    5    5    0  502  0.38328038442E+02  0.44648896969E+02  0.68125636167E+03  0.68380909825E+03  0.47000000000E+01 0.  1.
         11    1    6    6    0    0 -0.20470556965E+02  0.90321588622E+01  0.31096190727E+02  0.38309224397E+02  0.00000000000E+00 0. -1.
        -12    1    6    6    0    0  0.61232068128E+02 -0.14149830196E+02  0.16834814797E+03  0.17969608451E+03  0.00000000000E+00 0.  1.
</event>
<event>
12    1  0.8416569E-002  0.3522855E+03  0.7818608E-02  0.1061746E+00
         21   -1    0    0  503  502  0.00000000000E+00  0.00000000000E+00  0.54216642826E+03  0.54216642826E+03  0.00000000000E+00 0.  1.
         21   -1    0    0  501  503 -0.00000000000E+00 -0.00000000000E+00 -0.38685178999E+03  0.38685178999E+03  0.00000000000E+00 0. -1.
          6    2    1    2  501    0  0.28696285895E+03 -0.10869440581E+03  0.37481530298E+03  0.51394523250E+03  0.17172953851E+03 0.  0.
         24    2    3    3    0    0  0.60495118112E+02 -0.97782869251E+01  0.72026429272E+02  0.12308051389E+03  0.78776469682E+02 0.  0.
         -6    2    1    2    0  502 -0.28696285895E+03  0.10869440581E+03 -0.21950066471E+03  0.41507298575E+03  0.17304012662E+03 0.  0.
        -24    2    5    5    0    0 -0.18766121919E+03  0.12699752596E+03 -0.10351164557E+03  0.26121798120E+03  0.78581601812E+02 0.  0.
          5    1    3    3  501    0  0.22646774084E+03 -0.98916118888E+02  0.30278887370E+03  0.39086471861E+03  0.47000000000E+01 0. -1.
        -13    1    4    4    0    0  0.10400510524E+02 -0.21166158514E+02  0.67508829151E+02  0.71509572078E+02  0.00000000000E+00 0.  1.
         14    1    4    4    0    0  0.50094607588E+02  0.11387871589E+02  0.45176001210E+01  0.51570941814E+02  0.00000000000E+00 0. -1.
         -5    1    5    5    0  502 -0.99301639754E+02 -0.18303120144E+02 -0.11598901914E+03  0.15385500455E+03  0.47000000000E+01 0.  1.
         13    1    6    6    0    0 -0.54238280756E+02  0.54129420548E+02 -0.73660599145E+02  0.10629049409E+03  0.00000000000E+00 0. -1.
        -14    1    6    6    0    0 -0.13342293844E+03  0.72868105409E+02 -0.29851046423E+02  0.15492748710E+03  0.00000000000E+00 0.  1.
</event>
<event>
12    1  0.8416569E-002  0.2054827E+03  0.7818608E-02  0.1145341E+00
         21   -1    0    0  501  502  0.00000000000E+00  0.00000000000E+00  0.73780030046E+02  0.73780030046E+02  0.00000000000E+00 0. -1.
         21   -1    0    0  502  503 -0.00000000000E+00 -0.00000000000E+00 -0.10890970975E+04  0.10890970975E+04  0.00000000000E+00 0. -1.
         -6    2    1    2    0  503 -0.85865219457E+02 -0.72160670917E+02 -0.90849875935E+03  0.93128850737E+03  0.17131342585E+03 0.  0.
        -24    2    3    3    0    0 -0.10152639502E+02 -0.27570412917E+02 -0.70224015821E+03  0.70704447419E+03  0.76859904516E+02 0.  0.
          6    2    1    2  501    0  0.85865219457E+02  0.72160670917E+02 -0.10681830815E+03  0.23158862022E+03  0.17217183196E+03 0.  0.
         24    2    5    5    0    0  0.38828574447E+02  0.48514432529E+02 -0.13516001180E+03  0.17161418626E+03  0.85568053482E+02 0.  0.
          5    1    5    5  501    0  0.47036645009E+02  0.23646238388E+02  0.28341703653E+02  0.59974433966E+02  0.47000000000E+01 0. -1.
        -13    1    6    6    0    0 -0.23351906538E+02  0.26736543978E+02 -0.25586733341E+02  0.43758830490E+02  0.00000000000E+00 0.  1.
         14    1    6    6    0    0  0.62180480985E+02  0.21777888552E+02 -0.10957327846E+03  0.12785535576E+03  0.00000000000E+00 0. -1.
         -5    1    3    3    0  503 -0.75712579955E+02 -0.44590258001E+02 -0.20625860114E+03  0.22424403318E+03  0.47000000000E+01 0.  1.
         11    1    4    4    0    0 -0.34758075727E+02 -0.31634827133E+01 -0.54085548797E+03  0.54198043352E+03  0.00000000000E+00 0. -1.
        -12    1    4    4    0    0  0.24605436226E+02 -0.24406930203E+02 -0.16138467024E+03  0.16506404067E+03  0.00000000000E+00 0.  1.
</event>
<event>
12    1  0.8416569E-002  0.1902583E+03  0.7818608E-02  0.1158242E+00
         21   -1    0    0  503  502  0.00000000000E+00  0.00000000000E+00  0.22923833169E+03  0.22923833169E+03  0.00000000000E+00 0. -1.
         21   -1    0    0  501  503 -0.00000000000E+00 -0.00000000000E+00 -0.17387867030E+03  0.17387867030E+03  0.00000000000E+00 0. -1.
          6    2    1    2  501    0 -0.77721752265E+01 -0.80718188039E+02 -0.33499959477E+02  0.19318501690E+03  0.17211150712E+03 0.  0.
         24    2    3    3    0    0  0.38977580644E+02 -0.10144973286E+03 -0.93807442817E+01  0.13644734717E+03  0.81966945146E+02 0.  0.
         -6    2    1    2    0  502  0.77721752265E+01  0.80718188039E+02  0.88859620860E+02  0.20993198509E+03  0.17204526601E+03 0.  0.
        -24    2    5    5    0    0 -0.49841205658E+02  0.58065827506E+02  0.97269137585E+02  0.14728024077E+03  0.79839827710E+02 0.  0.
          5    1    3    3  501    0 -0.46749755871E+02  0.20731544823E+02 -0.24119215196E+02  0.56737669730E+02  0.47000000000E+01 0. -1.
        -13    1    4    4    0    0  0.36327873667E+02 -0.15732080218E+02 -0.28254160080E+02  0.48636512159E+02  0.00000000000E+00 0.  1.
         14    1    4    4    0    0  0.26497069770E+01 -0.85717652644E+02  0.18873415798E+02  0.87810835014E+02  0.00000000000E+00 0. -1.
         -5    1    5    5    0  502  0.57613380884E+02  0.22652360533E+02 -0.84095167244E+01  0.62651744319E+02  0.47000000000E+01 0.  1.
         11    1    6    6    0    0  0.20783451466E+02  0.24859635411E+02  0.32030821725E+02  0.45562340458E+02  0.00000000000E+00 0. -1.
        -12    1    6    6    0    0 -0.70624657124E+02  0.33206192095E+02  0.65238315859E+02  0.10171790031E+03  0.00000000000E+00 0.  1.
</event>
<event>
12    1  0.8416569E-002  0.1844078E+03  0.7818608E-02  0.1163891E+00
         21   -1    0    0  501  502  0.00000000000E+00  0.00000000000E+00  0.46410189675E+03  0.46410189675E+03  0.00000000000E+00 0. -1.
         21   -1    0    0  502  503 -0.00000000000E+00 -0.00000000000E+00 -0.83423783363E+02  0.83423783363E+02  0.00000000000E+00 0.  1.
         -6    2    1    2    0  503 -0.60385180057E+02  0.95166339101E+01  0.93148351496E+02  0.20659830201E+03  0.17398076536E+03 0.  0.
        -24    2    3    3    0    0 -0.67145654101E+02  0.96128037126E+01 -0.90292389795E+01  0.10408945725E+03  0.78435598386E+02 0.  0.
          6    2    1    2  501    0  0.60385180057E+02 -0.95166339101E+01  0.28752976189E+03  0.34092737811E+03  0.17268809130E+03 0.  0.
         24    2    5    5    0    0  0.53202023397E+02  0.59879235317E+02  0.16028662875E+03  0.19573685039E+03  0.78772667411E+02 0.  0.
          5    1    5    5  501    0  0.71831566595E+01 -0.69395869227E+02  0.12724313314E+03  0.14519052771E+03  0.47000000000E+01 0. -1.
        -13    1    6    6    0    0  0.35003472498E+02 -0.75912596740E+01  0.88878075827E+02  0.95823706217E+02  0.00000000000E+00 0.  1.
         14    1    6    6    0    0  0.18198550899E+02  0.67470494991E+02  0.71408552921E+02  0.99913144178E+02  0.00000000000E+00 0. -1.
         -5    1    3    3    0  503  0.67604740444E+01 -0.96169802456E-01  0.10217759048E+03  0.10250884476E+03  0.47000000000E+01 0.  1.
         11    1    4    4    0    0 -0.35911857364E+02  0.14095669605E+02  0.33526739805E+02  0.51111561147E+02  0.00000000000E+00 0. -1.
        -12    1    4    4    0    0 -0.31233796738E+02 -0.44828658928E+01 -0.42555978784E+02  0.52977896103E+02  0.00000000000E+00 0.  1.
</event>
<event>
12    1  0.8416569E-002  0.1982190E+03  0.7818608E-02  0.1151368E+00
         21   -1    0    0  503  502  0.00000000000E+00  0.00000000000E+00  0.12581108878E+04  0.12581108878E+04  0.00000000000E+00 0.  1.
         21   -1    0    0  501  503 -0.00000000000E+00 -0.00000000000E+00 -0.31917110252E+02  0.31917110252E+02  0.00000000000E+00 0.  1.
          6    2    1    2  501    0 -0.32602448045E+02 -0.93099007195E+02  0.51349244459E+03  0.55042280738E+03  0.17193147322E+03 0.  0.
         24    2    3    3    0    0 -0.23793950024E+02 -0.74435639915E+02  0.51705553252E+03  0.52895896544E+03  0.79651408422E+02 0.  0.
         -6    2    1    2    0  502  0.32602448045E+02  0.93099007195E+02  0.71270133293E+03  0.73960519063E+03  0.17129595237E+03 0.  0.
        -24    2    5    5    0    0  0.49058214909E+02  0.22506592503E+02  0.58605715635E+03  0.59360889364E+03  0.77429147886E+02 0.  0.
          5    1    3    3  501    0 -0.88084980209E+01 -0.18663367279E+02 -0.35630879289E+01  0.21463841948E+02  0.47000000000E+01 0. -1.
        -13    1    4    4    0    0 -0.38644850235E+01 -0.39647077425E+02  0.73547550787E+02  0.83642496493E+02  0.00000000000E+00 0.  1.
         14    1    4    4    0    0 -0.19929465001E+02 -0.34788562490E+02  0.44350798173E+03  0.44531646894E+03  0.00000000000E+00 0. -1.
         -5    1    5    5    0  502 -0.16455766864E+02  0.70592414692E+02  0.12664417657E+03  0.14599629699E+03  0.47000000000E+01 0.  1.
         11    1    6    6    0    0  0.39969303538E+01  0.18148819521E+02  0.44662298661E+03  0.44700944875E+03  0.00000000000E+00 0. -1.
        -12    1    6    6    0    0  0.45061284555E+02  0.43577729822E+01  0.13943416974E+03  0.14659944489E+03  0.00000000000E+00 0.  1.
</event>
<event>
12    1  0.8416569E-002  0.1902769E+03  0.7818608E-02  0.1158843E+00
         21   -1    0    0  503  502  0.00000000000E+00  0.00000000000E+00  0.27453925803E+02  0.27453925803E+02  0.00000000000E+00 0.  1.
         21   -1    0    0  501  503 -0.00000000000E+00 -0.00000000000E+00 -0.14967722225E+04  0.14967722225E+04  0.00000000000E+00 0.  1.
          6    2    1    2  501    0  0.67466855839E+02 -0.32389579567E+02 -0.10065967382E+04  0.10239097179E+04  0.17191060350E+03 0.  0.
         24    2    3    3    0    0  0.76571838402E+02 -0.66346056667E+02 -0.50904993859E+03  0.52510028452E+03  0.79582806916E+02 0.  0.
         -6    2    1    2    0  502 -0.67466855839E+02  0.32389579567E+02 -0.46272155851E+03  0.50031643039E+03  0.17494121387E+03 0.  0.
        -24    2    5    5    0    0 -0.51696677071E+02 -0.42624224191E+02 -0.33610382180E+03  0.35222892065E+03  0.81302291515E+02 0.  0.
          5    1    3    3  501    0 -0.91049825633E+01  0.33956477100E+02 -0.49754679957E+03  0.49880943335E+03  0.47000000000E+01 0. -1.
        -11    1    4    4    0    0  0.24863698835E+02 -0.33523206409E+02 -0.37965827126E+03  0.38194556133E+03  0.00000000000E+00 0.  1.
         12    1    4    4    0    0  0.51708139568E+02 -0.32822850258E+02 -0.12939166733E+03  0.14315472319E+03  0.00000000000E+00 0. -1.
         -5    1    5    5    0  502 -0.15770178768E+02  0.75013803758E+02 -0.12661773670E+03  0.14808750974E+03  0.47000000000E+01 0.  1.
         11    1    6    6    0    0  0.19299768363E+02 -0.16830587965E+02 -0.13498996242E+03  0.13739737881E+03  0.00000000000E+00 0. -1.
        -12    1    6    6    0    0 -0.70996445434E+02 -0.25793636226E+02 -0.20111385938E+03  0.21483154184E+03  0.00000000000E+00 0.  1.
</event>
<event>
12    1  0.8416569E-002  0.2305666E+03  0.7818608E-02  0.1126325E+00
         21   -1    0    0  501  502  0.00000000000E+00  0.00000000000E+00  0.37828487898E+03  0.37828487898E+03  0.00000000000E+00 0.  1.
         21   -1    0    0  502  503 -0.00000000000E+00 -0.00000000000E+00 -0.44748058067E+03  0.44748058067E+03  0.00000000000E+00 0.  1.
         -6    2    1    2    0  503 -0.15152217254E+03  0.12897945915E+02 -0.37670645984E+03  0.44141687050E+03  0.17267243815E+03 0.  0.
        -24    2    3    3    0    0 -0.22157147201E+02 -0.32217163899E+02 -0.19001423679E+03  0.20979917027E+03  0.79883645637E+02 0.  0.
          6    2    1    2  501    0  0.15152217254E+03 -0.12897945915E+02  0.30751075815E+03  0.38434858914E+03  0.17330795082E+03 0.  0.
         24    2    5    5    0    0  0.61076301854E+02  0.19830720751E+01  0.26430861574E+03  0.28290690476E+03  0.80268456992E+02 0.  0.
          5    1    5    5  501    0  0.90445870684E+02 -0.14881017990E+02  0.43202142417E+02  0.10144168438E+03  0.47000000000E+01 0. -1.
        -13    1    6    6    0    0  0.65243158189E+02  0.30089990126E+02  0.17455977170E+03  0.18876755837E+03  0.00000000000E+00 0.  1.
         14    1    6    6    0    0 -0.41668563358E+01 -0.28106918051E+02  0.89748844034E+02  0.94139346394E+02  0.00000000000E+00 0. -1.
         -5    1    3    3    0  503 -0.12936502534E+03  0.45115109813E+02 -0.18669222305E+03  0.23161770023E+03  0.47000000000E+01 0.  1.
         13    1    4    4    0    0  0.36921280891E-01  0.21464145687E+02 -0.17268419060E+02  0.27548306846E+02  0.00000000000E+00 0. -1.
        -14    1    4    4    0    0 -0.22194068481E+02 -0.53681309586E+02 -0.17274581773E+03  0.18225086342E+03  0.00000000000E+00 0.  1.
</event>
<event>
12    1  0.8416569E-002  0.1896888E+03  0.7818608E-02  0.1160340E+00
         21   -1    0    0  501  502  0.00000000000E+00  0.00000000000E+00  0.27984462578E+03  0.27984462578E+03  0.00000000000E+00 0.  1.
         21   -1    0    0  502  503 -0.00000000000E+00 -0.00000000000E+00 -0.13412172378E+03  0.13412172378E+03  0.00000000000E+00 0. -1.
         -6    2    1    2    0  503 -0.35249868658E+02  0.52340998196E+02  0.14544738509E+02  0.18333771774E+03  0.17151978310E+03 0.  0.
        -24    2    3    3    0    0 -0.20872479480E+02 -0.36433168578E+02  0.10141338143E+02  0.93176517987E+02  0.82558952226E+02 0.  0.
          6    2    1    2  501    0  0.35249868658E+02 -0.52340998196E+02  0.13117816349E+03  0.23062863182E+03  0.17888466089E+03 0.  0.
         24    2    5    5    0    0 -0.13438644028E+02 -0.16851130888E+02  0.14714429895E+03  0.16812175675E+03  0.78415066251E+02 0.  0.
          5    1    5    5  501    0  0.48688512685E+02 -0.35489867308E+02 -0.15966135452E+02  0.62506875065E+02  0.47000000000E+01 0. -1.
        -11    1    6    6    0    0 -0.28141122009E+02 -0.38577617001E+02  0.57628829804E+02  0.74841414377E+02  0.00000000000E+00 0.  1.
         12    1    6    6    0    0  0.14702477981E+02  0.21726486113E+02  0.89515469142E+02  0.93280342374E+02  0.00000000000E+00 0. -1.
         -5    1    3    3    0  503 -0.14377389178E+02  0.88774166774E+02  0.44034003665E+01  0.90161199753E+02  0.47000000000E+01 0.  1.
         11    1    4    4    0    0 -0.19675759092E+02  0.77464255371E+01 -0.27800278642E+02  0.34928471152E+02  0.00000000000E+00 0. -1.
        -12    1    4    4    0    0 -0.11967203881E+01 -0.44179594115E+02  0.37941616784E+02  0.58248046835E+02  0.00000000000E+00 0.  1.
</event>
<event>
12    1  0.8416569E-002  0.1935908E+03  0.7818608E-02  0.1155901E+00
         21   -1    0    0  501  502  0.00000000000E+00  0.00000000000E+00  0.18271064665E+03  0.18271064665E+03  0.00000000000E+00 0. -1.
         21   -1    0    0  502  503 -0.00000000000E+00 -0.00000000000E+00 -0.44798804588E+03  0.44798804588E+03  0.00000000000E+00 0. -1.
         -6    2    1    2    0  503  0.49071424911E+01 -0.86676118627E+02 -0.36672329933E+03  0.41468466185E+03  0.17303340982E+03 0.  0.
        -24    2    3    3    0    0 -0.51293686292E+02 -0.63661154591E+02 -0.16400135271E+03  0.20300920421E+03  0.87364228638E+02 0.  0.
          6    2    1    2  501    0 -0.49071424911E+01  0.86676118627E+02  0.10144590009E+03  0.21601403068E+03  0.16980565720E+03 0.  0.
         24    2    5    5    0    0  0.43573677374E+02  0.42719572473E+02  0.64120773442E+01  0.10053206105E+03  0.79636381949E+02 0.  0.
          5    1    5    5  501    0 -0.48480819865E+02  0.43956546154E+02  0.95033822748E+02  0.11548196963E+03  0.47000000000E+01 0. -1.
        -13    1    6    6    0    0  0.16323742643E+02  0.50329086368E+02 -0.24775511891E+02  0.58423518363E+02  0.00000000000E+00 0.  1.
         14    1    6    6    0    0  0.27249934731E+02 -0.76095138942E+01  0.31187589235E+02  0.42108542682E+02  0.00000000000E+00 0. -1.
         -5    1    3    3    0  503  0.56200828783E+02 -0.23014964036E+02 -0.20272194662E+03  0.21167545764E+03  0.47000000000E+01 0.  1.
         13    1    4    4    0    0 -0.79944512439E+01 -0.12334637904E+02 -0.12395586326E+03  0.12482431887E+03  0.00000000000E+00 0. -1.
        -14    1    4    4    0    0 -0.43299235048E+02 -0.51326516687E+02 -0.40045489444E+02  0.78184885341E+02  0.00000000000E+00 0.  1.
</event>
<event>
12    1  0.8416569E-002  0.1758152E+03  0.7818608E-02  0.1172294E+00
         21   -1    0    0  503  502  0.00000000000E+00  0.00000000000E+00  0.65609769968E+03  0.65609769968E+03  0.00000000000E+00 0.  1.
         21   -1    0    0  501  503 -0.00000000000E+00 -0.00000000000E+00 -0.14011608583E+03  0.14011608583E+03  0.00000000000E+00 0.  1.
          6    2    1    2  501    0 -0.40344815854E+02  0.51333379110E+01 -0.67422987408E+02  0.18689292029E+03  0.16949645748E+03 0.  0.
         24    2    3    3    0    0 -0.68602472579E+02  0.16191659073E+02 -0.97373667124E+02  0.14399869170E+03  0.79281290952E+02 0.  0.
         -6    2    1    2    0  502  0.40344815854E+02 -0.51333379110E+01  0.58340460126E+03  0.60932086523E+03  0.17104658052E+03 0.  0.
        -24    2    5    5    0    0  0.89485164768E+02 -0.56134651027E+00  0.47435188710E+03  0.48952828840E+03  0.81365364438E+02 0.  0.
          5    1    3    3  501    0  0.28257656724E+02 -0.11058321162E+02  0.29950679716E+02  0.42894228585E+02  0.47000000000E+01 0. -1.
        -13    1    4    4    0    0 -0.30290627118E+02  0.42138359431E+02 -0.78330804480E+02  0.93962111285E+02  0.00000000000E+00 0.  1.
         14    1    4    4    0    0 -0.38311845460E+02 -0.25946700358E+02 -0.19042862644E+02  0.50036580416E+02  0.00000000000E+00 0. -1.
         -5    1    5    5    0  502 -0.49140348913E+02 -0.45719914007E+01  0.10905271416E+03  0.11979257683E+03  0.47000000000E+01 0.  1.
         11    1    6    6    0    0  0.52762590425E+02 -0.60354612510E+01  0.99000542165E+02  0.11234511600E+03  0.00000000000E+00 0. -1.
        -12    1    6    6    0    0  0.36722574343E+02  0.54741147407E+01  0.37535134493E+03  0.37718317240E+03  0.00000000000E+00 0.  1.
</event>
<event>
12    1  0.8416569E-002  0.2816055E+03  0.7818608E-02  0.1095102E+00
         21   -1    0    0  503  502  0.00000000000E+00  0.00000000000E+00  0.78373825361E+02  0.78373825361E+02  0.00000000000E+00 0.  1.
         21   -1    0    0  501  503 -0.00000000000E+00 -0.00000000000E+00 -0.10330068482E+04  0.10330068482E+04  0.00000000000E+00 0.  1.
          6    2    1    2  501    0 -0.10551744562E+03  0.19575565561E+03 -0.38640998321E+03  0.47813633254E+03  0.17276420155E+03 0.  0.
         24    2    3    3    0    0 -0.13468470044E+03  0.12416779459E+03 -0.31995550053E+03  0.37608811419E+03  0.74250505546E+02 0.  0.
         -6    2    1    2    0  502  0.10551744562E+03 -0.19575565561E+03 -0.56822303959E+03  0.63324434098E+03  0.16931262396E+03 0.  0.
        -24    2    5    5    0    0  0.81590328565E+02 -0.14761330662E+03 -0.25474511701E+03  0.31515521724E+03  0.77337353896E+02 0.  0.
          5    1    3    3  501    0  0.29167254820E+02  0.71587861022E+02 -0.66454482678E+02  0.10204821834E+03  0.47000000000E+01 0. -1.
        -13    1    4    4    0    0 -0.85992928428E+02  0.42779200148E+02 -0.20972925435E+03  0.23067553800E+03  0.00000000000E+00 0.  1.
         14    1    4    4    0    0 -0.48691772008E+02  0.81388594440E+02 -0.11022624618E+03  0.14541257619E+03  0.00000000000E+00 0. -1.
         -5    1    5    5    0  502  0.23927117052E+02 -0.48142348993E+02 -0.31347792258E+03  0.31808912374E+03  0.47000000000E+01 0.  1.
         13    1    6    6    0    0 -0.96516821394E+01 -0.39135868739E+02 -0.84520934398E+02  0.93640587042E+02  0.00000000000E+00 0. -1.
        -14    1    6    6    0    0  0.91242010704E+02 -0.10847743788E+03 -0.17022418261E+03  0.22151463020E+03  0.00000000000E+00 0.  1.
</event>
<event>
12    1  0.8416569E-002  0.2040883E+03  0.7818608E-02  0.1146869E+00
         21   -1    0    0  501  502  0.00000000000E+00  0.00000000000E+00  0.48785884214E+03  0.48785884214E+03  0.00000000000E+00 0.  1.
         21   -1    0    0  502  503 -0.00000000000E+00 -0.00000000000E+00 -0.12519361894E+03  0.12519361894E+03  0.00000000000E+00 0. -1.
         -6    2    1    2    0  503  0.10174722903E+03 -0.29112573499E+02  0.53690373523E+01  0.20157632109E+03  0.17147637187E+03 0.  0.
        -24    2    3    3    0    0  0.26030357302E+02  0.23584975810E+02  0.49148363817E+02  0.99356969723E+02  0.78882286868E+02 0.  0.
          6    2    1    2  501    0 -0.10174722903E+03  0.29112573499E+02  0.35729618585E+03  0.41147614000E+03  0.17450503951E+03 0.  0.
         24    2    5    5    0    0 -0.63926953058E+02  0.95316961632E+01  0.35415955496E+03  0.36851438392E+03  0.78716911966E+02 0.  0.
          5    1    5    5  501    0 -0.37820275974E+02  0.19580877336E+02  0.31366308899E+01  0.42961756078E+02  0.47000000000E+01 0. -1.
        -13    1    6    6    0    0 -0.79813129491E+02  0.88144464973E+01  0.23593490877E+03  0.24922502138E+03  0.00000000000E+00 0.  1.
         14    1    6    6    0    0  0.15886176433E+02  0.71724966584E+00  0.11822464619E+03  0.11928936254E+03  0.00000000000E+00 0. -1.
         -5    1    3    3    0  503  0.75716871730E+02 -0.52697549309E+02 -0.43779326465E+02  0.10221935136E+03  0.47000000000E+01 0.  1.
         11    1    4    4    0    0 -0.11518680856E+02  0.23387573882E+02 -0.11124371768E+02  0.28344492728E+02  0.00000000000E+00 0. -1.
        -12    1    4    4    0    0  0.37549038158E+02  0.19740192771E+00  0.60272735585E+02  0.71012476996E+02  0.00000000000E+00 0.  1.
</event>
<event>
12    1  0.8416569E-002  0.2007755E+03  0.7818608E-02  0.1149118E+00
         21   -1    0    0  501  502  0.00000000000E+00  0.00000000000E+00  0.41817420293E+03  0.41817420293E+03  0.00000000000E+00 0. -1.
         21   -1    0    0  502  503 -0.00000000000E+00 -0.00000000000E+00 -0.29021657577E+03  0.29021657577E+03  0.00000000000E+00 0.  1.
         -6    2    1    2    0  503 -0.12084657867E+02  0.10175824730E+03 -0.22552170869E+03  0.30194511560E+03  0.17265581917E+03 0.  0.
        -24    2    3    3    0    0  0.89178558200E+01  0.36286363105E+02 -0.28911802477E+02  0.93605924802E+02  0.80808096969E+02 0.  0.
          6    2    1    2  501    0  0.12084657867E+02 -0.10175824730E+03  0.35347933585E+03  0.40644566310E+03  0.17248088686E+03 0.  0.
         24    2    5    5    0    0  0.20693804069E+02 -0.26670552567E+02  0.66737001678E+02  0.10987267798E+03  0.80489912857E+02 0.  0.
          5    1    5    5  501    0 -0.86091462022E+01 -0.75087694735E+02  0.28674233417E+03  0.29657298513E+03  0.47000000000E+01 0. -1.
        -11    1    6    6    0    0 -0.16284297713E+00  0.25767611484E+02  0.39618936733E+02  0.47261574956E+02  0.00000000000E+00 0.  1.
         12    1    6    6    0    0  0.20856647046E+02 -0.52438164052E+02  0.27118064945E+02  0.62611103021E+02  0.00000000000E+00 0. -1.
         -5    1    3    3    0  503 -0.21002513687E+02  0.65471884197E+02 -0.19660990621E+03  0.20833919080E+03  0.47000000000E+01 0.  1.
         13    1    4    4    0    0  0.12893984976E+02 -0.22901970657E+02 -0.21236527488E+02  0.33789720453E+02  0.00000000000E+00 0. -1.
        -14    1    4    4    0    0 -0.39761291557E+01  0.59188333762E+02 -0.76752749894E+01  0.59816204349E+02  0.00000000000E+00 0.  1.
</event>
<event>
12    1  0.8416569E-002  0.2104692E+03  0.7818608E-02  0.1141511E+00
         21   -1    0    0  503  502  0.00000000000E+00  0.00000000000E+00  0.62327308233E+03  0.62327308233E+03  0.00000000000E+00 0.  1.
         21   -1    0    0  501  503 -0.00000000000E+00 -0.00000000000E+00 -0.17684501033E+03  0.17684501033E+03  0.00000000000E+00 0.  1.
          6    2    1    2  501    0 -0.68081132142E+02 -0.97196434918E+02 -0.86627922736E+02  0.22759978549E+03  0.17382484817E+03 0.  0.
         24    2    3    3    0    0 -0.10113700678E+03 -0.76121686014E+02 -0.10574036630E+03  0.18373395154E+03  0.80956375056E+02 0.  0.
         -6    2    1    2    0  502  0.68081132142E+02  0.97196434918E+02  0.53305599473E+03  0.57251830717E+03  0.17189046227E+03 0.  0.
        -24    2    5    5    0    0  0.19574322552E+02  0.32828574084E+02  0.44241192763E+03  0.45113227427E+03  0.79568497501E+02 0.  0.
          5    1    3    3  501    0  0.33055874633E+02 -0.21074748905E+02  0.19112443561E+02  0.43865833949E+02  0.47000000000E+01 0. -1.
        -11    1    4    4    0    0 -0.28255769639E+02 -0.62010470552E+02 -0.80170641609E+02  0.10521890872E+03  0.00000000000E+00 0.  1.
         12    1    4    4    0    0 -0.72881237137E+02 -0.14111215462E+02 -0.25569724688E+02  0.78515042820E+02  0.00000000000E+00 0. -1.
         -5    1    5    5    0  502  0.48506809590E+02  0.64367860834E+02  0.90644067096E+02  0.12138603291E+03  0.47000000000E+01 0.  1.
         11    1    6    6    0    0 -0.29183692004E+02  0.14670569424E+01  0.11679575603E+03  0.12039555125E+03  0.00000000000E+00 0. -1.
        -12    1    6    6    0    0  0.48758014556E+02  0.31361517141E+02  0.32561617160E+03  0.33073672301E+03  0.00000000000E+00 0.  1.
</event>
<event>
12    1  0.8416569E-002  0.1937607E+03  0.7818608E-02  0.1155595E+00
         21   -1    0    0  503  502  0.00000000000E+00  0.00000000000E+00  0.49198622882E+02  0.49198622882E+02  0.00000000000E+00 0. -1.
         21   -1    0    0  501  503 -0.00000000000E+00 -0.00000000000E+00 -0.77845954796E+03  0.77845954796E+03  0.00000000000E+00 0.  1.
          6    2    1    2  501    0  0.28289747870E+02  0.85264137886E+02 -0.43919454122E+03  0.48003649483E+03  0.17167675524E+03 0.  0.
         24    2    3    3    0    0  0.66138349043E+02  0.27276243115E+02 -0.16071344746E+03  0.19303663049E+03  0.79473604826E+02 0.  0.
         -6    2    1    2    0  502 -0.28289747870E+02 -0.85264137886E+02 -0.29006638386E+03  0.34762167601E+03  0.16921004563E+03 0.  0.
        -24    2    5    5    0    0  0.17271359129E+02 -0.11216382704E+03 -0.22346878518E+03  0.26243518707E+03  0.77813273428E+02 0.  0.
          5    1    3    3  501    0 -0.37848601173E+02  0.57987894771E+02 -0.27848109376E+03  0.28699986434E+03  0.47000000000E+01 0. -1.
        -11    1    4    4    0    0 -0.61851495371E+01 -0.18542844109E+02 -0.17783888570E+02  0.26426498729E+02  0.00000000000E+00 0.  1.
         12    1    4    4    0    0  0.72323498580E+02  0.45819087224E+02 -0.14292955889E+03  0.16661013176E+03  0.00000000000E+00 0. -1.
         -5    1    5    5    0  502 -0.45561106999E+02  0.26899689155E+02 -0.66597598682E+02  0.85186488940E+02  0.47000000000E+01 0.  1.
         11    1    6    6    0    0  0.27797697851E+02 -0.46049495347E+02 -0.39704317267E+02  0.66855821266E+02  0.00000000000E+00 0. -1.
        -12    1    6    6    0    0 -0.10526338722E+02 -0.66114331694E+02 -0.18376446791E+03  0.19557936580E+03  0.00000000000E+00 0.  1.
</event>
<event>
12    1  0.8416569E-002  0.1815134E+03  0.7818608E-02  0.1166448E+00
         21   -1    0    0  503  502  0.00000000000E+00  0.00000000000E+00  0.10174011969E+04  0.10174011969E+04  0.00000000000E+00 0. -1.
         21   -1    0    0  501  503 -0.00000000000E+00 -0.00000000000E+00 -0.36572018856E+02  0.36572018856E+02  0.00000000000E+00 0. -1.
          6    2    1    2  501    0  0.54808597902E+02 -0.17286785433E+02  0.31097694264E+03  0.36007470099E+03  0.17217524818E+03 0.  0.
         24    2    3    3    0    0  0.29474798195E+02 -0.76081324477E+02  0.16513394612E+03  0.20072957599E+03  0.79787285019E+02 0.  0.
         -6    2    1    2    0  502 -0.54808597902E+02  0.17286785433E+02  0.66985223543E+03  0.69389851479E+03  0.17172744733E+03 0.  0.
        -24    2    5    5    0    0 -0.60195770735E+02  0.70233299998E+02  0.39415666656E+03  0.41307385111E+03  0.81940719043E+02 0.  0.
          5    1    3    3  501    0  0.25333799707E+02  0.58794539045E+02  0.14584299652E+03  0.15934512501E+03  0.47000000000E+01 0. -1.
        -11    1    4    4    0    0  0.35215807434E+02 -0.10132292421E+02  0.10531344567E+03  0.11150667371E+03  0.00000000000E+00 0.  1.
         12    1    4    4    0    0 -0.57410092391E+01 -0.65949032057E+02  0.59820500453E+02  0.89222902277E+02  0.00000000000E+00 0. -1.
         -5    1    5    5    0  502  0.53871728328E+01 -0.52946514565E+02  0.27569556887E+03  0.28082466368E+03  0.47000000000E+01 0.  1.
         13    1    6    6    0    0 -0.15819336178E+02  0.14719234440E+02  0.26310882539E+03  0.26399462354E+03  0.00000000000E+00 0. -1.
        -14    1    6    6    0    0 -0.44376434557E+02  0.55514065558E+02  0.13104784117E+03  0.14907922757E+03  0.00000000000E+00 0.  1.
</event>
<event>
12    1  0.8416569E-002  0.1962661E+03  0.7818608E-02  0.1153085E+00
         21   -1    0    0  501  502  0.00000000000E+00  0.00000000000E+00  0.13276370839E+04  0.13276370839E+04  0.00000000000E+00 0. -1.
         21   -1    0    0  502  503 -0.00000000000E+00 -0.00000000000E+00 -0.60186821105E+02  0.60186821105E+02  0.00000000000E+00 0. -1.
         -6    2    1    2    0  503 -0.86038215269E+02  0.35632520137E+02  0.13291532147E+03  0.23643781726E+03  0.17194216403E+03 0.  0.
        -24    2    3    3    0    0 -0.11816160939E+02  0.47987967014E+02  0.13091494996E+03  0.16102122822E+03  0.79665834442E+02 0.  0.
          6    2    1    2  501    0  0.86038215269E+02 -0.35632520137E+02  0.11345349413E+04  0.11513860878E+04  0.17276613957E+03 0.  0.
         24    2    5    5    0    0  0.92376970851E+02 -0.22466132920E+02  0.44767052929E+03  0.46435017595E+03  0.78574494823E+02 0.  0.
          5    1    5    5  501    0 -0.63387555817E+01 -0.13166387217E+02  0.68686441205E+03  0.68703591181E+03  0.47000000000E+01 0. -1.
        -13    1    6    6    0    0  0.11576360604E+02 -0.39020189526E+02  0.15915095997E+03  0.16427299040E+03  0.00000000000E+00 0.  1.
         14    1    6    6    0    0  0.80800610247E+02  0.16554056606E+02  0.28851956932E+03  0.30007718555E+03  0.00000000000E+00 0. -1.
         -5    1    3    3    0  503 -0.74222054331E+02 -0.12355446877E+02  0.20003715119E+01  0.75416589042E+02  0.47000000000E+01 0.  1.
         13    1    4    4    0    0 -0.21635183635E+02 -0.81743377773E+01  0.84182971862E+02  0.87302197685E+02  0.00000000000E+00 0. -1.
        -14    1    4    4    0    0  0.98190226962E+01  0.56162304791E+02  0.46731978093E+02  0.73719030532E+02  0.00000000000E+00 0.  1.
</event>
<event>
12    1  0.8416569E-002  0.3405325E+03  0.7818608E-02  0.1066591E+00
         21   -1    0    0  503  502  0.00000000000E+00  0.00000000000E+00  0.19080375538E+03  0.19080375538E+03  0.00000000000E+00 0. -1.
         21   -1    0    0  501  503 -0.00000000000E+00 -0.00000000000E+00 -0.67541757373E+03  0.67541757373E+03  0.00000000000E+00 0.  1.
          6    2    1    2  501    0  0.28578676012E+03 -0.70178656710E+02 -0.10479787591E+03  0.35610117993E+03  0.17095712748E+03 0.  0.
         24    2    3    3    0    0  0.15251205537E+03  0.14535843887E+02 -0.96958428242E+02  0.19791698199E+03  0.79366095804E+02 0.  0.
         -6    2    1    2    0  502 -0.28578676012E+03  0.70178656710E+02 -0.37981594245E+03  0.51012014918E+03  0.17135723023E+03 0.  0.
        -24    2    5    5    0    0 -0.22072611968E+03 -0.13736413565E+02 -0.28957244832E+03  0.37069058207E+03  0.68195277280E+02 0.  0.
          5    1    3    3  501    0  0.13327470475E+03 -0.84714500597E+02 -0.78394476688E+01  0.15818419793E+03  0.47000000000E+01 0. -1.
        -13    1    4    4    0    0  0.73369185524E+02 -0.27911583151E+02 -0.67120864963E+02  0.10328264313E+03  0.00000000000E+00 0.  1.
         14    1    4    4    0    0  0.79142869847E+02  0.42447427037E+02 -0.29837563279E+02  0.94634338864E+02  0.00000000000E+00 0. -1.
         -5    1    5    5    0  502 -0.65060640433E+02  0.83915070275E+02 -0.90243494128E+02  0.13942956711E+03  0.47000000000E+01 0.  1.
         11    1    6    6    0    0 -0.16673055585E+03  0.19744268871E+02 -0.21013093148E+03  0.26896825607E+03  0.00000000000E+00 0. -1.
        -12    1    6    6    0    0 -0.53995563829E+02 -0.33480682435E+02 -0.79441516841E+02  0.10172232600E+03  0.00000000000E+00 0.  1.
</event>
<event>
12    1  0.8416569E-002  0.2170411E+03  0.7818608E-02  0.1136523E+00
         21   -1    0    0  503  502  0.00000000000E+00  0.00000000000E+00  0.54680607405E+03  0.54680607405E+03  0.00000000000E+00 0.  1.
         21   -1    0    0  501  503 -0.00000000000E+00 -0.00000000000E+00 -0.89402748678E+02  0.89402748678E+02  0.00000000000E+00 0.  1.
          6    2    1    2  501    0  0.12416990884E+03 -0.35433579167E+02  0.15936910494E+03  0.26752027649E+03  0.17174074045E+03 0.  0.
         24    2    3    3    0    0  0.95836710334E+02  0.17832479187E+02  0.16347482392E+03  0.20686559787E+03  0.81035086004E+02 0.  0.
         -6    2    1    2    0  502 -0.12416990884E+03  0.35433579167E+02  0.29803422043E+03  0.36868854624E+03  0.17445097530E+03 0.  0.
        -24    2    5    5    0    0 -0.34315000762E+02  0.31618995636E+02  0.97780604966E+02  0.14911610703E+03  0.10245626630E+03 0.  0.
          5    1    3    3  501    0  0.28333198502E+02 -0.53266058354E+02 -0.41057189883E+01  0.60654678619E+02  0.47000000000E+01 0. -1.
        -11    1    4    4    0    0  0.55163002013E+02 -0.13102070967E+02  0.30436287377E+02  0.64350513938E+02  0.00000000000E+00 0.  1.
         12    1    4    4    0    0  0.40673708320E+02  0.30934550153E+02  0.13303853655E+03  0.14251508393E+03  0.00000000000E+00 0. -1.
         -5    1    5    5    0  502 -0.89854908074E+02  0.38145835311E+01  0.20025361547E+03  0.21957243921E+03  0.47000000000E+01 0.  1.
         13    1    6    6    0    0 -0.19279014929E+02  0.48314691509E+02  0.34354801564E+01  0.52132450126E+02  0.00000000000E+00 0. -1.
        -14    1    6    6    0    0 -0.15035985834E+02 -0.16695695873E+02  0.94345124810E+02  0.96983656902E+02  0.00000000000E+00 0.  1.
</event>
<event>
12    1  0.8416569E-002  0.2040927E+03  0.7818608E-02  0.1146473E+00
         21   -1    0    0  501  502  0.00000000000E+00  0.00000000000E+00  0.54207026109E+02  0.54207026109E+02  0.00000000000E+00 0. -1.
         21   -1    0    0  502  503 -0.00000000000E+00 -0.00000000000E+00 -0.17593357610E+04  0.17593357610E+04  0.00000000000E+00 0.  1.
         -6    2    1    2    0  503  0.23296303195E+02 -0.10593769278E+03 -0.15346013292E+04  0.15481133969E+04  0.17288243810E+03 0.  0.
        -24    2    3    3    0    0  0.51445990244E+02 -0.13522897154E+02 -0.70586785205E+03  0.71375486151E+03  0.91471411446E+02 0.  0.
          6    2    1    2  501    0 -0.23296303195E+02  0.10593769278E+03 -0.17052740565E+03  0.26542939023E+03  0.17206874390E+03 0.  0.
         24    2    5    5    0    0  0.33102638196E+02  0.11281375307E+03 -0.96027441825E+02  0.17161864775E+03  0.80055999980E+02 0.  0.
          5    1    5    5  501    0 -0.56398941392E+02 -0.68760602954E+01 -0.74499963828E+02  0.93810742486E+02  0.47000000000E+01 0. -1.
        -11    1    6    6    0    0 -0.64112042400E+01  0.47784713559E+02 -0.80688317283E+02  0.93995143149E+02  0.00000000000E+00 0.  1.
         12    1    6    6    0    0  0.39513842436E+02  0.65029039513E+02 -0.15339124543E+02  0.77623504596E+02  0.00000000000E+00 0. -1.
         -5    1    3    3    0  503 -0.28149687048E+02 -0.92414795622E+02 -0.82873347718E+03  0.83435853536E+03  0.47000000000E+01 0.  1.
         13    1    4    4    0    0  0.64883398665E+01  0.10705498683E+01 -0.27626534605E+00  0.65818655247E+01  0.00000000000E+00 0. -1.
        -14    1    4    4    0    0  0.44957650377E+02 -0.14593447022E+02 -0.70559158670E+03  0.70717299599E+03  0.00000000000E+00 0.  1.
</event>
<event>
12    1  0.8416569E-002  0.1872194E+03  0.7818608E-02  0.1161012E+00
         21   -1    0    0  501  502  0.00000000000E+00  0.00000000000E+00  0.10528211819E+03  0.10528211819E+03  0.00000000000E+00 0. -1.
         21   -1    0    0  502  503 -0.00000000000E+00 -0.00000000000E+00 -0.42527393666E+03  0.42527393666E+03  0.00000000000E+00 0. -1.
         -6    2    1    2    0  503 -0.33025584557E+02  0.67135011289E+02 -0.28368354101E+03  0.33984845974E+03  0.17153082864E+03 0.  0.
        -24    2    3    3    0    0 -0.83212806315E+02  0.62514572252E+02 -0.16335544176E+03  0.20930709789E+03  0.79322241505E+02 0.  0.
          6    2    1    2  501    0  0.33025584557E+02 -0.67135011289E+02 -0.36308277462E+02  0.19070759511E+03  0.17161962838E+03 0.  0.
         24    2    5    5    0    0  0.86515765337E+02 -0.30363680228E+02 -0.30857375151E+02  0.12539961272E+03  0.79786932145E+02 0.  0.
          5    1    5    5  501    0 -0.53490180779E+02 -0.36771331060E+02 -0.54509023101E+01  0.65307982389E+02  0.47000000000E+01 0. -1.
        -11    1    6    6    0    0  0.52898199063E+02 -0.30661976871E+02 -0.56396539566E+02  0.83180201760E+02  0.00000000000E+00 0.  1.
         12    1    6    6    0    0  0.33617566274E+02  0.29829664320E+00  0.25539164415E+02  0.42219410963E+02  0.00000000000E+00 0. -1.
         -5    1    3    3    0  503  0.50187221758E+02  0.46204390368E+01 -0.12032809925E+03  0.13054136185E+03  0.47000000000E+01 0.  1.
         13    1    4    4    0    0 -0.86913285180E+02  0.23996111143E+02 -0.13006819467E+03  0.15826391805E+03  0.00000000000E+00 0. -1.
        -14    1    4    4    0    0  0.37004788645E+01  0.38518461109E+02 -0.33287247085E+02  0.51043179843E+02  0.00000000000E+00 0.  1.
</event>
<event>
12    1  0.8416569E-002  0.2869143E+03  0.7818608E-02  0.1092070E+00
         21   -1    0    0  501  502  0.00000000000E+00  0.00000000000E+00  0.51200875453E+03  0.51200875453E+03  0.00000000000E+00 0. -1.
         21   -1    0    0  502  503 -0.00000000000E+00 -0.00000000000E+00 -0.20290877345E+03  0.20290877345E+03  0.00000000000E+00 0.  1.
         -6    2    1    2    0  503  0.20592973755E+03  0.98411320016E+02 -0.89777121696E+01  0.28705471785E+03  0.17386191938E+03 0.  0.
        -24    2    3    3    0    0  0.11868573933E+03  0.12745803117E+03  0.12643994849E+02  0.19247768644E+03  0.80968726946E+02 0.  0.
          6    2    1    2  501    0 -0.20592973755E+03 -0.98411320016E+02  0.31807769325E+03  0.42786281013E+03  0.17263059009E+03 0.  0.
         24    2    5    5    0    0 -0.84724504287E+02 -0.80112535431E+02  0.82798493126E+02  0.16252539080E+03  0.77218211776E+02 0.  0.
          5    1    5    5  501    0 -0.12120523326E+03 -0.18298784584E+02  0.23527920013E+03  0.26533741934E+03  0.47000000000E+01 0. -1.
        -13    1    6    6    0    0 -0.72154981486E+02 -0.91867837734E+02  0.85950285643E+02  0.14502928175E+03  0.00000000000E+00 0.  1.
         14    1    6    6    0    0 -0.12569522801E+02  0.11755302302E+02 -0.31517925176E+01  0.17496109046E+02  0.00000000000E+00 0. -1.
         -5    1    3    3    0  503  0.87243998223E+02 -0.29046711158E+02 -0.21621707018E+02  0.94577031405E+02  0.47000000000E+01 0.  1.
         11    1    4    4    0    0  0.11966156993E+03  0.79228958402E+02  0.47108966304E+01  0.14359077866E+03  0.00000000000E+00 0. -1.
        -12    1    4    4    0    0 -0.97583060553E+00  0.48229072772E+02  0.79330982183E+01  0.48886907789E+02  0.00000000000E+00 0.  1.
</event>
<event>
12    1  0.8416569E-002  0.2517157E+03  0.7818608E-02  0.1112447E+00
         21   -1    0    0  501  502  0.00000000000E+00  0.00000000000E+00  0.17763254063E+04  0.17763254063E+04  0.00000000000E+00 0. -1.
         21   -1    0    0  502  503 -0.00000000000E+00 -0.00000000000E+00 -0.63411842772E+02  0.63411842772E+02  0.00000000000E+00 0.  1.
         -6    2    1    2    0  503  0.18112495756E+03 -0.24576202115E+02  0.24449913659E+03  0.34990445997E+03  0.17100603309E+03 0.  0.
        -24    2    3    3    0    0  0.16044729908E+03  0.38529268975E+02  0.19011875779E+03  0.26394411074E+03  0.79331653080E+02 0.  0.
          6    2    1    2  501    0 -0.18112495756E+03  0.24576202115E+02  0.14684144269E+04  0.14898327891E+04  0.17306233062E+03 0.  0.
         24    2    5    5    0    0 -0.11932398510E+03 -0.51789138276E+02  0.85244107679E+03  0.86605696118E+03  0.80489392716E+02 0.  0.
          5    1    5    5  501    0 -0.61800972458E+02  0.76365340391E+02  0.61597335011E+03  0.62377582789E+03  0.47000000000E+01 0. -1.
        -13    1    6    6    0    0 -0.64044480900E+02 -0.68669313910E+02  0.58003936786E+03  0.58759070659E+03  0.00000000000E+00 0.  1.
         14    1    6    6    0    0 -0.55279504199E+02  0.16880175634E+02  0.27240170893E+03  0.27846625459E+03  0.00000000000E+00 0. -1.
         -5    1    3    3    0  503  0.20677658474E+02 -0.63105471090E+02  0.54380378802E+02  0.85960349232E+02  0.47000000000E+01 0.  1.
         11    1    4    4    0    0  0.38459189008E+02 -0.68326968743E+01  0.95071988271E+02  0.10278364617E+03  0.00000000000E+00 0. -1.
        -12    1    4    4    0    0  0.12198811007E+03  0.45361965849E+02  0.95046769516E+02  0.16116046457E+03  0.00000000000E+00 0.  1.
</event>
<event>
12    1  0.8416569E-002  0.2340898E+03  0.7818608E-02  0.1123812E+00
         21   -1    0    0  503  502  0.00000000000E+00  0.00000000000E+00  0.34619659141E+03  0.34619659141E+03  0.00000000000E+00 0. -1.
         21   -1    0    0  501  503 -0.00000000000E+00 -0.00000000000E+00 -0.17647577223E+03  0.17647577223E+03  0.00000000000E+00 0. -1.
          6    2    1    2  501    0 -0.32969466160E+02 -0.15522196858E+03  0.80819835273E+00  0.23409117681E+03  0.17209642833E+03 0.  0.
         24    2    3    3    0    0 -0.10123149693E+02 -0.16207896608E+03  0.42035279632E+02  0.18622955521E+03  0.80885184661E+02 0.  0.
         -6    2    1    2    0  502  0.32969466160E+02  0.15522196858E+03  0.16891262082E+03  0.28858118683E+03  0.17194994240E+03 0.  0.
        -24    2    5    5    0    0  0.11304702590E+02  0.26884464759E+02  0.15127384430E+02  0.87057327698E+02  0.80619909453E+02 0.  0.
          5    1    3    3  501    0 -0.22846316467E+02  0.68569974935E+01 -0.41227081280E+02  0.47861621594E+02  0.47000000000E+01 0. -1.
        -11    1    4    4    0    0 -0.32446166819E+02 -0.27164951129E+02  0.22998761949E+02  0.48162551451E+02  0.00000000000E+00 0.  1.
         12    1    4    4    0    0  0.22323017126E+02 -0.13491401495E+03  0.19036517684E+02  0.13806700376E+03  0.00000000000E+00 0. -1.
         -5    1    5    5    0  502  0.21664763570E+02  0.12833750382E+03  0.15378523640E+03  0.20152385914E+03  0.47000000000E+01 0.  1.
         13    1    6    6    0    0  0.19833960423E+02  0.13553166386E+02  0.46264224670E+02  0.52129193255E+02  0.00000000000E+00 0. -1.
        -14    1    6    6    0    0 -0.85292578324E+01  0.13331298373E+02 -0.31136840241E+02  0.34928134443E+02  0.00000000000E+00 0.  1.
</event>
<event>
12    1  0.8416569E-002  0.1887017E+03  0.7818608E-02  0.1160346E+00
         21   -1    0    0  503  502  0.00000000000E+00  0.00000000000E+00  0.11039096873E+04  0.11039096873E+04  0.00000000000E+00 0. -1.
         21   -1    0    0  501  503 -0.00000000000E+00 -0.00000000000E+00 -0.78476740386E+02  0.78476740386E+02  0.00000000000E+00 0. -1.
          6    2    1    2  501    0  0.53776111229E+02 -0.44875462977E+02  0.54735325335E+02  0.19351726407E+03  0.17189327601E+03 0.  0.
         24    2    3    3    0    0 -0.11864790503E+02  0.36034726252E+02  0.11561533375E+02  0.80640105114E+02  0.70213123767E+02 0.  0.
         -6    2    1    2    0  502 -0.53776111229E+02  0.44875462977E+02  0.97069762161E+03  0.98886916365E+03  0.17522178204E+03 0.  0.
        -24    2    5    5    0    0  0.32971161150E+02  0.92551588372E+01  0.30896293766E+03  0.32050640490E+03  0.78060894858E+02 0.  0.
          5    1    3    3  501    0  0.65640901732E+02 -0.80910189228E+02  0.43173791960E+02  0.11287715895E+03  0.47000000000E+01 0. -1.
        -13    1    4    4    0    0  0.10930815062E+02  0.34874937239E+02 -0.20021448332E+02  0.41672561220E+02  0.00000000000E+00 0.  1.
         14    1    4    4    0    0 -0.22795605565E+02  0.11597890129E+01  0.31582981707E+02  0.38967543894E+02  0.00000000000E+00 0. -1.
         -5    1    5    5    0  502 -0.86747272378E+02  0.35620304140E+02  0.66173468396E+03  0.66836275875E+03  0.47000000000E+01 0.  1.
         11    1    6    6    0    0  0.40054796860E+02  0.15055917440E+02  0.30837728090E+03  0.31133200088E+03  0.00000000000E+00 0. -1.
        -12    1    6    6    0    0 -0.70836357107E+01 -0.58007586031E+01  0.58565675950E+00  0.91744040184E+01  0.00000000000E+00 0.  1.
</event>
<event>
12    1  0.8416569E-002  0.2828162E+03  0.7818608E-02  0.1094406E+00
         21   -1    0    0  501  502  0.00000000000E+00  0.00000000000E+00  0.69713538894E+03  0.69713538894E+03  0.00000000000E+00 0. -1.
         21   -1    0    0  502  503 -0.00000000000E+00 -0.00000000000E+00 -0.77215793017E+03  0.77215793017E+03  0.00000000000E+00 0. -1.
         -6    2    1    2    0  503  0.41276600432E+02 -0.22025302415E+03 -0.71577948794E+03  0.76962671230E+03  0.17253941153E+03 0.  0.
        -24    2    3    3    0    0 -0.30859543205E+02 -0.15637135268E+03 -0.54600448450E+03  0.57435732667E+03  0.79756694140E+02 0.  0.
          6    2    1    2  501    0 -0.41276600432E+02  0.22025302415E+03  0.64075694672E+03  0.69966660681E+03  0.16955454440E+03 0.  0.
         24    2    5    5    0    0 -0.15206132182E+02  0.18266777379E+03  0.61562455164E+03  0.64726386220E+03  0.79738175910E+02 0.  0.
          5    1    5    5  501    0 -0.26070468250E+02  0.37585250369E+02  0.25132395077E+02  0.52402744607E+02  0.47000000000E+01 0. -1.
        -11    1    6    6    0    0 -0.19204246140E+02  0.49100718264E+02  0.84593991518E+02  0.99678618594E+02  0.00000000000E+00 0.  1.
         12    1    6    6    0    0  0.39981139578E+01  0.13356705552E+03  0.53103056012E+03  0.54758524361E+03  0.00000000000E+00 0. -1.
         -5    1    3    3    0  503  0.72136143637E+02 -0.63881671476E+02 -0.16977500344E+03  0.19526938563E+03  0.47000000000E+01 0.  1.
         11    1    4    4    0    0  0.12403588330E+02 -0.15919250391E+02 -0.16094461596E+03  0.16220493502E+03  0.00000000000E+00 0. -1.
        -12    1    4    4    0    0 -0.43263131535E+02 -0.14045210229E+03 -0.38505986853E+03  0.41215239165E+03  0.00000000000E+00 0.  1.
</event>
<event>
12    1  0.8416569E-002  0.1896076E+03  0.7818608E-02  0.1160168E+00
         21   -1    0    0  503  502  0.00000000000E+00  0.00000000000E+00  0.14701600719E+03  0.14701600719E+03  0.00000000000E+00 0. -1.
         21   -1    0    0  501  503 -0.00000000000E+00 -0.00000000000E+00 -0.37569604259E+03  0.37569604259E+03  0.00000000000E+00 0. -1.
          6    2    1    2  501    0  0.30904428514E+02  0.53309144014E+02 -0.27198284752E+03  0.32822255164E+03  0.17308502397E+03 0.  0.
         24    2    3    3    0    0 -0.27161036797E+02 -0.39156190135E+01 -0.67739261180E+02  0.10825936307E+03  0.79865062415E+02 0.  0.
         -6    2    1    2    0  502 -0.30904428514E+02 -0.53309144014E+02  0.43302812125E+02  0.19448949814E+03  0.17931559556E+03 0.  0.
        -24    2    5    5    0    0 -0.62897038626E+02  0.21302602239E+02  0.26164125039E+01  0.10356143375E+03  0.79424722946E+02 0.  0.
          5    1    3    3  501    0  0.58065465312E+02  0.57224763028E+02 -0.20424358634E+03  0.21996318857E+03  0.47000000000E+01 0. -1.
        -13    1    4    4    0    0  0.41530532258E+01 -0.28647047939E+02  0.79241543974E+00  0.28957367438E+02  0.00000000000E+00 0.  1.
         14    1    4    4    0    0 -0.31314090023E+02  0.24731428925E+02 -0.68531676620E+02  0.79301995630E+02  0.00000000000E+00 0. -1.
         -5    1    5    5    0  502  0.31992610112E+02 -0.74611746253E+02  0.40686399621E+02  0.90928064396E+02  0.47000000000E+01 0.  1.
         13    1    6    6    0    0 -0.13873526697E+02 -0.25940444459E+02  0.17000086881E+02  0.33976232218E+02  0.00000000000E+00 0. -1.
        -14    1    6    6    0    0 -0.49023511929E+02  0.47243046698E+02 -0.14383674377E+02  0.69585201528E+02  0.00000000000E+00 0.  1.
</event>
<event>
12    1  0.8416569E-002  0.1900202E+03  0.7818608E-02  0.1158507E+00
         21   -1    0    0  503  502  0.00000000000E+00  0.00000000000E+00  0.64815245786E+02  0.64815245786E+02  0.00000000000E+00 0. -1.
         21   -1    0    0  501  503 -0.00000000000E+00 -0.00000000000E+00 -0.85880600044E+03  0.85880600044E+03  0.00000000000E+00 0. -1.
          6    2    1    2  501    0 -0.73375984479E+02 -0.32014055425E+02 -0.67090716279E+03  0.69722059083E+03  0.17202091838E+03 0.  0.
         24    2    3    3    0    0 -0.19633628370E+02  0.44795546991E+02 -0.28741648261E+03  0.30241032293E+03  0.80322154743E+02 0.  0.
         -6    2    1    2    0  502  0.73375984479E+02  0.32014055425E+02 -0.12308359186E+03  0.22640065539E+03  0.17233325660E+03 0.  0.
        -24    2    5    5    0    0  0.11201356848E+03  0.49508540440E+02 -0.10633093105E+03  0.18055677305E+03  0.79349519817E+02 0.  0.
          5    1    3    3  501    0 -0.53742356109E+02 -0.76809602416E+02 -0.38349068017E+03  0.39481026791E+03  0.47000000000E+01 0. -1.
        -11    1    4    4    0    0  0.12310324421E+02 -0.49061764013E+01 -0.17421507668E+03  0.17471836651E+03  0.00000000000E+00 0.  1.
         12    1    4    4    0    0 -0.31943952792E+02  0.49701723392E+02 -0.11320140594E+03  0.12769195642E+03  0.00000000000E+00 0. -1.
         -5    1    5    5    0  502 -0.38637584003E+02 -0.17494485015E+02 -0.16752660806E+02  0.45843882335E+02  0.47000000000E+01 0.  1.
         11    1    6    6    0    0  0.45295512260E+02 -0.13139600128E+02 -0.64565274314E+02  0.79956282865E+02  0.00000000000E+00 0. -1.
        -12    1    6    6    0    0  0.66718056222E+02  0.62648140568E+02 -0.41765656741E+02  0.10060049019E+03  0.00000000000E+00 0.  1.
</event>
<event>
12    1  0.8416569E-002  0.2234758E+03  0.7818608E-02  0.1131699E+00
         21   -1    0    0  501  502  0.00000000000E+00  0.00000000000E+00  0.68347785561E+02  0.68347785561E+02  0.00000000000E+00 0.  1.
         21   -1    0    0  502  503 -0.00000000000E+00 -0.00000000000E+00 -0.27664525359E+04  0.27664525359E+04  0.00000000000E+00 0.  1.
         -6    2    1    2    0  503 -0.36105268843E+02  0.13553382556E+03 -0.25653107061E+04  0.25748470631E+04  0.17130490661E+03 0.  0.
        -24    2    3    3    0    0 -0.57783425775E+02  0.30693023093E+02 -0.92426940370E+03  0.93031059873E+03  0.83203927354E+02 0.  0.
          6    2    1    2  501    0  0.36105268843E+02 -0.13553382556E+03 -0.13279404426E+03  0.25995325841E+03  0.17397824594E+03 0.  0.
         24    2    5    5    0    0  0.67967763488E+02 -0.45696686563E+02 -0.11795855740E+03  0.16337110800E+03  0.77897969354E+02 0.  0.
          5    1    5    5  501    0 -0.31862494645E+02 -0.89837138997E+02 -0.14835486858E+02  0.96582150414E+02  0.47000000000E+01 0. -1.
        -11    1    6    6    0    0  0.36597790453E+02 -0.18790800068E+02 -0.30457576483E+01  0.41252503838E+02  0.00000000000E+00 0.  1.
         12    1    6    6    0    0  0.31369973035E+02 -0.26905886495E+02 -0.11491279975E+03  0.12211860416E+03  0.00000000000E+00 0. -1.
         -5    1    3    3    0  503  0.21678156933E+02  0.10484080247E+03 -0.16410413024E+04  0.16445364643E+04  0.47000000000E+01 0.  1.
         13    1    4    4    0    0  0.19385921699E+02  0.12065581187E+02 -0.32576622056E+03  0.32656549522E+03  0.00000000000E+00 0. -1.
        -14    1    4    4    0    0 -0.77169347475E+02  0.18627441907E+02 -0.59850318314E+03  0.60374510351E+03  0.00000000000E+00 0.  1.
</event>
<event>
12    1  0.8416569E-002  0.2120702E+03  0.7818608E-02  0.1139951E+00
         21   -1    0    0  503  502  0.00000000000E+00  0.00000000000E+00  0.13484662298E+04  0.13484662298E+04  0.00000000000E+00 0.  1.
         21   -1    0    0  501  503 -0.00000000000E+00 -0.00000000000E+00 -0.61571414530E+02  0.61571414530E+02  0.00000000000E+00 0. -1.
          6    2    1    2  501    0  0.53726678079E+02  0.11191130281E+03  0.16611557549E+03  0.26938479049E+03  0.17193919069E+03 0.  0.
         24    2    3    3    0    0 -0.22126444502E+02  0.17800817374E+02  0.37725492944E+02  0.92985859175E+02  0.80104360326E+02 0.  0.
         -6    2    1    2    0  502 -0.53726678079E+02 -0.11191130281E+03  0.11207792398E+04  0.11406528538E+04  0.17184915773E+03 0.  0.
        -24    2    5    5    0    0  0.37733851717E+02 -0.51629531519E+02  0.60558916746E+03  0.61392539008E+03  0.77953144571E+02 0.  0.
          5    1    3    3  501    0  0.75853122581E+02  0.94110485432E+02  0.12839008255E+03  0.17639893132E+03  0.47000000000E+01 0. -1.
        -11    1    4    4    0    0 -0.13440462048E+02  0.30674786040E+01  0.61875644734E+02  0.63392829692E+02  0.00000000000E+00 0.  1.
         12    1    4    4    0    0 -0.86859824543E+01  0.14733338770E+02 -0.24150151791E+02  0.29593029483E+02  0.00000000000E+00 0. -1.
         -5    1    5    5    0  502 -0.91460529796E+02 -0.60281771287E+02  0.51519007230E+03  0.52672746374E+03  0.47000000000E+01 0.  1.
         13    1    6    6    0    0  0.36029722788E+02 -0.65699484354E+02  0.34938898878E+03  0.35733349780E+03  0.00000000000E+00 0. -1.
        -14    1    6    6    0    0  0.17041289290E+01  0.14069952835E+02  0.25620017868E+03  0.25659189228E+03  0.00000000000E+00 0.  1.
</event>
<event>
12    1  0.8416569E-002  0.3891774E+03  0.7818608E-02  0.1047648E+00
         21   -1    0    0  503  502  0.00000000000E+00  0.00000000000E+00  0.77814753357E+02  0.77814753357E+02  0.00000000000E+00 0. -1.
         21   -1    0    0  501  503 -0.00000000000E+00 -0.00000000000E+00 -0.20356368560E+04  0.20356368560E+04  0.00000000000E+00 0. -1.
          6    2    1    2  501    0  0.13936660714E+03 -0.31976071655E+03 -0.12031634155E+04  0.12643528176E+04  0.17121879612E+03 0.  0.
         24    2    3    3    0    0  0.36992088874E+02 -0.56637345605E+02 -0.28252043349E+03  0.30137823824E+03  0.80217476823E+02 0.  0.
         -6    2    1    2    0  502 -0.13936660714E+03  0.31976071655E+03 -0.75465868715E+03  0.84909879169E+03  0.17259506631E+03 0.  0.
        -24    2    5    5    0    0 -0.17429976483E+02  0.16987905573E+03 -0.42777128791E+03  0.46934819467E+03  0.90203965719E+02 0.  0.
          5    1    3    3  501    0  0.10237451826E+03 -0.26312337094E+03 -0.92064298197E+03  0.96297457941E+03  0.47000000000E+01 0. -1.
        -13    1    4    4    0    0  0.16938656382E+02  0.39694255844E+00 -0.54643920561E+01  0.17802674630E+02  0.00000000000E+00 0.  1.
         14    1    4    4    0    0  0.20053432492E+02 -0.57034288164E+02 -0.27705604144E+03  0.28357556361E+03  0.00000000000E+00 0. -1.
         -5    1    5    5    0  502 -0.12193663065E+03  0.14988166082E+03 -0.32688739925E+03  0.37975059701E+03  0.47000000000E+01 0.  1.
         11    1    6    6    0    0 -0.52175953438E+02  0.12488605025E+03 -0.27931740485E+03  0.31038213273E+03  0.00000000000E+00 0. -1.
        -12    1    6    6    0    0  0.34745976956E+02  0.44993005485E+02 -0.14845388305E+03  0.15896606195E+03  0.00000000000E+00 0.  1.
</event>
<event>
12    1  0.8416569E-002  0.2106457E+03  0.7818608E-02  0.1141399E+00
         21   -1    0    0  503  502  0.00000000000E+00  0.00000000000E+00  0.48083404286E+03  0.48083404286E+03  0.00000000000E+00 0.  1.
         21   -1    0    0  501  503 -0.00000000000E+00 -0.00000000000E+00 -0.22892629433E+03  0.22892629433E+03  0.00000000000E+00 0.  1.
          6    2    1    2  501    0  0.11758284932E+03  0.17971025179E+02 -0.14877457512E+03  0.25788655691E+03  0.17384739811E+03 0.  0.
         24    2    3    3    0    0  0.78676640117E+02 -0.20971239201E+02 -0.16411721588E+03  0.20054826521E+03  0.81580264506E+02 0.  0.
         -6    2    1    2    0  502 -0.11758284932E+03 -0.17971025179E+02  0.40068232365E+03  0.45187378028E+03  0.17174080651E+03 0.  0.
        -24    2    5    5    0    0 -0.54233363982E+02  0.17459710469E+01  0.36168823478E+03  0.37477289702E+03  0.81804883597E+02 0.  0.
          5    1    3    3  501    0  0.38906209202E+02  0.38942264380E+02  0.15342640755E+02  0.57338291698E+02  0.47000000000E+01 0. -1.
        -11    1    4    4    0    0  0.53892194052E+02 -0.30457587125E+02 -0.40176489071E+02  0.73798261953E+02  0.00000000000E+00 0.  1.
         12    1    4    4    0    0  0.24784446065E+02  0.94863479238E+01 -0.12394072681E+03  0.12675000326E+03  0.00000000000E+00 0. -1.
         -5    1    5    5    0  502 -0.63349485337E+02 -0.19716996225E+02  0.38994088874E+02  0.77100883262E+02  0.47000000000E+01 0.  1.
         13    1    6    6    0    0  0.35339498512E+01  0.80426934916E+01  0.34983776594E+00  0.87918204380E+01  0.00000000000E+00 0. -1.
        -14    1    6    6    0    0 -0.57767313833E+02 -0.62967224447E+01  0.36133839701E+03  0.36598107658E+03  0.00000000000E+00 0.  1.
</event>
<event>
12    1  0.8416569E-002  0.1954698E+03  0.7818608E-02  0.1154145E+00
         21   -1    0    0  501  502  0.00000000000E+00  0.00000000000E+00  0.21328690725E+03  0.21328690725E+03  0.00000000000E+00 0. -1.
         21   -1    0    0  502  503 -0.00000000000E+00 -0.00000000000E+00 -0.23516064935E+03  0.23516064935E+03  0.00000000000E+00 0. -1.
         -6    2    1    2    0  503 -0.61854795252E+02 -0.67208693748E+02 -0.12255008493E+03  0.23070967256E+03  0.17281610308E+03 0.  0.
        -24    2    3    3    0    0 -0.65153130632E+02 -0.11057929737E+03 -0.10240626649E+03  0.18254587188E+03  0.79769922182E+02 0.  0.
          6    2    1    2  501    0  0.61854795252E+02  0.67208693748E+02  0.10067634283E+03  0.21773788403E+03  0.17009125764E+03 0.  0.
         24    2    5    5    0    0  0.80473845155E+02  0.95401428101E+02  0.41023590562E+02  0.14902078177E+03  0.70333393066E+02 0.  0.
          5    1    5    5  501    0 -0.18619049903E+02 -0.28192734354E+02  0.59652752269E+02  0.68717102260E+02  0.47000000000E+01 0. -1.
        -13    1    6    6    0    0  0.56703817290E+02  0.17505129475E+02  0.37740779427E+01  0.59464242343E+02  0.00000000000E+00 0.  1.
         14    1    6    6    0    0  0.23770027865E+02  0.77896298627E+02  0.37249512619E+02  0.89556539431E+02  0.00000000000E+00 0. -1.
         -5    1    3    3    0  503  0.32983353795E+01  0.43370603621E+02 -0.20143818438E+02  0.48163800681E+02  0.47000000000E+01 0.  1.
         13    1    4    4    0    0 -0.48926296830E+02 -0.95145596738E+02 -0.11482098086E+03  0.15694051340E+03  0.00000000000E+00 0. -1.
        -14    1    4    4    0    0 -0.16226833802E+02 -0.15433700630E+02  0.12414714361E+02  0.25605358483E+02  0.00000000000E+00 0.  1.
</event>
<event>
12    1  0.8416569E-002  0.2517528E+03  0.7818608E-02  0.1112365E+00
         21   -1    0    0  503  502  0.00000000000E+00  0.00000000000E+00  0.17701109544E+03  0.17701109544E+03  0.00000000000E+00 0.  1.
         21   -1    0    0  501  503 -0.00000000000E+00 -0.00000000000E+00 -0.63143512919E+03  0.63143512919E+03  0.00000000000E+00 0.  1.
          6    2    1    2  501    0 -0.17778380143E+03 -0.43453089521E+02 -0.49363929290E+03  0.55365748151E+03  0.17135228126E+03 0.  0.
         24    2    3    3    0    0 -0.68663159947E+02  0.33032282674E+02 -0.15914045858E+03  0.19356181822E+03  0.79591021368E+02 0.  0.
         -6    2    1    2    0  502  0.17778380143E+03  0.43453089521E+02  0.39215259156E+02  0.25478874312E+03  0.17287051810E+03 0.  0.
        -24    2    5    5    0    0  0.94952036739E+02  0.69373826162E+02 -0.29366559920E+02  0.14407044410E+03  0.77879913871E+02 0.  0.
          5    1    3    3  501    0 -0.10912064148E+03 -0.76485372195E+02 -0.33449883432E+03  0.36009566329E+03  0.47000000000E+01 0. -1.
        -13    1    4    4    0    0 -0.71402281614E+02  0.38574468078E+02 -0.16572541361E+03  0.18452964023E+03  0.00000000000E+00 0.  1.
         14    1    4    4    0    0  0.27391216675E+01 -0.55421854036E+01  0.65849550269E+01  0.90321779911E+01  0.00000000000E+00 0. -1.
         -5    1    5    5    0  502  0.82831764692E+02 -0.25920736641E+02  0.68581819076E+02  0.11071829902E+03  0.47000000000E+01 0.  1.
         11    1    6    6    0    0 -0.12257069405E+02 -0.53308025545E+00  0.16480625300E+01  0.12378854351E+02  0.00000000000E+00 0. -1.
        -12    1    6    6    0    0  0.10720910614E+03  0.69906906417E+02 -0.31014622450E+02  0.13169158975E+03  0.00000000000E+00 0.  1.
</event>
<event>
12    1  0.8416569E-002  0.1890433E+03  0.7818608E-02  0.1159401E+00
         21   -1    0    0  503  502  0.00000000000E+00  0.00000000000E+00  0.24574936980E+03  0.24574936980E+03  0.00000000000E+00 0. -1.
         21   -1    0    0  501  503 -0.00000000000E+00 -0.00000000000E+00 -0.17069186133E+03  0.17069186133E+03  0.00000000000E+00 0. -1.
          6    2    1    2  501    0 -0.66749213347E+02  0.41477996246E+02 -0.42956752012E+02  0.19386249002E+03  0.17193458301E+03 0.  0.
         24    2    3    3    0    0  0.44200323900E+01  0.74705210595E+02 -0.37126277060E+02  0.11496259299E+03  0.78978681697E+02 0.  0.
         -6    2    1    2    0  502  0.66749213347E+02 -0.41477996246E+02  0.11801426047E+03  0.22257874111E+03  0.17157519828E+03 0.  0.
        -24    2    5    5    0    0  0.58078814602E+02 -0.73503352510E+02  0.28493540631E+02  0.12699187727E+03  0.80865094441E+02 0.  0.
          5    1    3    3  501    0 -0.71169245737E+02 -0.33227214350E+02 -0.58304749519E+01  0.78899897024E+02  0.47000000000E+01 0. -1.
        -11    1    4    4    0    0 -0.63375225227E+01 -0.67740676700E+01 -0.31214664295E+02  0.32563897979E+02  0.00000000000E+00 0.  1.
         12    1    4    4    0    0  0.10757554913E+02  0.81479278265E+02 -0.59116127655E+01  0.82398695013E+02  0.00000000000E+00 0. -1.
         -5    1    5    5    0  502  0.86703987451E+01  0.32025356264E+02  0.89520719843E+02  0.95586863844E+02  0.47000000000E+01 0.  1.
         11    1    6    6    0    0 -0.17893380580E+01 -0.60598643347E+02  0.25219004737E+02  0.65661217671E+02  0.00000000000E+00 0. -1.
        -12    1    6    6    0    0  0.59868152660E+02 -0.12904709164E+02  0.32745358944E+01  0.61330659599E+02  0.00000000000E+00 0.  1.
</event>
<event>
12    1  0.8416569E-002  0.2419739E+03  0.7818608E-02  0.1118776E+00
         21   -1    0    0  501  502  0.00000000000E+00  0.00000000000E+00  0.21625727404E+03  0.21625727404E+03  0.00000000000E+00 0. -1.
         21   -1    0    0  502  503 -0.00000000000E+00 -0.00000000000E+00 -0.47346870750E+03  0.47346870750E+03  0.00000000000E+00 0. -1.
         -6    2    1    2    0  503 -0.14872410194E+03  0.83475307632E+02 -0.35562241703E+03  0.43013798437E+03  0.17165196365E+03 0.  0.
        -24    2    3    3    0    0 -0.17786750796E+03  0.79936752538E+02 -0.31516852178E+03  0.37993373029E+03  0.83616430778E+02 0.  0.
          6    2    1    2  501    0  0.14872410194E+03 -0.83475307632E+02  0.98410983566E+02  0.25958799718E+03  0.16915738562E+03 0.  0.
         24    2    5    5    0    0  0.72397746297E+02  0.23171833498E+02  0.32691153461E+02  0.11282113666E+03  0.76691132646E+02 0.  0.
          5    1    5    5  501    0  0.76326355639E+02 -0.10664714113E+03  0.65719830105E+02  0.14676686051E+03  0.47000000000E+01 0. -1.
        -13    1    6    6    0    0 -0.12386237800E+02 -0.10931115762E+02  0.35015288814E+01  0.16886944162E+02  0.00000000000E+00 0.  1.
         14    1    6    6    0    0  0.84783984097E+02  0.34102949259E+02  0.29189624580E+02  0.95934192500E+02  0.00000000000E+00 0. -1.
         -5    1    3    3    0  503  0.29143406026E+02  0.35385550947E+01 -0.40453895249E+02  0.50204254080E+02  0.47000000000E+01 0.  1.
         13    1    4    4    0    0 -0.15200498520E+03  0.71516346427E+02 -0.30949926789E+03  0.35215039423E+03  0.00000000000E+00 0. -1.
        -14    1    4    4    0    0 -0.25862522762E+02  0.84204061104E+01 -0.56692538828E+01  0.27783336054E+02  0.00000000000E+00 0.  1.
</event>
<event>
12    1  0.8416569E-002  0.1911154E+03  0.7818608E-02  0.1158084E+00
         21   -1    0    0  503  502  0.00000000000E+00  0.00000000000E+00  0.69027527670E+03  0.69027527670E+03  0.00000000000E+00 0.  1.
         21   -1    0    0  501  503 -0.00000000000E+00 -0.00000000000E+00 -0.61534864969E+02  0.61534864969E+02  0.00000000000E+00 0.  1.
          6    2    1    2  501    0 -0.14870860571E+02 -0.81969346297E+02  0.46312075381E+03  0.50100490889E+03  0.17200281943E+03 0.  0.
         24    2    3    3    0    0 -0.32186053186E+02  0.75753028683E+01  0.31894071860E+03  0.33033554244E+03  0.79404416666E+02 0.  0.
         -6    2    1    2    0  502  0.14870860571E+02  0.81969346297E+02  0.16561965792E+03  0.25080523278E+03  0.16891796078E+03 0.  0.
        -24    2    5    5    0    0 -0.48541985758E+02  0.28102579168E+02  0.61222325947E+02  0.11722488017E+03  0.82749138968E+02 0.  0.
          5    1    3    3  501    0  0.17315192615E+02 -0.89544649165E+02  0.14418003522E+03  0.17066936645E+03  0.47000000000E+01 0. -1.
        -13    1    4    4    0    0  0.14222494870E+01 -0.10725597805E+02  0.18895380604E+01  0.10983241596E+02  0.00000000000E+00 0.  1.
         14    1    4    4    0    0 -0.33608302673E+02  0.18300900673E+02  0.31705118054E+03  0.31935230084E+03  0.00000000000E+00 0. -1.
         -5    1    5    5    0  502  0.63412846329E+02  0.53866767128E+02  0.10439733197E+03  0.13358035261E+03  0.47000000000E+01 0.  1.
         13    1    6    6    0    0  0.88834112091E+01 -0.21637455906E+02  0.91295663762E+01  0.25108633475E+02  0.00000000000E+00 0. -1.
        -14    1    6    6    0    0 -0.57425396967E+02  0.49740035074E+02  0.52092759571E+02  0.92116246698E+02  0.00000000000E+00 0.  1.
</event>
<event>
12    1  0.8416569E-002  0.2786860E+03  0.7818608E-02  0.1096525E+00
         21   -1    0    0  501  502  0.00000000000E+00  0.00000000000E+00  0.47290058102E+03  0.47290058102E+03  0.00000000000E+00 0. -1.
         21   -1    0    0  502  503 -0.00000000000E+00 -0.00000000000E+00 -0.25542336101E+03  0.25542336101E+03  0.00000000000E+00 0. -1.
         -6    2    1    2    0  503 -0.42385713213E+01  0.21861596600E+03 -0.10933985180E+03  0.29936784073E+03  0.17278597975E+03 0.  0.
        -24    2    3    3    0    0  0.16296718415E+02  0.20997460224E+03 -0.13577050883E+03  0.26448172712E+03  0.84628814814E+02 0.  0.
          6    2    1    2  501    0  0.42385713213E+01 -0.21861596600E+03  0.32681707181E+03  0.42895610130E+03  0.17141479614E+03 0.  0.
         24    2    5    5    0    0 -0.59345196827E+02 -0.10850945440E+03  0.20257679979E+03  0.25112451057E+03  0.82036613262E+02 0.  0.
          5    1    5    5  501    0  0.63583768148E+02 -0.11010651160E+03  0.12424027202E+03  0.17783159073E+03  0.47000000000E+01 0. -1.
        -13    1    6    6    0    0 -0.21622457979E+02 -0.23799930178E+02  0.45679630824E+01  0.32478202725E+02  0.00000000000E+00 0.  1.
         14    1    6    6    0    0 -0.37722738848E+02 -0.84709524221E+02  0.19800883671E+03  0.21864630784E+03  0.00000000000E+00 0. -1.
         -5    1    3    3    0  503 -0.20535289736E+02  0.86413637546E+01  0.26430657026E+02  0.34886113611E+02  0.47000000000E+01 0.  1.
         13    1    4    4    0    0 -0.16168476794E+02  0.10211505817E+03 -0.10579050995E+03  0.14792071100E+03  0.00000000000E+00 0. -1.
        -14    1    4    4    0    0  0.32465195209E+02  0.10785954407E+03 -0.29979998878E+02  0.11656101613E+03  0.00000000000E+00 0.  1.
</event>
<event>
12    1  0.8416569E-002  0.1894258E+03  0.7818608E-02  0.1160289E+00
         21   -1    0    0  503  502  0.00000000000E+00  0.00000000000E+00  0.13061236544E+03  0.13061236544E+03  0.00000000000E+00 0.  1.
         21   -1    0    0  501  503 -0.00000000000E+00 -0.00000000000E+00 -0.33451172574E+03  0.33451172574E+03  0.00000000000E+00 0.  1.
          6    2    1    2  501    0 -0.70985695980E+01  0.63820293931E+02  0.16380404379E+01  0.18943286607E+03  0.17820973027E+03 0.  0.
         24    2    3    3    0    0 -0.30619588571E+02  0.36473708863E+02  0.66361095599E+02  0.11518841902E+03  0.81219986615E+02 0.  0.
         -6    2    1    2    0  502  0.70985695980E+01 -0.63820293931E+02 -0.20553740074E+03  0.27569122510E+03  0.17215286488E+03 0.  0.
        -24    2    5    5    0    0  0.47301495109E+01 -0.10434943779E+03 -0.10789517295E+03  0.16984078550E+03  0.79330603133E+02 0.  0.
          5    1    3    3  501    0  0.23521018973E+02  0.27346585068E+02 -0.64723055161E+02  0.74244447050E+02  0.47000000000E+01 0. -1.
        -11    1    4    4    0    0  0.10951193441E+02 -0.19332902273E+02  0.27941454464E+02  0.35698944321E+02  0.00000000000E+00 0.  1.
         12    1    4    4    0    0 -0.41570782012E+02  0.55806611136E+02  0.38419641135E+02  0.79489474703E+02  0.00000000000E+00 0. -1.
         -5    1    5    5    0  502  0.23684200871E+01  0.40529143855E+02 -0.97642227793E+02  0.10585043960E+03  0.47000000000E+01 0.  1.
         11    1    6    6    0    0 -0.18531258635E+02 -0.31673348590E+02  0.11894335716E+01  0.36715436941E+02  0.00000000000E+00 0. -1.
        -12    1    6    6    0    0  0.23261408146E+02 -0.72676089196E+02 -0.10908460652E+03  0.13312534856E+03  0.00000000000E+00 0.  1.
</event>
<event>
12    1  0.8416569E-002  0.2206802E+03  0.7818608E-02  0.1133437E+00
         21   -1    0    0  501  502  0.00000000000E+00  0.00000000000E+00  0.62127822502E+03  0.62127822502E+03  0.00000000000E+00 0. -1.
         21   -1    0    0  502  503 -0.00000000000E+00 -0.00000000000E+00 -0.15684131653E+03  0.15684131653E+03  0.00000000000E+00 0.  1.
         -6    2    1    2    0  503  0.13828075273E+03 -0.47521825695E+01 -0.43064753018E+02  0.22484291482E+03  0.17191746153E+03 0.  0.
        -24    2    3    3    0    0  0.28505895062E+02 -0.50474222575E+01  0.35082395614E+02  0.90010895693E+02  0.77673189305E+02 0.  0.
          6    2    1    2  501    0 -0.13828075273E+03  0.47521825695E+01  0.50750166151E+03  0.55327662673E+03  0.17150200999E+03 0.  0.
         24    2    5    5    0    0 -0.49736383898E+02 -0.27547402521E+02  0.11950110160E+03  0.15396485262E+03  0.78689867773E+02 0.  0.
          5    1    5    5  501    0 -0.88544368832E+02  0.32299585091E+02  0.38800055991E+03  0.39931177411E+03  0.47000000000E+01 0. -1.
        -13    1    6    6    0    0 -0.61841595349E+02 -0.40309927465E+02  0.71201415301E+02  0.10256176046E+03  0.00000000000E+00 0.  1.
         14    1    6    6    0    0  0.12105211451E+02  0.12762524944E+02  0.48299686301E+02  0.51403092164E+02  0.00000000000E+00 0. -1.
         -5    1    3    3    0  503  0.10977485767E+03  0.29523968802E+00 -0.78147148631E+02  0.13483201913E+03  0.47000000000E+01 0.  1.
         11    1    4    4    0    0 -0.23337081747E+01  0.31016481523E+02  0.28346680936E+02  0.42083282192E+02  0.00000000000E+00 0. -1.
        -12    1    4    4    0    0  0.30839603237E+02 -0.36063903781E+02  0.67357146776E+01  0.47927613502E+02  0.00000000000E+00 0.  1.
</event>
<event>
12    1  0.8416569E-002  0.1767989E+03  0.7818608E-02  0.1171283E+00
         21   -1    0    0  503  502  0.00000000000E+00  0.00000000000E+00  0.99146853470E+02  0.99146853470E+02  0.00000000000E+00 0.  1.
         21   -1    0    0  501  503 -0.00000000000E+00 -0.00000000000E+00 -0.35264518212E+03  0.35264518212E+03  0.00000000000E+00 0.  1.
          6    2    1    2  501    0 -0.93054104704E+01  0.36399108242E+02 -0.20224264277E+03  0.26771324996E+03  0.17133829666E+03 0.  0.
         24    2    3    3    0    0  0.28905836672E+02  0.79357735452E+02 -0.15661504765E+03  0.19416387541E+03  0.77705468237E+02 0.  0.
         -6    2    1    2    0  502  0.93054104704E+01 -0.36399108242E+02 -0.51255685876E+02  0.18407878563E+03  0.17276101481E+03 0.  0.
        -24    2    5    5    0    0  0.63520172706E+02 -0.51565876617E+02 -0.37098213439E+02  0.12583966361E+03  0.88122026341E+02 0.  0.
          5    1    3    3  501    0 -0.38211247142E+02 -0.42958627210E+02 -0.45627595120E+02  0.73549374548E+02  0.47000000000E+01 0. -1.
        -11    1    4    4    0    0  0.55289002464E+02  0.45391627234E+02 -0.91882526436E+02  0.11644600586E+03  0.00000000000E+00 0.  1.
         12    1    4    4    0    0 -0.26383165792E+02  0.33966108218E+02 -0.64732521216E+02  0.77717869551E+02  0.00000000000E+00 0. -1.
         -5    1    5    5    0  502 -0.54214762235E+02  0.15166768375E+02 -0.14157472438E+02  0.58239122014E+02  0.47000000000E+01 0.  1.
         11    1    6    6    0    0  0.48802079436E+02  0.13338618407E+02 -0.30225530641E+02  0.58933389524E+02  0.00000000000E+00 0. -1.
        -12    1    6    6    0    0  0.14718093269E+02 -0.64904495024E+02 -0.68726827981E+01  0.66906274090E+02  0.00000000000E+00 0.  1.
</event>
<event>
12    1  0.8416569E-002  0.2384032E+03  0.7818608E-02  0.1120864E+00
         21   -1    0    0  501  502  0.00000000000E+00  0.00000000000E+00  0.32748284803E+03  0.32748284803E+03  0.00000000000E+00 0.  1.
         21   -1    0    0  502  503 -0.00000000000E+00 -0.00000000000E+00 -0.40633756884E+03  0.40633756884E+03  0.00000000000E+00 0. -1.
         -6    2    1    2    0  503  0.15073498033E+03 -0.66701821083E+02 -0.31714415288E+03  0.39674778423E+03  0.17221563039E+03 0.  0.
        -24    2    3    3    0    0  0.54649837460E+02 -0.97850554782E+02 -0.17882089826E+03  0.22540598821E+03  0.79180869296E+02 0.  0.
          6    2    1    2  501    0 -0.15073498033E+03  0.66701821083E+02  0.23828943207E+03  0.33707263264E+03  0.17223803007E+03 0.  0.
         24    2    5    5    0    0 -0.83190381953E+02 -0.32171390689E+02  0.13863940899E+03  0.18121884899E+03  0.75257873183E+02 0.  0.
          5    1    5    5  501    0 -0.67544598380E+02  0.98873211773E+02  0.99650023082E+02  0.15585378365E+03  0.47000000000E+01 0. -1.
        -13    1    6    6    0    0 -0.93700959582E+02 -0.15088607561E+02  0.12506733603E+03  0.15700119250E+03  0.00000000000E+00 0.  1.
         14    1    6    6    0    0  0.10510577628E+02 -0.17082783129E+02  0.13572072962E+02  0.24217656492E+02  0.00000000000E+00 0. -1.
         -5    1    3    3    0  503  0.96085142873E+02  0.31148733699E+02 -0.13832325462E+03  0.17134179601E+03  0.47000000000E+01 0.  1.
         13    1    4    4    0    0  0.20910266775E+02 -0.61589033533E+02 -0.36217237418E+02  0.74445527698E+02  0.00000000000E+00 0. -1.
        -14    1    4    4    0    0  0.33739570685E+02 -0.36261521249E+02 -0.14260366084E+03  0.15096046052E+03  0.00000000000E+00 0.  1.
</event>
<event>
12    1  0.8416569E-002  0.1757647E+03  0.7818608E-02  0.1173226E+00
         21   -1    0    0  501  502  0.00000000000E+00  0.00000000000E+00  0.18526635008E+03  0.18526635008E+03  0.00000000000E+00 0.  1.
         21   -1    0    0  502  503 -0.00000000000E+00 -0.00000000000E+00 -0.24137490096E+03  0.24137490096E+03  0.00000000000E+00 0.  1.
         -6    2    1    2    0  503  0.17031746670E+02  0.32670707154E+02 -0.15005306375E+03  0.22734548098E+03  0.16677107148E+03 0.  0.
        -24    2    3    3    0    0  0.61870382315E+02  0.63599750977E+00 -0.13716214950E+03  0.17055647202E+03  0.80297610133E+02 0.  0.
          6    2    1    2  501    0 -0.17031746670E+02 -0.32670707154E+02  0.93944512873E+02  0.19929577006E+03  0.17185975958E+03 0.  0.
         24    2    5    5    0    0 -0.72944874170E+02 -0.45787757329E+02  0.57510808796E+02  0.13112070405E+03  0.80421841025E+02 0.  0.
          5    1    5    5  501    0  0.55913127500E+02  0.13117050175E+02  0.36433704078E+02  0.68175066006E+02  0.47000000000E+01 0. -1.
        -13    1    6    6    0    0 -0.20446856914E+01 -0.46551874153E+02  0.27668386250E+02  0.54192225683E+02  0.00000000000E+00 0.  1.
         14    1    6    6    0    0 -0.70900188479E+02  0.76411682403E+00  0.29842422545E+02  0.76928478369E+02  0.00000000000E+00 0. -1.
         -5    1    3    3    0  503 -0.44838635644E+02  0.32034709645E+02 -0.12890914252E+02  0.56789008960E+02  0.47000000000E+01 0.  1.
         13    1    4    4    0    0  0.74334493435E+02  0.10728046164E+02 -0.74171354600E+02  0.10555613545E+03  0.00000000000E+00 0. -1.
        -14    1    4    4    0    0 -0.12464111120E+02 -0.10092048654E+02 -0.62990794901E+02  0.65000336571E+02  0.00000000000E+00 0.  1.
</event>
<event>
12    1  0.8416569E-002  0.2169016E+03  0.7818608E-02  0.1137032E+00
         21   -1    0    0  501  502  0.00000000000E+00  0.00000000000E+00  0.93198531329E+03  0.93198531329E+03  0.00000000000E+00 0. -1.
         21   -1    0    0  502  503 -0.00000000000E+00 -0.00000000000E+00 -0.14653233950E+03  0.14653233950E+03  0.00000000000E+00 0.  1.
         -6    2    1    2    0  503  0.56211102748E+02  0.11216128808E+03 -0.47422961095E+02  0.21786172053E+03  0.17168269982E+03 0.  0.
        -24    2    3    3    0    0  0.13498842076E+02  0.63285975739E+01  0.22373808110E+02  0.84001440453E+02  0.79582566082E+02 0.  0.
          6    2    1    2  501    0 -0.56211102748E+02 -0.11216128808E+03  0.83287593488E+03  0.86065593226E+03  0.17693633945E+03 0.  0.
         24    2    5    5    0    0 -0.86317271287E+02 -0.30942583873E+02  0.35939011356E+03  0.37928936478E+03  0.79316162862E+02 0.  0.
          5    1    5    5  501    0  0.30106168539E+02 -0.81218704205E+02  0.47348582132E+03  0.48136656749E+03  0.47000000000E+01 0. -1.
        -13    1    6    6    0    0 -0.60040548184E+02 -0.38590219016E+02  0.33535617128E+03  0.34286707927E+03  0.00000000000E+00 0.  1.
         14    1    6    6    0    0 -0.26276723103E+02  0.76476351429E+01  0.24033942276E+02  0.36422285508E+02  0.00000000000E+00 0. -1.
         -5    1    3    3    0  503  0.42712260672E+02  0.10583269050E+03 -0.69796769206E+02  0.13386028008E+03  0.47000000000E+01 0.  1.
         13    1    4    4    0    0  0.95104333944E+01 -0.30327862044E+02 -0.11628101690E+02  0.33844354158E+02  0.00000000000E+00 0. -1.
        -14    1    4    4    0    0  0.39884086818E+01  0.36656459618E+02  0.34001909800E+02  0.50157086295E+02  0.00000000000E+00 0.  1.
</event>
<event>
12    1  0.8416569E-002  0.2538319E+03  0.7818608E-02  0.1110967E+00
         21   -1    0    0  503  502  0.00000000000E+00  0.00000000000E+00  0.16476646314E+03  0.16476646314E+03  0.00000000000E+00 0. -1.
         21   -1    0    0  501  503 -0.00000000000E+00 -0.00000000000E+00 -0.39151594322E+03  0.39151594322E+03  0.00000000000E+00 0. -1.
          6    2    1    2  501    0  0.52989972010E+02 -0.17849665989E+03 -0.12799440848E+03  0.28427658766E+03  0.17251554993E+03 0.  0.
         24    2    3    3    0    0 -0.29594691777E+02 -0.83180708946E+02 -0.26779987170E+02  0.12249956124E+03  0.80585970677E+02 0.  0.
         -6    2    1    2    0  502 -0.52989972010E+02  0.17849665989E+03 -0.98755071608E+02  0.27200581870E+03  0.17194652225E+03 0.  0.
        -24    2    5    5    0    0 -0.35594860332E+02  0.14608149302E+03 -0.15357228279E+01  0.16795282869E+03  0.74826449426E+02 0.  0.
          5    1    3    3  501    0  0.82584663787E+02 -0.95315950944E+02 -0.10121442131E+03  0.16177702642E+03  0.47000000000E+01 0. -1.
        -13    1    4    4    0    0 -0.12360932882E+01  0.15658242065E+02 -0.91338315405E+01  0.18169627123E+02  0.00000000000E+00 0.  1.
         14    1    4    4    0    0 -0.28358598489E+02 -0.98838951011E+02 -0.17646155630E+02  0.10432993412E+03  0.00000000000E+00 0. -1.
         -5    1    5    5    0  502 -0.17395111677E+02  0.32415166867E+02 -0.97219348780E+02  0.10405299001E+03  0.47000000000E+01 0.  1.
         13    1    6    6    0    0 -0.55920929482E+02  0.72226667583E+02 -0.10093096970E+01  0.91350208376E+02  0.00000000000E+00 0. -1.
        -14    1    6    6    0    0  0.20326069149E+02  0.73854825440E+02 -0.52641313098E+00  0.76602620311E+02  0.00000000000E+00 0.  1.
</event>
<event>
12    1  0.8416569E-002  0.1872789E+03  0.7818608E-02  0.1161177E+00
         21   -1    0    0  503  502  0.00000000000E+00  0.00000000000E+00  0.78955961551E+02  0.78955961551E+02  0.00000000000E+00 0.  1.
         21   -1    0    0  501  503 -0.00000000000E+00 -0.00000000000E+00 -0.77793788567E+03  0.77793788567E+03  0.00000000000E+00 0.  1.
          6    2    1    2  501    0 -0.50934022393E+02  0.52935647255E+02 -0.63058907602E+03  0.65751743168E+03  0.17114360283E+03 0.  0.
         24    2    3    3    0    0 -0.26666791042E+02 -0.36420922780E+02 -0.30976216297E+03  0.32356310357E+03  0.81871136720E+02 0.  0.
         -6    2    1    2    0  502  0.50934022393E+02 -0.52935647255E+02 -0.68392848099E+02  0.19937641553E+03  0.17226989294E+03 0.  0.
        -24    2    5    5    0    0 -0.66376444819E+01 -0.37552494300E+02  0.23582218023E+02  0.89683020064E+02  0.77670296307E+02 0.  0.
          5    1    3    3  501    0 -0.24267231351E+02  0.89356570036E+02 -0.32082691305E+03  0.33395432811E+03  0.47000000000E+01 0. -1.
        -13    1    4    4    0    0  0.12739280648E+02  0.19168485070E+02 -0.11346389180E+03  0.11577467268E+03  0.00000000000E+00 0.  1.
         14    1    4    4    0    0 -0.39406071690E+02 -0.55589407850E+02 -0.19629827116E+03  0.20778843089E+03  0.00000000000E+00 0. -1.
         -5    1    5    5    0  502  0.57571666875E+02 -0.15383152955E+02 -0.91975066122E+02  0.10969339547E+03  0.47000000000E+01 0.  1.
         13    1    6    6    0    0 -0.19562319592E+02  0.57118657443E+00 -0.21614807242E+02  0.29158369194E+02  0.00000000000E+00 0. -1.
        -14    1    6    6    0    0  0.12924675110E+02 -0.38123680875E+02  0.45197025265E+02  0.60524650870E+02  0.00000000000E+00 0.  1.
</event>
<event>
12    1  0.8416569E-002  0.1958113E+03  0.7818608E-02  0.1153656E+00
         21   -1    0    0  501  502  0.00000000000E+00  0.00000000000E+00  0.41841888889E+02  0.41841888889E+02  0.00000000000E+00 0.  1.
         21   -1    0    0  502  503 -0.00000000000E+00 -0.00000000000E+00 -0.11055916353E+04  0.11055916353E+04  0.00000000000E+00 0.  1.
         -6    2    1    2    0  503 -0.87220582417E+02 -0.30118416171E+02 -0.77196449914E+03  0.79603531407E+03  0.17096340052E+03 0.  0.
        -24    2    3    3    0    0  0.18291476272E+02 -0.20073037366E+02 -0.42588111154E+03  0.43405533487E+03  0.79320915477E+02 0.  0.
          6    2    1    2  501    0  0.87220582417E+02  0.30118416171E+02 -0.29178524731E+03  0.35139821017E+03  0.17270646360E+03 0.  0.
         24    2    5    5    0    0  0.92413015139E+02  0.49937143195E+02 -0.30079116667E+03  0.32853033134E+03  0.80143427843E+02 0.  0.
          5    1    5    5  501    0 -0.51924327227E+01 -0.19818727024E+02  0.90059193582E+01  0.22867878824E+02  0.47000000000E+01 0. -1.
        -11    1    6    6    0    0  0.31787150069E+02  0.39046225676E+02 -0.52614278280E+02  0.72823711303E+02  0.00000000000E+00 0.  1.
         12    1    6    6    0    0  0.60625865071E+02  0.10890917518E+02 -0.24817688839E+03  0.25570662004E+03  0.00000000000E+00 0. -1.
         -5    1    3    3    0  503 -0.10551205869E+03 -0.10045378805E+02 -0.34608338761E+03  0.36197997920E+03  0.47000000000E+01 0.  1.
         11    1    4    4    0    0  0.45728366272E+02 -0.21014109847E+02 -0.18888009637E+03  0.19546960659E+03  0.00000000000E+00 0. -1.
        -12    1    4    4    0    0 -0.27436890000E+02  0.94107248103E+00 -0.23700101517E+03  0.23858572828E+03  0.00000000000E+00 0.  1.
</event>
<event>
12    1  0.8416569E-002  0.1804113E+03  0.7818608E-02  0.1167697E+00
         21   -1    0    0  503  502  0.00000000000E+00  0.00000000000E+00  0.25227471038E+03  0.25227471038E+03  0.00000000000E+00 0. -1.
         21   -1    0    0  501  503 -0.00000000000E+00 -0.00000000000E+00 -0.13724308229E+03  0.13724308229E+03  0.00000000000E+00 0. -1.
          6    2    1    2  501    0 -0.42927112582E+02  0.17803174732E+02  0.72322531872E+01  0.17935367032E+03  0.17307727622E+03 0.  0.
         24    2    3    3    0    0 -0.58048549888E+02 -0.18247352543E+02 -0.48335778914E+02  0.11124937842E+03  0.79608270029E+02 0.  0.
         -6    2    1    2    0  502  0.42927112582E+02 -0.17803174732E+02  0.10779937490E+03  0.21016412235E+03  0.17432315700E+03 0.  0.
        -24    2    5    5    0    0 -0.39143964749E+00  0.15364213388E+02  0.12916617996E+03  0.15138314787E+03  0.77438641094E+02 0.  0.
          5    1    3    3  501    0  0.15121437306E+02  0.36050527275E+02  0.55568032101E+02  0.68104291895E+02  0.47000000000E+01 0. -1.
        -11    1    4    4    0    0 -0.40910246564E+02 -0.61532732028E+01  0.15405318727E+02  0.44145610089E+02  0.00000000000E+00 0.  1.
         12    1    4    4    0    0 -0.17138303324E+02 -0.12094079340E+02 -0.63741097641E+02  0.67103768332E+02  0.00000000000E+00 0. -1.
         -5    1    5    5    0  502  0.43318552229E+02 -0.33167388119E+02 -0.21366805064E+02  0.58780974477E+02  0.47000000000E+01 0.  1.
         13    1    6    6    0    0  0.29990115971E+02 -0.43193403924E+01  0.10119935609E+03  0.10563793557E+03  0.00000000000E+00 0. -1.
        -14    1    6    6    0    0 -0.30381555618E+02  0.19683553780E+02  0.27966823874E+02  0.45745212305E+02  0.00000000000E+00 0.  1.
</event>
<event>
12    1  0.8416569E-002  0.1746785E+03  0.7818608E-02  0.1175788E+00
         21   -1    0    0  501  502  0.00000000000E+00  0.00000000000E+00  0.53048055688E+03  0.53048055688E+03  0.00000000000E+00 0.  1.
         21   -1    0    0  502  503 -0.00000000000E+00 -0.00000000000E+00 -0.65177556518E+02  0.65177556518E+02  0.00000000000E+00 0.  1.
         -6    2    1    2    0  503  0.25284935668E+02 -0.39205829457E+02  0.34933577619E+03  0.38598939831E+03  0.15740364052E+03 0.  0.
        -24    2    3    3    0    0 -0.17802813359E+02  0.20975151458E+02  0.14439842795E+03  0.16804511350E+03  0.81433144570E+02 0.  0.
          6    2    1    2  501    0 -0.25284935668E+02  0.39205829457E+02  0.11596722417E+03  0.20966871509E+03  0.16833344281E+03 0.  0.
         24    2    5    5    0    0 -0.32975689815E+02  0.80738641271E+02  0.10622651441E+03  0.16606718320E+03  0.93210045902E+02 0.  0.
          5    1    5    5  501    0  0.76907541466E+01 -0.41532811814E+02  0.97407097619E+01  0.43601531890E+02  0.47000000000E+01 0. -1.
        -11    1    6    6    0    0 -0.58127126896E+02  0.75360752177E+02  0.58119524694E+02  0.11151629926E+03  0.00000000000E+00 0.  1.
         12    1    6    6    0    0  0.25151437081E+02  0.53778890938E+01  0.48106989719E+02  0.54550883936E+02  0.00000000000E+00 0. -1.
         -5    1    3    3    0  503  0.43087749028E+02 -0.60180980915E+02  0.20493734824E+03  0.21794428481E+03  0.47000000000E+01 0.  1.
         13    1    4    4    0    0 -0.57190574070E+01  0.30234286295E+02  0.14899801256E+03  0.15214212905E+03  0.00000000000E+00 0. -1.
        -14    1    4    4    0    0 -0.12083755952E+02 -0.92591348368E+01 -0.45995846085E+01  0.15902984450E+02  0.00000000000E+00 0.  1.
</event>
<event>
12    1  0.8416569E-002  0.2441492E+03  0.7818608E-02  0.1117268E+00
         21   -1    0    0  503  502  0.00000000000E+00  0.00000000000E+00  0.65345043049E+03  0.65345043049E+03  0.00000000000E+00 0.  1.
         21   -1    0    0  501  503 -0.00000000000E+00 -0.00000000000E+00 -0.43206650537E+03  0.43206650537E+03  0.00000000000E+00 0. -1.
          6    2    1    2  501    0  0.73464705216E+02  0.15774215853E+03 -0.37165334701E+03  0.44467410323E+03  0.17125768961E+03 0.  0.
         24    2    3    3    0    0 -0.11797242204E+02  0.95491515669E+02 -0.27150180113E+03  0.29908164341E+03  0.80490974161E+02 0.  0.
         -6    2    1    2    0  502 -0.73464705216E+02 -0.15774215853E+03  0.59303727213E+03  0.64084283263E+03  0.16943045331E+03 0.  0.
        -24    2    5    5    0    0 -0.63207267058E+01 -0.78880422777E+02  0.18373156156E+03  0.21860979044E+03  0.88152601080E+02 0.  0.
          5    1    3    3  501    0  0.85261947420E+02  0.62250642858E+02 -0.10015154588E+03  0.14559245982E+03  0.47000000000E+01 0. -1.
        -11    1    4    4    0    0  0.23192865690E+02  0.11210240101E+02 -0.23673105798E+02  0.34985631911E+02  0.00000000000E+00 0.  1.
         12    1    4    4    0    0 -0.34990107894E+02  0.84281275568E+02 -0.24782869533E+03  0.26409601150E+03  0.00000000000E+00 0. -1.
         -5    1    5    5    0  502 -0.67143978510E+02 -0.78861735750E+02  0.40930571056E+03  0.42223304219E+03  0.47000000000E+01 0.  1.
         11    1    6    6    0    0 -0.37020243276E+02 -0.21496619619E+02  0.31803649739E+02  0.53329871592E+02  0.00000000000E+00 0. -1.
        -12    1    6    6    0    0  0.30699516570E+02 -0.57383803158E+02  0.15192791182E+03  0.16527991884E+03  0.00000000000E+00 0.  1.
</event>
<event>
12    1  0.8416569E-002  0.1775665E+03  0.7818608E-02  0.1170245E+00
         21   -1    0    0  501  502  0.00000000000E+00  0.00000000000E+00  0.18345006077E+02  0.18345006077E+02  0.00000000000E+00 0. -1.
         21   -1    0    0  502  503 -0.00000000000E+00 -0.00000000000E+00 -0.17710616816E+04  0.17710616816E+04  0.00000000000E+00 0.  1.
         -6    2    1    2    0  503  0.31462866617E+02  0.27364808815E+02 -0.10345650731E+04  0.10496926908E+04  0.17260101353E+03 0.  0.
        -24    2    3    3    0    0  0.70522798119E+02  0.31610798057E+02 -0.32516344665E+03  0.33918831762E+03  0.57833728608E+02 0.  0.
          6    2    1    2  501    0 -0.31462866617E+02 -0.27364808815E+02 -0.71815160234E+03  0.73971399681E+03  0.17232622666E+03 0.  0.
         24    2    5    5    0    0 -0.44285905979E+02 -0.21049791323E+02 -0.21921483455E+03  0.24055039834E+03  0.86052398408E+02 0.  0.
          5    1    5    5  501    0  0.12823039362E+02 -0.63150174914E+01 -0.49893676779E+03  0.49916359847E+03  0.47000000000E+01 0. -1.
        -11    1    6    6    0    0 -0.52664231146E+02  0.12943080499E+02 -0.17994848128E+03  0.18794281175E+03  0.00000000000E+00 0.  1.
         12    1    6    6    0    0  0.83783251669E+01 -0.33992871822E+02 -0.39266353270E+02  0.52607586587E+02  0.00000000000E+00 0. -1.
         -5    1    3    3    0  503 -0.39059931503E+02 -0.42459892420E+01 -0.70940162649E+03  0.71050437320E+03  0.47000000000E+01 0.  1.
         13    1    4    4    0    0  0.46800892671E+02  0.35752343926E+02 -0.13216356734E+03  0.14469195618E+03  0.00000000000E+00 0. -1.
        -14    1    4    4    0    0  0.23721905448E+02 -0.41415458690E+01 -0.19299987931E+03  0.19449636144E+03  0.00000000000E+00 0.  1.
</event>
<event>
12    1  0.8416569E-002  0.3008730E+03  0.7818608E-02  0.1084821E+00
         21   -1    0    0  503  502  0.00000000000E+00  0.00000000000E+00  0.95653549480E+02  0.95653549480E+02  0.00000000000E+00 0. -1.
         21   -1    0    0  501  503 -0.00000000000E+00 -0.00000000000E+00 -0.10589577247E+04  0.10589577247E+04  0.00000000000E+00 0.  1.
          6    2    1    2  501    0  0.56948475312E+02 -0.24032992175E+03 -0.67032346810E+03  0.73475037151E+03  0.17182245610E+03 0.  0.
         24    2    3    3    0    0  0.16475256809E+02 -0.10540907841E+03 -0.47621951750E+03  0.49487509346E+03  0.82059864591E+02 0.  0.
         -6    2    1    2    0  502 -0.56948475312E+02  0.24032992175E+03 -0.29298070716E+03  0.41986090271E+03  0.17159219892E+03 0.  0.
        -24    2    5    5    0    0  0.33457643064E+01  0.22343313285E+03 -0.24118635895E+03  0.33846286027E+03  0.80328631555E+02 0.  0.
          5    1    3    3  501    0  0.40473218504E+02 -0.13492084334E+03 -0.19410395060E+03  0.23987527805E+03  0.47000000000E+01 0. -1.
        -13    1    4    4    0    0  0.28244532703E+02 -0.19639980330E+01 -0.14276155222E+03  0.14554199293E+03  0.00000000000E+00 0.  1.
         14    1    4    4    0    0 -0.11769275894E+02 -0.10344508038E+03 -0.33345796529E+03  0.34933310053E+03  0.00000000000E+00 0. -1.
         -5    1    5    5    0  502 -0.60294239619E+02  0.16896788903E+02 -0.51794348215E+02  0.81398042442E+02  0.47000000000E+01 0.  1.
         13    1    6    6    0    0  0.25584108747E+01  0.21819234992E+03 -0.19705833375E+03  0.29401774424E+03  0.00000000000E+00 0. -1.
        -14    1    6    6    0    0  0.78735343175E+00  0.52407829299E+01 -0.44128025193E+02  0.44445116026E+02  0.00000000000E+00 0.  1.
</event>
<event>
12    1  0.8416569E-002  0.2434942E+03  0.7818608E-02  0.1117781E+00
         21   -1    0    0  503  502  0.00000000000E+00  0.00000000000E+00  0.25990952702E+03  0.25990952702E+03  0.00000000000E+00 0.  1.
         21   -1    0    0  501  503 -0.00000000000E+00 -0.00000000000E+00 -0.26376845362E+03  0.26376845362E+03  0.00000000000E+00 0. -1.
          6    2    1    2  501    0 -0.14065219518E+03 -0.10052817196E+03 -0.10042860115E+03  0.26173311139E+03  0.16890637734E+03 0.  0.
         24    2    3    3    0    0 -0.33691719582E+02  0.12461955657E+02 -0.35988984911E+02  0.93263926027E+02  0.78182610316E+02 0.  0.
         -6    2    1    2    0  502  0.14065219518E+03  0.10052817196E+03  0.96569674548E+02  0.26194486924E+03  0.17146562079E+03 0.  0.
        -24    2    5    5    0    0  0.16096380807E+03  0.79841404832E+02  0.50537900388E+02  0.20734158926E+03  0.90290962047E+02 0.  0.
          5    1    3    3  501    0 -0.10696047560E+03 -0.11299012761E+03 -0.64439616234E+02  0.16846918537E+03  0.47000000000E+01 0. -1.
        -13    1    4    4    0    0 -0.54939757932E+01 -0.15270832456E+02  0.19343571266E+02  0.25249868183E+02  0.00000000000E+00 0.  1.
         14    1    4    4    0    0 -0.28197743789E+02  0.27732788113E+02 -0.55332556178E+02  0.68014057844E+02  0.00000000000E+00 0. -1.
         -5    1    5    5    0  502 -0.20311612892E+02  0.20686767124E+02  0.46031774159E+02  0.54603279980E+02  0.47000000000E+01 0.  1.
         11    1    6    6    0    0  0.60871663044E+02  0.27561940341E+02 -0.25152721352E+02  0.71398034346E+02  0.00000000000E+00 0. -1.
        -12    1    6    6    0    0  0.10009214503E+03  0.52279464491E+02  0.75690621740E+02  0.13594355491E+03  0.00000000000E+00 0.  1.
</event>
<event>
12    1  0.8416569E-002  0.1918311E+03  0.7818608E-02  0.1156979E+00
         21   -1    0    0  501  502  0.00000000000E+00  0.00000000000E+00  0.26271373412E+04  0.26271373412E+04  0.00000000000E+00 0.  1.
         21   -1    0    0  502  503 -0.00000000000E+00 -0.00000000000E+00 -0.20499057531E+02  0.20499057531E+02  0.00000000000E+00 0.  1.
         -6    2    1    2    0  503 -0.94270232379E+01 -0.83977301930E+02  0.55372402203E+03  0.58577895435E+03  0.17142238705E+03 0.  0.
        -24    2    3    3    0    0 -0.36428435593E+02 -0.42039799399E+02  0.51051462079E+03  0.51962026072E+03  0.79282164784E+02 0.  0.
          6    2    1    2  501    0  0.94270232379E+01  0.83977301930E+02  0.20529142617E+04  0.20618574444E+04  0.17221527023E+03 0.  0.
         24    2    5    5    0    0  0.21672689211E+02 -0.22521272045E+02  0.93937554609E+03  0.94316067420E+03  0.78413822801E+02 0.  0.
          5    1    5    5  501    0 -0.12245665973E+02  0.10649857398E+03  0.11135387156E+04  0.11186967702E+04  0.47000000000E+01 0. -1.
        -11    1    6    6    0    0  0.49651449040E+02 -0.17971705461E+02  0.72479796336E+03  0.72671888394E+03  0.00000000000E+00 0.  1.
         12    1    6    6    0    0 -0.27978759829E+02 -0.45495665839E+01  0.21457758274E+03  0.21644179026E+03  0.00000000000E+00 0. -1.
         -5    1    3    3    0  503  0.27001412355E+02 -0.41937502532E+02  0.43209401235E+02  0.66158693630E+02  0.47000000000E+01 0.  1.
         13    1    4    4    0    0 -0.57348835906E+02 -0.35029341674E+02  0.27571928030E+03  0.28379053065E+03  0.00000000000E+00 0. -1.
        -14    1    4    4    0    0  0.20920400313E+02 -0.70104577248E+01  0.23479534049E+03  0.23582973006E+03  0.00000000000E+00 0.  1.
</event>
<event>
12    1  0.8416569E-002  0.2451906E+03  0.7818608E-02  0.1116830E+00
         21   -1    0    0  501  502  0.00000000000E+00  0.00000000000E+00  0.94576292767E+02  0.94576292767E+02  0.00000000000E+00 0.  1.
         21   -1    0    0  502  503 -0.00000000000E+00 -0.00000000000E+00 -0.63030589877E+03  0.63030589877E+03  0.00000000000E+00 0. -1.
         -6    2    1    2    0  503 -0.15869318017E+03  0.61557869216E+02 -0.24733400825E+03  0.34634493824E+03  0.17264937854E+03 0.  0.
        -24    2    3    3    0    0 -0.16171667631E+03  0.99022274926E+02 -0.21141646988E+03  0.29414452840E+03  0.76592333318E+02 0.  0.
          6    2    1    2  501    0  0.15869318017E+03 -0.61557869216E+02 -0.28839559775E+03  0.37853725330E+03  0.17648097529E+03 0.  0.
         24    2    5    5    0    0  0.66988154748E+02 -0.98674698287E+02 -0.19861551158E+03  0.24485844212E+03  0.79268065928E+02 0.  0.
          5    1    5    5  501    0  0.91705025417E+02  0.37116829070E+02 -0.89780086171E+02  0.13367881119E+03  0.47000000000E+01 0. -1.
        -13    1    6    6    0    0  0.62823226300E+02 -0.59557497170E+02 -0.73034705179E+02  0.11326041406E+03  0.00000000000E+00 0.  1.
         14    1    6    6    0    0  0.41649284484E+01 -0.39117201117E+02 -0.12558080640E+03  0.13159802806E+03  0.00000000000E+00 0. -1.
         -5    1    3    3    0  503  0.30234961480E+01 -0.37464405710E+02 -0.35917538371E+02  0.52200409834E+02  0.47000000000E+01 0.  1.
         13    1    4    4    0    0 -0.12581755940E+03  0.98583438078E+02 -0.13313621962E+03  0.20802405027E+03  0.00000000000E+00 0. -1.
        -14    1    4    4    0    0 -0.35899116919E+02  0.43883684865E+00 -0.78280250259E+02  0.86120478134E+02  0.00000000000E+00 0.  1.
</event>
<event>
12    1  0.8416569E-002  0.2995560E+03  0.7818608E-02  0.1085804E+00
         21   -1    0    0  501  502  0.00000000000E+00  0.00000000000E+00  0.32441325918E+03  0.32441325918E+03  0.00000000000E+00 0. -1.
         21   -1    0    0  502  503 -0.00000000000E+00 -0.00000000000E+00 -0.27729251109E+03  0.27729251109E+03  0.00000000000E+00 0. -1.
         -6    2    1    2    0  503 -0.55230513285E+02 -0.23656076372E+03 -0.85783461220E+01  0.29967878211E+03  0.17527800744E+03 0.  0.
        -24    2    3    3    0    0 -0.33325713182E+02 -0.17416771844E+03  0.60364587830E+02  0.20403396777E+03  0.80876320616E+02 0.  0.
          6    2    1    2  501    0  0.55230513285E+02  0.23656076372E+03  0.55699094209E+02  0.30202698817E+03  0.17060629518E+03 0.  0.
         24    2    5    5    0    0 -0.20977423613E+02  0.10691780250E+03  0.77080136698E+02  0.15005927443E+03  0.68592780792E+02 0.  0.
          5    1    5    5  501    0  0.76207936897E+02  0.12964296122E+03 -0.21381042490E+02  0.15196771374E+03  0.47000000000E+01 0. -1.
        -13    1    6    6    0    0 -0.58680254166E+01  0.20774601306E+01 -0.10774227136E+02  0.12443212337E+02  0.00000000000E+00 0.  1.
         14    1    6    6    0    0 -0.15109398196E+02  0.10484034237E+03  0.87854363834E+02  0.13761606209E+03  0.00000000000E+00 0. -1.
         -5    1    3    3    0  503 -0.21904800103E+02 -0.62393045280E+02 -0.68942933952E+02  0.95644814332E+02  0.47000000000E+01 0.  1.
         13    1    4    4    0    0 -0.24993039913E+02 -0.14742078974E+03  0.14414963582E+02  0.15021761703E+03  0.00000000000E+00 0. -1.
        -14    1    4    4    0    0 -0.83326732694E+01 -0.26746928698E+02  0.45949624248E+02  0.53816350742E+02  0.00000000000E+00 0.  1.
</event>
<event>
12    1  0.8416569E-002  0.2216127E+03  0.7818608E-02  0.1132704E+00
         21   -1    0    0  503  502  0.00000000000E+00  0.00000000000E+00  0.41288790886E+03  0.41288790886E+03  0.00000000000E+00 0.  1.
         21   -1    0    0  501  503 -0.00000000000E+00 -0.00000000000E+00 -0.13916700002E+03  0.13916700002E+03  0.00000000000E+00 0. -1.
          6    2    1    2  501    0  0.13205904106E+03  0.45623646392E+02  0.31538685417E+02  0.22384564025E+03  0.17202056431E+03 0.  0.
         24    2    3    3    0    0  0.10690418585E+03  0.80798711363E+02  0.63355737362E+02  0.16995253558E+03  0.83144321414E+02 0.  0.
         -6    2    1    2    0  502 -0.13205904106E+03 -0.45623646392E+02  0.24218222342E+03  0.32820926863E+03  0.17189527984E+03 0.  0.
        -24    2    5    5    0    0 -0.14978055718E+03  0.45839146280E+00  0.20805187073E+03  0.26800480599E+03  0.78144543561E+02 0.  0.
          5    1    3    3  501    0  0.25154855216E+02 -0.35175064971E+02 -0.31817051945E+02  0.53893104672E+02  0.47000000000E+01 0. -1.
        -11    1    4    4    0    0  0.37145797109E+02  0.65021942627E+02  0.63881768084E+02  0.98430399569E+02  0.00000000000E+00 0.  1.
         12    1    4    4    0    0  0.69758388738E+02  0.15776768736E+02 -0.52603072138E+00  0.71522136010E+02  0.00000000000E+00 0. -1.
         -5    1    5    5    0  502  0.17721516114E+02 -0.46082037855E+02  0.34130352697E+02  0.60204462637E+02  0.47000000000E+01 0.  1.
         13    1    6    6    0    0 -0.72960078728E+02  0.28150455450E+02  0.58683038031E+02  0.97771776001E+02  0.00000000000E+00 0. -1.
        -14    1    6    6    0    0 -0.76820478449E+02 -0.27692063987E+02  0.14936883270E+03  0.17023302999E+03  0.00000000000E+00 0.  1.
</event>
<event>
12    1  0.8416569E-002  0.1760942E+03  0.7818608E-02  0.1171760E+00
         21   -1    0    0  503  502  0.00000000000E+00  0.00000000000E+00  0.28968849743E+03  0.28968849743E+03  0.00000000000E+00 0. -1.
         21   -1    0    0  501  503 -0.00000000000E+00 -0.00000000000E+00 -0.12234634117E+03  0.12234634117E+03  0.00000000000E+00 0.  1.
          6    2    1    2  501    0  0.11907848987E+02  0.37111763395E+02  0.10205298716E+02  0.17638963418E+03  0.17172674537E+03 0.  0.
         24    2    3    3    0    0 -0.47904844734E+01  0.27386934348E+02 -0.59237254419E+02  0.10415553679E+03  0.81032898367E+02 0.  0.
         -6    2    1    2    0  502 -0.11907848987E+02 -0.37111763395E+02  0.15713685755E+03  0.23564520441E+03  0.17122380242E+03 0.  0.
        -24    2    5    5    0    0 -0.54756280613E+01  0.45830214161E+02  0.64311903867E+02  0.11090825266E+03  0.77680296707E+02 0.  0.
          5    1    3    3  501    0  0.16698333460E+02  0.97248290469E+01  0.69442553135E+02  0.72234097394E+02  0.47000000000E+01 0. -1.
        -11    1    4    4    0    0  0.17474316576E+02 -0.21736263146E+02 -0.63182918063E+01  0.28596113140E+02  0.00000000000E+00 0.  1.
         12    1    4    4    0    0 -0.22264801050E+02  0.49123197494E+02 -0.52918962613E+02  0.75559423647E+02  0.00000000000E+00 0. -1.
         -5    1    5    5    0  502 -0.64322209254E+01 -0.82941977556E+02  0.92824953681E+02  0.12473695175E+03  0.47000000000E+01 0.  1.
         13    1    6    6    0    0  0.32702777192E+01  0.50521998979E+02  0.78610421133E+02  0.93502756151E+02  0.00000000000E+00 0. -1.
        -14    1    6    6    0    0 -0.87459057805E+01 -0.46917848173E+01 -0.14298517267E+02  0.17405496509E+02  0.00000000000E+00 0.  1.
</event>
<event>
12    1  0.8416569E-002  0.2672665E+03  0.7818608E-02  0.1103018E+00
         21   -1    0    0  503  502  0.00000000000E+00  0.00000000000E+00  0.11726809248E+03  0.11726809248E+03  0.00000000000E+00 0. -1.
         21   -1    0    0  501  503 -0.00000000000E+00 -0.00000000000E+00 -0.71917884467E+03  0.71917884467E+03  0.00000000000E+00 0.  1.
          6    2    1    2  501    0 -0.15923202187E+03  0.12602867762E+03 -0.46698761878E+03  0.53806021663E+03  0.17376218302E+03 0.  0.
         24    2    3    3    0    0 -0.15120565966E+03  0.12432349404E+03 -0.47856029105E+03  0.52311542206E+03  0.79437459348E+02 0.  0.
         -6    2    1    2    0  502  0.15923202187E+03 -0.12602867762E+03 -0.13492313340E+03  0.29838672052E+03  0.17202418053E+03 0.  0.
        -24    2    5    5    0    0  0.18747821670E+03 -0.12152309913E+03 -0.12187847536E+03  0.26659991723E+03  0.79405338280E+02 0.  0.
          5    1    3    3  501    0 -0.80263622039E+01  0.17051835802E+01  0.11572672263E+02  0.14944794565E+02  0.47000000000E+01 0. -1.
        -11    1    4    4    0    0 -0.11976149100E+03  0.13041229755E+03 -0.37467642371E+03  0.41440632785E+03  0.00000000000E+00 0.  1.
         12    1    4    4    0    0 -0.31444168666E+02 -0.60888035125E+01 -0.10388386734E+03  0.10870909421E+03  0.00000000000E+00 0. -1.
         -5    1    5    5    0  502 -0.28246194836E+02 -0.45055784842E+01 -0.13044658038E+02  0.31786803292E+02  0.47000000000E+01 0.  1.
         11    1    6    6    0    0  0.17795958528E+03 -0.83885914331E+02 -0.11260480681E+03  0.22668547182E+03  0.00000000000E+00 0. -1.
        -12    1    6    6    0    0  0.95186314253E+01 -0.37637184804E+02 -0.92736685560E+01  0.39914445413E+02  0.00000000000E+00 0.  1.
</event>
<event>
12    1  0.8416569E-002  0.1743874E+03  0.7818608E-02  0.1174325E+00
         21   -1    0    0  501  502  0.00000000000E+00  0.00000000000E+00  0.43294309243E+02  0.43294309243E+02  0.00000000000E+00 0.  1.
         21   -1    0    0  502  503 -0.00000000000E+00 -0.00000000000E+00 -0.69801051324E+03  0.69801051324E+03  0.00000000000E+00 0.  1.
         -6    2    1    2    0  503 -0.10368076021E+02  0.24391224242E+02 -0.37014385941E+03  0.40754983921E+03  0.16848728723E+03 0.  0.
        -24    2    3    3    0    0 -0.60744868112E+02  0.33779688105E+01 -0.15251604732E+03  0.18313207547E+03  0.81085527071E+02 0.  0.
          6    2    1    2  501    0  0.10368076021E+02 -0.24391224242E+02 -0.28457234458E+03  0.33375498327E+03  0.17236165681E+03 0.  0.
         24    2    5    5    0    0  0.37241741505E+01 -0.62145396335E+02 -0.27643867400E+03  0.29428644467E+03  0.79437090048E+02 0.  0.
          5    1    5    5  501    0  0.66439018704E+01  0.37754172093E+02 -0.81336705866E+01  0.39468538606E+02  0.47000000000E+01 0. -1.
        -11    1    6    6    0    0 -0.55312680488E+01 -0.66918662338E+02 -0.12005897615E+03  0.13756038692E+03  0.00000000000E+00 0.  1.
         12    1    6    6    0    0  0.92554421993E+01  0.47732660034E+01 -0.15637969784E+03  0.15672605774E+03  0.00000000000E+00 0. -1.
         -5    1    3    3    0  503  0.50376792091E+02  0.21013255431E+02 -0.21762781209E+03  0.22441776374E+03  0.47000000000E+01 0.  1.
         13    1    4    4    0    0 -0.21147243372E+02  0.24419987388E+02 -0.12802679603E+03  0.13203939635E+03  0.00000000000E+00 0. -1.
        -14    1    4    4    0    0 -0.39597624741E+02 -0.21042018578E+02 -0.24489251286E+02  0.51092679118E+02  0.00000000000E+00 0.  1.
</event>
<event>
12    1  0.8416569E-002  0.1944671E+03  0.7818608E-02  0.1154729E+00
         21   -1    0    0  503  502  0.00000000000E+00  0.00000000000E+00  0.12591151615E+03  0.12591151615E+03  0.00000000000E+00 0. -1.
         21   -1    0    0  501  503 -0.00000000000E+00 -0.00000000000E+00 -0.41794126755E+03  0.41794126755E+03  0.00000000000E+00 0. -1.
          6    2    1    2  501    0 -0.25510056829E+02 -0.85479469373E+02 -0.29155944195E+03  0.35046306205E+03  0.17280030957E+03 0.  0.
         24    2    3    3    0    0  0.14824114308E+02 -0.11032183852E+03 -0.15723371387E+03  0.20795172955E+03  0.78299544227E+02 0.  0.
         -6    2    1    2    0  502  0.25510056829E+02  0.85479469373E+02 -0.47030943713E+00  0.19338972165E+03  0.17158630646E+03 0.  0.
        -24    2    5    5    0    0  0.74005747221E+02  0.73648988922E+02  0.30106543376E+02  0.13466301408E+03  0.79540550763E+02 0.  0.
          5    1    3    3  501    0 -0.40334171137E+02  0.24842369146E+02 -0.13432572808E+03  0.14251133250E+03  0.47000000000E+01 0. -1.
        -11    1    4    4    0    0  0.29705961512E+02 -0.10002676089E+02 -0.19527021142E+02  0.36929693108E+02  0.00000000000E+00 0.  1.
         12    1    4    4    0    0 -0.14881847205E+02 -0.10031916243E+03 -0.13770669273E+03  0.17102203644E+03  0.00000000000E+00 0. -1.
         -5    1    5    5    0  502 -0.48495690391E+02  0.11830480451E+02 -0.30576852813E+02  0.58726707571E+02  0.47000000000E+01 0.  1.
         13    1    6    6    0    0  0.31175684754E+02 -0.11638304633E+02 -0.35469313056E+01  0.33465716432E+02  0.00000000000E+00 0. -1.
        -14    1    6    6    0    0  0.42830062466E+02  0.85287293555E+02  0.33653474681E+02  0.10119729765E+03  0.00000000000E+00 0.  1.
</event>
<event>
12    1  0.8416569E-002  0.1736691E+03  0.7818608E-02  0.1174742E+00
         21   -1    0    0  503  502  0.00000000000E+00  0.00000000000E+00  0.18707458294E+02  0.18707458294E+02  0.00000000000E+00 0. -1.
         21   -1    0    0  501  503 -0.00000000000E+00 -0.00000000000E+00 -0.24257870395E+04  0.24257870395E+04  0.00000000000E+00 0. -1.
          6    2    1    2  501    0  0.45943720389E+01 -0.13750894638E+01 -0.19158079751E+04  0.19234294928E+04  0.17099069328E+03 0.  0.
         24    2    3    3    0    0  0.27532728659E+02  0.60799828413E+02 -0.10955542538E+04  0.11004895521E+04  0.79896564883E+02 0.  0.
         -6    2    1    2    0  502 -0.45943720389E+01  0.13750894638E+01 -0.49127160609E+03  0.52106500498E+03  0.17360284945E+03 0.  0.
        -24    2    5    5    0    0 -0.59316958237E+02 -0.10899025193E+02 -0.40863256691E+03  0.42108242586E+03  0.81807972377E+02 0.  0.
          5    1    3    3  501    0 -0.22938356620E+02 -0.62174917876E+02 -0.82025372135E+03  0.82293994071E+03  0.47000000000E+01 0. -1.
        -13    1    4    4    0    0 -0.15716152173E+02  0.52756298814E+02 -0.43448667149E+03  0.43795992077E+03  0.00000000000E+00 0.  1.
         14    1    4    4    0    0  0.43248880832E+02  0.80435295990E+01 -0.66106758231E+03  0.66252963137E+03  0.00000000000E+00 0. -1.
         -5    1    5    5    0  502  0.54722586198E+02  0.12274114656E+02 -0.82639039185E+02  0.99982579123E+02  0.47000000000E+01 0.  1.
         13    1    6    6    0    0 -0.30413456097E+02  0.10151883090E+02 -0.42653041788E+02  0.53360294375E+02  0.00000000000E+00 0. -1.
        -14    1    6    6    0    0 -0.28903502139E+02 -0.21050908282E+02 -0.36597952512E+03  0.36772213148E+03  0.00000000000E+00 0.  1.
</event>
<event>
12    1  0.8416569E-002  0.1902180E+03  0.7818608E-02  0.1159392E+00
         21   -1    0    0  503  502  0.00000000000E+00  0.00000000000E+00  0.33193583538E+03  0.33193583538E+03  0.00000000000E+00 0.  1.
         21   -1    0    0  501  503 -0.00000000000E+00 -0.00000000000E+00 -0.26166429084E+03  0.26166429084E+03  0.00000000000E+00 0.  1.
          6    2    1    2  501    0 -0.29063096316E+02 -0.66389585364E+02 -0.19344683488E+03  0.27130159460E+03  0.17587107976E+03 0.  0.
         24    2    3    3    0    0 -0.66260197098E+02 -0.77844021569E+02 -0.82358326397E+02  0.15349847439E+03  0.79553644155E+02 0.  0.
         -6    2    1    2    0  502  0.29063096316E+02  0.66389585364E+02  0.26371837942E+03  0.32229853162E+03  0.17051897028E+03 0.  0.
        -24    2    5    5    0    0  0.56216415420E+02  0.76351664216E+02  0.26560645441E+03  0.29293527941E+03  0.79211282707E+02 0.  0.
          5    1    3    3  501    0  0.37197100782E+02  0.11454436205E+02 -0.11108850849E+03  0.11780312022E+03  0.47000000000E+01 0. -1.
        -11    1    4    4    0    0 -0.56057195435E+02 -0.13690719244E+02 -0.63617303475E+02  0.85889500260E+02  0.00000000000E+00 0.  1.
         12    1    4    4    0    0 -0.10203001663E+02 -0.64153302326E+02 -0.18741022922E+02  0.67608974126E+02  0.00000000000E+00 0. -1.
         -5    1    5    5    0  502 -0.27153319104E+02 -0.99620788522E+01 -0.18880749820E+01  0.29363252213E+02  0.47000000000E+01 0.  1.
         11    1    6    6    0    0 -0.17914320961E+02  0.25482916846E+02  0.45165407130E+02  0.54865434908E+02  0.00000000000E+00 0. -1.
        -12    1    6    6    0    0  0.74130736381E+02  0.50868747370E+02  0.22044104728E+03  0.23806984450E+03  0.00000000000E+00 0.  1.
</event>
<event>
12    1  0.8416569E-002  0.1990382E+03  0.7818608E-02  0.1151499E+00
         21   -1    0    0  501  502  0.00000000000E+00  0.00000000000E+00  0.35296538320E+02  0.35296538320E+02  0.00000000000E+00 0.  1.
         21   -1    0    0  502  503 -0.00000000000E+00 -0.00000000000E+00 -0.13138786278E+04  0.13138786278E+04  0.00000000000E+00 0. -1.
         -6    2    1    2    0  503 -0.98491920020E+02  0.20989145150E+02 -0.90694328492E+03  0.92759288812E+03  0.16655702179E+03 0.  0.
        -24    2    3    3    0    0 -0.56629073794E+02  0.71901021666E+01 -0.22828968663E+03  0.24749311018E+03  0.76668826765E+02 0.  0.
          6    2    1    2  501    0  0.98491920020E+02 -0.20989145150E+02 -0.37163880454E+03  0.42158227798E+03  0.17168288658E+03 0.  0.
         24    2    5    5    0    0  0.90111336809E+01  0.25642244430E+02 -0.24985538651E+03  0.26335905426E+03  0.78686415991E+02 0.  0.
          5    1    5    5  501    0  0.89480786339E+02 -0.46631389581E+02 -0.12178341803E+03  0.15822322372E+03  0.47000000000E+01 0. -1.
        -11    1    6    6    0    0  0.14730896168E+02  0.48271826003E+02 -0.10344887075E+03  0.11510359398E+03  0.00000000000E+00 0.  1.
         12    1    6    6    0    0 -0.57197624867E+01 -0.22629581573E+02 -0.14640651576E+03  0.14825546028E+03  0.00000000000E+00 0. -1.
         -5    1    3    3    0  503 -0.41862846226E+02  0.13799042984E+02 -0.67865359829E+03  0.68009977794E+03  0.47000000000E+01 0.  1.
         13    1    4    4    0    0 -0.74303584307E+02  0.10721952127E+02 -0.20300655229E+03  0.21644316384E+03  0.00000000000E+00 0. -1.
        -14    1    4    4    0    0  0.17674510513E+02 -0.35318499607E+01 -0.25283134338E+02  0.31049946344E+02  0.00000000000E+00 0.  1.
</event>
<event>
12    1  0.8416569E-002  0.1892820E+03  0.7818608E-02  0.1159300E+00
         21   -1    0    0  501  502  0.00000000000E+00  0.00000000000E+00  0.46555605861E+03  0.46555605861E+03  0.00000000000E+00 0. -1.
         21   -1    0    0  502  503 -0.00000000000E+00 -0.00000000000E+00 -0.78082795765E+02  0.78082795765E+02  0.00000000000E+00 0. -1.
         -6    2    1    2    0  503  0.75958146233E+02 -0.12461949300E+02  0.15693389627E+03  0.24587788347E+03  0.17292410365E+03 0.  0.
        -24    2    3    3    0    0  0.11898242476E+03 -0.56649695834E+01  0.11095211430E+03  0.18236645341E+03  0.82208529838E+02 0.  0.
          6    2    1    2  501    0 -0.75958146233E+02  0.12461949300E+02  0.23053936658E+03  0.29776097090E+03  0.17201237191E+03 0.  0.
         24    2    5    5    0    0  0.22862749403E+01  0.54453327705E+02  0.14967351009E+03  0.17756595415E+03  0.78467295741E+02 0.  0.
          5    1    5    5  501    0 -0.78244421174E+02 -0.41991378405E+02  0.80865856486E+02  0.12019501674E+03  0.47000000000E+01 0. -1.
        -11    1    6    6    0    0 -0.15727914618E+02  0.39578324430E+02  0.14815494246E+03  0.15415478598E+03  0.00000000000E+00 0.  1.
         12    1    6    6    0    0  0.18014189558E+02  0.14875003274E+02  0.15185676260E+01  0.23411168178E+02  0.00000000000E+00 0. -1.
         -5    1    3    3    0  503 -0.43024278529E+02 -0.67969797165E+01  0.45981781965E+02  0.63511430065E+02  0.47000000000E+01 0.  1.
         11    1    4    4    0    0  0.78658603432E+02  0.47582539735E+01  0.11618699021E+03  0.14038957785E+03  0.00000000000E+00 0. -1.
        -12    1    4    4    0    0  0.40323821330E+02 -0.10423223557E+02 -0.52348759076E+01  0.41976875559E+02  0.00000000000E+00 0.  1.
</event>
<event>
12    1  0.8416569E-002  0.1727449E+03  0.7818608E-02  0.1175274E+00
         21   -1    0    0  501  502  0.00000000000E+00  0.00000000000E+00  0.78761731491E+02  0.78761731491E+02  0.00000000000E+00 0. -1.
         21   -1    0    0  502  503 -0.00000000000E+00 -0.00000000000E+00 -0.58425508213E+03  0.58425508213E+03  0.00000000000E+00 0. -1.
         -6    2    1    2    0  503  0.38594636963E+01 -0.14715252879E+02 -0.45083069843E+03  0.48279302694E+03  0.17207368795E+03 0.  0.
        -24    2    3    3    0    0  0.40703950517E+02  0.16866379489E+02 -0.13708362506E+03  0.16528045748E+03  0.81144457737E+02 0.  0.
          6    2    1    2  501    0 -0.38594636963E+01  0.14715252879E+02 -0.54662652209E+02  0.18022378669E+03  0.17105897700E+03 0.  0.
         24    2    5    5    0    0  0.18230315683E+01 -0.47782237140E+02 -0.69033698610E+02  0.11567269075E+03  0.79549067954E+02 0.  0.
          5    1    5    5  501    0 -0.56824952646E+01  0.62497490020E+02  0.14371046401E+02  0.64551095931E+02  0.47000000000E+01 0. -1.
        -13    1    6    6    0    0  0.66800771118E+01  0.94310071485E+01  0.11802774821E+02  0.16518862537E+02  0.00000000000E+00 0.  1.
         14    1    6    6    0    0 -0.48570455435E+01 -0.57213244289E+02 -0.80836473431E+02  0.99153828218E+02  0.00000000000E+00 0. -1.
         -5    1    3    3    0  503 -0.36844486821E+02 -0.31581632369E+02 -0.31374707337E+03  0.31751256945E+03  0.47000000000E+01 0.  1.
         13    1    4    4    0    0  0.37251677556E+02 -0.28151172877E+02 -0.78205272761E+02  0.91083701630E+02  0.00000000000E+00 0. -1.
        -14    1    4    4    0    0  0.34522729619E+01  0.45017552366E+02 -0.58878352297E+02  0.74196755851E+02  0.00000000000E+00 0.  1.
</event>
<event>
12    1  0.8416569E-002  0.2719112E+03  0.7818608E-02  0.1100202E+00
         21   -1    0    0  501  502  0.00000000000E+00  0.00000000000E+00  0.51706765585E+03  0.51706765585E+03  0.00000000000E+00 0. -1.
         21   -1    0    0  502  503 -0.00000000000E+00 -0.00000000000E+00 -0.16403779324E+03  0.16403779324E+03  0.00000000000E+00 0. -1.
         -6    2    1    2    0  503  0.12254463142E+03 -0.17083264821E+03  0.29860106776E+03  0.40380021388E+03  0.17231086641E+03 0.  0.
        -24    2    3    3    0    0  0.13002513313E+02 -0.41662625993E+02  0.16209463447E+03  0.18622156923E+03  0.80616143333E+02 0.  0.
          6    2    1    2  501    0 -0.12254463142E+03  0.17083264821E+03  0.54428794847E+02  0.27730523521E+03  0.17243758112E+03 0.  0.
         24    2    5    5    0    0 -0.13780159538E+03  0.94542408384E+02  0.46641577618E+01  0.18483045624E+03  0.78822563486E+02 0.  0.
          5    1    5    5  501    0  0.15256963954E+02  0.76290239824E+02  0.49764637085E+02  0.92474778971E+02  0.47000000000E+01 0. -1.
        -13    1    6    6    0    0  0.85944110528E+01 -0.24569878837E+01  0.21667016714E+01  0.91975696212E+01  0.00000000000E+00 0.  1.
         14    1    6    6    0    0 -0.14639600643E+03  0.96999396267E+02  0.24974560904E+01  0.17563288662E+03  0.00000000000E+00 0. -1.
         -5    1    3    3    0  503  0.10954211811E+03 -0.12917002222E+03  0.13650643329E+03  0.21757864465E+03  0.47000000000E+01 0.  1.
         13    1    4    4    0    0  0.37438420404E+02 -0.51997477311E+02  0.10092557211E+03  0.11954640971E+03  0.00000000000E+00 0. -1.
        -14    1    4    4    0    0 -0.24435907090E+02  0.10334851318E+02  0.61169062359E+02  0.66675159520E+02  0.00000000000E+00 0.  1.
</event>
<event>
12    1  0.8416569E-002  0.2034355E+03  0.7818608E-02  0.1147645E+00
         21   -1    0    0  503  502  0.00000000000E+00  0.00000000000E+00  0.57265834740E+02  0.57265834740E+02  0.00000000000E+00 0. -1.
         21   -1    0    0  501  503 -0.00000000000E+00 -0.00000000000E+00 -0.95681132203E+03  0.95681132203E+03  0.00000000000E+00 0. -1.
          6    2    1    2  501    0  0.98287395777E+02 -0.27107954145E+02 -0.71057379845E+03  0.73912186566E+03  0.17604191518E+03 0.  0.
         24    2    3    3    0    0  0.13729146743E+03 -0.81449278385E+01 -0.56449343279E+03  0.58666702905E+03  0.81302401156E+02 0.  0.
         -6    2    1    2    0  502 -0.98287395777E+02  0.27107954145E+02 -0.18897168883E+03  0.27495529111E+03  0.17174067538E+03 0.  0.
        -24    2    5    5    0    0 -0.11383407152E+03 -0.26461633145E+02 -0.12519587602E+03  0.19009750355E+03  0.82490239524E+02 0.  0.
          5    1    3    3  501    0 -0.39004071658E+02 -0.18963026306E+02 -0.14608036567E+03  0.15245483661E+03  0.47000000000E+01 0. -1.
        -11    1    4    4    0    0  0.28287772825E+02  0.32175693472E+02 -0.17758467734E+03  0.18267947604E+03  0.00000000000E+00 0.  1.
         12    1    4    4    0    0  0.10900369461E+03 -0.40320621310E+02 -0.38690875545E+03  0.40398755301E+03  0.00000000000E+00 0. -1.
         -5    1    5    5    0  502  0.15546675739E+02  0.53569587290E+02 -0.63775812816E+02  0.84857787558E+02  0.47000000000E+01 0.  1.
         13    1    6    6    0    0 -0.90211295671E+02  0.14584828085E+02 -0.59256259755E+02  0.10891326548E+03  0.00000000000E+00 0. -1.
        -14    1    6    6    0    0 -0.23622775846E+02 -0.41046461231E+02 -0.65939616262E+02  0.81184238070E+02  0.00000000000E+00 0.  1.
</event>
<event>
12    1  0.8416569E-002  0.1917116E+03  0.7818608E-02  0.1157276E+00
         21   -1    0    0  501  502  0.00000000000E+00  0.00000000000E+00  0.44543974870E+02  0.44543974870E+02  0.00000000000E+00 0. -1.
         21   -1    0    0  502  503 -0.00000000000E+00 -0.00000000000E+00 -0.10023992322E+04  0.10023992322E+04  0.00000000000E+00 0. -1.
         -6    2    1    2    0  503  0.57138721884E+02  0.62171249227E+02 -0.70480843862E+03  0.73041651751E+03  0.17211407882E+03 0.  0.
        -24    2    3    3    0    0  0.13878575292E+02 -0.13830073552E+02 -0.17318962320E+03  0.19163242694E+03  0.79652091508E+02 0.  0.
          6    2    1    2  501    0 -0.57138721884E+02 -0.62171249227E+02 -0.25304681867E+03  0.31652668953E+03  0.17037122695E+03 0.  0.
         24    2    5    5    0    0  0.33281801218E+02 -0.27854940085E+02 -0.11209088228E+03  0.14551749072E+03  0.82020718334E+02 0.  0.
          5    1    5    5  501    0 -0.90420523103E+02 -0.34316309141E+02 -0.14095593639E+03  0.17100919880E+03  0.47000000000E+01 0. -1.
        -11    1    6    6    0    0  0.90027307447E+01  0.28948868068E+02 -0.28774327234E+02  0.41797703658E+02  0.00000000000E+00 0.  1.
         12    1    6    6    0    0  0.24279070473E+02 -0.56803808153E+02 -0.83316555048E+02  0.10371978707E+03  0.00000000000E+00 0. -1.
         -5    1    3    3    0  503  0.43260146592E+02  0.76001322779E+02 -0.53161881541E+03  0.53878409057E+03  0.47000000000E+01 0.  1.
         11    1    4    4    0    0 -0.11045382834E+02  0.29715166004E+02 -0.72796625257E+02  0.79399875450E+02  0.00000000000E+00 0. -1.
        -12    1    4    4    0    0  0.24923958127E+02 -0.43545239555E+02 -0.10039299795E+03  0.11223255149E+03  0.00000000000E+00 0.  1.
</event>
<event>
12    1  0.8416569E-002  0.2382135E+03  0.7818608E-02  0.1120999E+00
         21   -1    0    0  503  502  0.00000000000E+00  0.00000000000E+00  0.43935998164E+02  0.43935998164E+02  0.00000000000E+00 0.  1.
         21   -1    0    0  501  503 -0.00000000000E+00 -0.00000000000E+00 -0.14155597673E+04  0.14155597673E+04  0.00000000000E+00 0. -1.
          6    2    1    2  501    0  0.11260176839E+03 -0.12020551700E+03 -0.90216282651E+03  0.93308276679E+03  0.17209636712E+03 0.  0.
         24    2    3    3    0    0  0.67169356467E+02 -0.18951275537E+02 -0.63689597177E+03  0.64549778858E+03  0.78485940837E+02 0.  0.
         -6    2    1    2    0  502 -0.11260176839E+03  0.12020551700E+03 -0.46946094262E+03  0.52641299867E+03  0.17201320868E+03 0.  0.
        -24    2    5    5    0    0 -0.27709403036E+02  0.11220696499E+02 -0.12055175464E+03  0.15112095738E+03  0.86087764328E+02 0.  0.
          5    1    3    3  501    0  0.45432411927E+02 -0.10125424147E+03 -0.26526685474E+03  0.28758497821E+03  0.47000000000E+01 0. -1.
        -11    1    4    4    0    0  0.20602883048E+02  0.21168963038E+02 -0.81080680102E+02  0.86294150855E+02  0.00000000000E+00 0.  1.
         12    1    4    4    0    0  0.46566473419E+02 -0.40120238575E+02 -0.55581529167E+03  0.55920363773E+03  0.00000000000E+00 0. -1.
         -5    1    5    5    0  502 -0.84892365358E+02  0.10898482050E+03 -0.34890918798E+03  0.37529204128E+03  0.47000000000E+01 0.  1.
         13    1    6    6    0    0  0.26810808002E+01  0.24251423094E+02 -0.11503930056E+03  0.11759830096E+03  0.00000000000E+00 0. -1.
        -14    1    6    6    0    0 -0.30390483836E+02 -0.13030726594E+02 -0.55124540805E+01  0.33522656419E+02  0.00000000000E+00 0.  1.
</event>
<event>
12    1  0.8416569E-002  0.2023156E+03  0.7818608E-02  0.1150240E+00
         21   -1    0    0  503  502  0.00000000000E+00  0.00000000000E+00  0.20806935567E+04  0.20806935567E+04  0.00000000000E+00 0. -1.
         21   -1    0    0  501  503 -0.00000000000E+00 -0.00000000000E+00 -0.25157505346E+02  0.25157505346E+02  0.00000000000E+00 0. -1.
          6    2    1    2  501    0  0.33234671561E+01 -0.62338337545E+02  0.46760028072E+03  0.50507887000E+03  0.18043704893E+03 0.  0.
         24    2    3    3    0    0  0.70099029838E+02 -0.49812422190E+02  0.34702410282E+03  0.36659934442E+03  0.81081440556E+02 0.  0.
         -6    2    1    2    0  502 -0.33234671561E+01  0.62338337545E+02  0.15879357706E+04  0.16007721920E+04  0.19244346031E+03 0.  0.
        -24    2    5    5    0    0  0.36936128604E+02 -0.37388222305E+02  0.73174947543E+03  0.73784503180E+03  0.78713654503E+02 0.  0.
          5    1    3    3  501    0 -0.66775562682E+02 -0.12525915355E+02  0.12057617790E+03  0.13847952558E+03  0.47000000000E+01 0. -1.
        -11    1    4    4    0    0  0.36114655541E+01 -0.50645566288E+02  0.12793179639E+03  0.13763924075E+03  0.00000000000E+00 0.  1.
         12    1    4    4    0    0  0.66487564284E+02  0.83314409768E+00  0.21909230643E+03  0.22896010367E+03  0.00000000000E+00 0. -1.
         -5    1    5    5    0  502 -0.40259595760E+02  0.99726559850E+02  0.85618629517E+03  0.86292716021E+03  0.47000000000E+01 0.  1.
         11    1    6    6    0    0  0.11663078482E+01  0.18262659363E+02  0.34447979043E+03  0.34496552149E+03  0.00000000000E+00 0. -1.
        -12    1    6    6    0    0  0.35769820756E+02 -0.55650881668E+02  0.38726968500E+03  0.39287951031E+03  0.00000000000E+00 0.  1.
</event>
<event>
12    1  0.8416569E-002  0.1761736E+03  0.7818608E-02  0.1172125E+00
         21   -1    0    0  501  502  0.00000000000E+00  0.00000000000E+00  0.24686660041E+03  0.24686660041E+03  0.00000000000E+00 0.  1.
         21   -1    0    0  502  503 -0.00000000000E+00 -0.00000000000E+00 -0.14565770517E+03  0.14565770517E+03  0.00000000000E+00 0.  1.
         -6    2    1    2    0  503  0.14330217181E+02  0.27315998968E+02 -0.25146998770E+02  0.17572266721E+03  0.17115655202E+03 0.  0.
        -24    2    3    3    0    0  0.23104951225E+02  0.67659952730E+01  0.50107406918E+02  0.97080349181E+02  0.79587841445E+02 0.  0.
          6    2    1    2  501    0 -0.14330217181E+02 -0.27315998968E+02  0.12635589400E+03  0.21680163837E+03  0.17345206695E+03 0.  0.
         24    2    5    5    0    0  0.23580210948E+02 -0.76364242611E+02  0.62307015567E+02  0.12754201931E+03  0.77442098397E+02 0.  0.
          5    1    5    5  501    0 -0.37910428130E+02  0.49048243643E+02  0.64048878437E+02  0.89259619058E+02  0.47000000000E+01 0. -1.
        -11    1    6    6    0    0  0.11855907036E+01 -0.51183073257E+01  0.51867871981E+02  0.52133279573E+02  0.00000000000E+00 0.  1.
         12    1    6    6    0    0  0.22394620245E+02 -0.71245935285E+02  0.10439143585E+02  0.75408739741E+02  0.00000000000E+00 0. -1.
         -5    1    3    3    0  503 -0.87747340433E+01  0.20550003695E+02 -0.75254405687E+02  0.78642318028E+02  0.47000000000E+01 0.  1.
         11    1    4    4    0    0 -0.25101613164E+02 -0.95108841842E+01  0.17724918147E+01  0.26901480046E+02  0.00000000000E+00 0. -1.
        -12    1    4    4    0    0  0.48206564389E+02  0.16276879457E+02  0.48334915103E+02  0.70178869135E+02  0.00000000000E+00 0.  1.
</event>
<event>
12    1  0.8416569E-002  0.3564702E+03  0.7818608E-02  0.1059999E+00
         21   -1    0    0  503  502  0.00000000000E+00  0.00000000000E+00  0.73969739757E+03  0.73969739757E+03  0.00000000000E+00 0. -1.
         21   -1    0    0  501  503 -0.00000000000E+00 -0.00000000000E+00 -0.56396549478E+03  0.56396549478E+03  0.00000000000E+00 0.  1.
          6    2    1    2  501    0 -0.26983444267E+03  0.15621057827E+03 -0.45572853664E+03  0.57853305982E+03  0.17262569617E+03 0.  0.
         24    2    3    3    0    0 -0.24308210732E+03  0.11229892031E+03 -0.27991629941E+03  0.39529563484E+03  0.78775287033E+02 0.  0.
         -6    2    1    2    0  502  0.26983444267E+03 -0.15621057827E+03  0.63146043943E+03  0.72512983252E+03  0.17279645896E+03 0.  0.
        -24    2    5    5    0    0  0.54946019624E+02 -0.91736966667E+02  0.22622632818E+03  0.26191211279E+03  0.77361923048E+02 0.  0.
          5    1    3    3  501    0 -0.26752335352E+02  0.43911657964E+02 -0.17581223723E+03  0.18323742498E+03  0.47000000000E+01 0. -1.
        -13    1    4    4    0    0 -0.17984694986E+03  0.11136588209E+03 -0.24256844791E+03  0.32184893504E+03  0.00000000000E+00 0.  1.
         14    1    4    4    0    0 -0.63235157462E+02  0.93303822226E+00 -0.37347851498E+02  0.73446699797E+02  0.00000000000E+00 0. -1.
         -5    1    5    5    0  502  0.21488842305E+03 -0.64473611606E+02  0.40523411125E+03  0.46321771974E+03  0.47000000000E+01 0.  1.
         11    1    6    6    0    0  0.27465691945E+02 -0.55913696441E+02  0.49666673004E+02  0.79671099472E+02  0.00000000000E+00 0. -1.
        -12    1    6    6    0    0  0.27480327678E+02 -0.35823270226E+02  0.17655965517E+03  0.18224101332E+03  0.00000000000E+00 0.  1.
</event>
<event>
12    1  0.8416569E-002  0.2294850E+03  0.7818608E-02  0.1127467E+00
         21   -1    0    0  503  502  0.00000000000E+00  0.00000000000E+00  0.79639656791E+02  0.79639656791E+02  0.00000000000E+00 0.  1.
         21   -1    0    0  501  503 -0.00000000000E+00 -0.00000000000E+00 -0.78740349549E+03  0.78740349549E+03  0.00000000000E+00 0.  1.
          6    2    1    2  501    0 -0.22690120466E+01 -0.14942985626E+03 -0.53079853910E+03  0.57724995501E+03  0.17069268023E+03 0.  0.
         24    2    3    3    0    0  0.10795682471E+02 -0.30057007170E+02 -0.34655606236E+03  0.35727735767E+03  0.80783881470E+02 0.  0.
         -6    2    1    2    0  502  0.22690120466E+01  0.14942985626E+03 -0.17696529959E+03  0.28979319727E+03  0.17415208747E+03 0.  0.
        -24    2    5    5    0    0 -0.49525385374E+02  0.79704988700E+02 -0.39131880911E+02  0.12680743696E+03  0.75783724795E+02 0.  0.
          5    1    3    3  501    0 -0.13064694518E+02 -0.11937284909E+03 -0.18424247675E+03  0.21997259734E+03  0.47000000000E+01 0. -1.
        -11    1    4    4    0    0  0.13468208398E+02 -0.48852694616E+02 -0.12459829079E+03  0.13450915388E+03  0.00000000000E+00 0.  1.
         12    1    4    4    0    0 -0.26725259266E+01  0.18795687446E+02 -0.22195777157E+03  0.22276820379E+03  0.00000000000E+00 0. -1.
         -5    1    5    5    0  502  0.51794397420E+02  0.69724867558E+02 -0.13783341868E+03  0.16298576032E+03  0.47000000000E+01 0.  1.
         13    1    6    6    0    0 -0.23519274432E+02 -0.88133658341E+01 -0.21098286271E+02  0.32801972055E+02  0.00000000000E+00 0. -1.
        -14    1    6    6    0    0 -0.26006110942E+02  0.88518354534E+02 -0.18033594640E+02  0.94005464902E+02  0.00000000000E+00 0.  1.
</event>
<event>
12    1  0.8416569E-002  0.1777219E+03  0.7818608E-02  0.1171414E+00
         21   -1    0    0  501  502  0.00000000000E+00  0.00000000000E+00  0.81178668871E+02  0.81178668871E+02  0.00000000000E+00 0. -1.
         21   -1    0    0  502  503 -0.00000000000E+00 -0.00000000000E+00 -0.87428947630E+03  0.87428947630E+03  0.00000000000E+00 0. -1.
         -6    2    1    2    0  503 -0.17148837957E+02  0.23551140692E+02 -0.75411222210E+03  0.77351772380E+03  0.16969291864E+03 0.  0.
        -24    2    3    3    0    0  0.39791917463E+02  0.56188537940E+02 -0.45394257854E+03  0.46622087344E+03  0.80978328736E+02 0.  0.
          6    2    1    2  501    0  0.17148837957E+02 -0.23551140692E+02 -0.38998585329E+02  0.18195042137E+03  0.17531778948E+03 0.  0.
         24    2    5    5    0    0 -0.56019946891E+02 -0.29763470384E+02 -0.17114228979E+02  0.10518272524E+03  0.82136534118E+02 0.  0.
          5    1    5    5  501    0  0.73168784848E+02  0.62123296918E+01 -0.21884356351E+02  0.76767696131E+02  0.47000000000E+01 0. -1.
        -11    1    6    6    0    0  0.12189310482E+02  0.15711372592E+02  0.45307083669E+01  0.20394946360E+02  0.00000000000E+00 0.  1.
         12    1    6    6    0    0 -0.68209257373E+02 -0.45474842976E+02 -0.21644937346E+02  0.84787778882E+02  0.00000000000E+00 0. -1.
         -5    1    3    3    0  503 -0.56940755420E+02 -0.32637397248E+02 -0.30016964356E+03  0.30729685036E+03  0.47000000000E+01 0.  1.
         11    1    4    4    0    0  0.32194357034E+02  0.73555869411E+02 -0.41741551603E+03  0.42506782468E+03  0.00000000000E+00 0. -1.
        -12    1    4    4    0    0  0.75975604287E+01 -0.17367331471E+02 -0.36527062510E+02  0.41153048763E+02  0.00000000000E+00 0.  1.
</event>
<event>
12    1  0.8416569E-002  0.1882957E+03  0.7818608E-02  0.1160467E+00
         21   -1    0    0  503  502  0.00000000000E+00  0.00000000000E+00  0.63706720410E+02  0.63706720410E+02  0.00000000000E+00 0.  1.
         21   -1    0    0  501  503 -0.00000000000E+00 -0.00000000000E+00 -0.65619253316E+03  0.65619253316E+03  0.00000000000E+00 0.  1.
          6    2    1    2  501    0  0.69864354998E+02  0.90244851062E+01 -0.43928058405E+03  0.47715021203E+03  0.17245991965E+03 0.  0.
         24    2    3    3    0    0  0.68226612116E+01  0.63054887627E+02 -0.22164085493E+03  0.24416377199E+03  0.80428921523E+02 0.  0.
         -6    2    1    2    0  502 -0.69864354998E+02 -0.90244851062E+01 -0.15320522870E+03  0.24274904154E+03  0.17462183608E+03 0.  0.
        -24    2    5    5    0    0 -0.83538876374E+02  0.39272441220E+02 -0.14832307261E+03  0.19209816716E+03  0.79880557407E+02 0.  0.
          5    1    3    3  501    0  0.63041693787E+02 -0.54030402521E+02 -0.21763972912E+03  0.23298644004E+03  0.47000000000E+01 0. -1.
        -11    1    4    4    0    0  0.25103057823E+02  0.60215009835E+02 -0.89603947978E+02  0.11083717073E+03  0.00000000000E+00 0.  1.
         12    1    4    4    0    0 -0.18280396611E+02  0.28398777923E+01 -0.13203690696E+03  0.13332660126E+03  0.00000000000E+00 0. -1.
         -5    1    5    5    0  502  0.13674521376E+02 -0.48296926326E+02 -0.48821560887E+01  0.50650874381E+02  0.47000000000E+01 0.  1.
         11    1    6    6    0    0 -0.42103187424E+02  0.46523108476E+02 -0.13347755347E+03  0.14749011931E+03  0.00000000000E+00 0. -1.
        -12    1    6    6    0    0 -0.41435688950E+02 -0.72506672555E+01 -0.14845519142E+02  0.44608047850E+02  0.00000000000E+00 0.  1.
</event>
<event>
12    1  0.8416569E-002  0.2535367E+03  0.7818608E-02  0.1111248E+00
         21   -1    0    0  501  502  0.00000000000E+00  0.00000000000E+00  0.64912652909E+03  0.64912652909E+03  0.00000000000E+00 0. -1.
         21   -1    0    0  502  503 -0.00000000000E+00 -0.00000000000E+00 -0.22118683154E+03  0.22118683154E+03  0.00000000000E+00 0.  1.
         -6    2    1    2    0  503 -0.17236793278E+03  0.69401187493E+02 -0.11013911614E+03  0.27549432865E+03  0.17099494478E+03 0.  0.
        -24    2    3    3    0    0 -0.16726062238E+03  0.53153814118E+01 -0.62697703841E+02  0.19545775725E+03  0.79172998715E+02 0.  0.
          6    2    1    2  501    0  0.17236793278E+03 -0.69401187493E+02  0.53807881369E+03  0.59481903197E+03  0.17249244037E+03 0.  0.
         24    2    5    5    0    0  0.47672275760E+02 -0.53273532570E+02  0.13156938431E+03  0.16928276524E+03  0.78964780574E+02 0.  0.
          5    1    5    5  501    0  0.12469565702E+03 -0.16127654923E+02  0.40650942938E+03  0.42553626674E+03  0.47000000000E+01 0. -1.
        -13    1    6    6    0    0 -0.10448403711E+02  0.37612920303E+01 -0.34326341914E+01  0.11623228267E+02  0.00000000000E+00 0.  1.
         14    1    6    6    0    0  0.58120679471E+02 -0.57034824600E+02  0.13500201850E+03  0.15765953697E+03  0.00000000000E+00 0. -1.
         -5    1    3    3    0  503 -0.51073104045E+01  0.64085806082E+02 -0.47441412298E+02  0.80036571400E+02  0.47000000000E+01 0.  1.
         11    1    4    4    0    0 -0.23272755824E+02 -0.20304229325E+02 -0.34876008260E+02  0.46585607695E+02  0.00000000000E+00 0. -1.
        -12    1    4    4    0    0 -0.14398786655E+03  0.25619610737E+02 -0.27821695581E+02  0.14887214956E+03  0.00000000000E+00 0.  1.
</event>
<event>
12    1  0.8416569E-002  0.4167613E+03  0.7818608E-02  0.1038163E+00
         21   -1    0    0  503  502  0.00000000000E+00  0.00000000000E+00  0.67822982969E+03  0.67822982969E+03  0.00000000000E+00 0. -1.
         21   -1    0    0  501  503 -0.00000000000E+00 -0.00000000000E+00 -0.32545147684E+03  0.32545147684E+03  0.00000000000E+00 0.  1.
          6    2    1    2  501    0  0.12919817567E+03  0.35732370711E+03 -0.55831568999E+02  0.42002724226E+03  0.17009797143E+03 0.  0.
         24    2    3    3    0    0  0.81553001452E+02  0.25840939116E+03 -0.10181060808E+03  0.30090433698E+03  0.82168817765E+02 0.  0.
         -6    2    1    2    0  502 -0.12919817567E+03 -0.35732370711E+03  0.40860992185E+03  0.58365406427E+03  0.17122382501E+03 0.  0.
        -24    2    5    5    0    0 -0.12931788143E+03 -0.16612060012E+03  0.22261639833E+03  0.31686890119E+03  0.80800194882E+02 0.  0.
          5    1    3    3  501    0  0.47645174220E+02  0.98914315953E+02  0.45979039082E+02  0.11912290528E+03  0.47000000000E+01 0. -1.
        -13    1    4    4    0    0  0.56081314928E+02  0.75987095149E+02 -0.60433294920E+02  0.11212196773E+03  0.00000000000E+00 0.  1.
         14    1    4    4    0    0  0.25471686524E+02  0.18242229601E+03 -0.41377313161E+02  0.18878236925E+03  0.00000000000E+00 0. -1.
         -5    1    5    5    0  502  0.11970575528E+00 -0.19120310699E+03  0.18599352351E+03  0.26678516309E+03  0.47000000000E+01 0.  1.
         11    1    6    6    0    0  0.34764952895E+01 -0.46172079821E+02  0.51874492365E+02  0.69533516613E+02  0.00000000000E+00 0. -1.
        -12    1    6    6    0    0 -0.13279437672E+03 -0.11994852029E+03  0.17074190597E+03  0.24733538457E+03  0.00000000000E+00 0.  1.
</event>
<event>
12    1  0.8416569E-002  0.2217840E+03  0.7818608E-02  0.1132901E+00
         21   -1    0    0  503  502  0.00000000000E+00  0.00000000000E+00  0.59978416009E+02  0.59978416009E+02  0.00000000000E+00 0. -1.
         21   -1    0    0  501  503 -0.00000000000E+00 -0.00000000000E+00 -0.10747196853E+04  0.10747196853E+04  0.00000000000E+00 0. -1.
          6    2    1    2  501    0  0.13564137051E+03 -0.37186342460E+02 -0.22595925492E+03  0.31532930516E+03  0.16909636409E+03 0.  0.
         24    2    3    3    0    0  0.14366468077E+03  0.11879611549E+02 -0.19846859303E+03  0.25832344720E+03  0.80997254792E+02 0.  0.
         -6    2    1    2    0  502 -0.13564137051E+03  0.37186342460E+02 -0.78878201433E+03  0.81936879611E+03  0.17148397141E+03 0.  0.
        -24    2    5    5    0    0 -0.67253649202E+02  0.52951282184E+02 -0.67946553952E+03  0.68937804485E+03  0.79004922001E+02 0.  0.
          5    1    3    3  501    0 -0.80233102598E+01 -0.49065954009E+02 -0.27490661898E+02  0.57005857961E+02  0.47000000000E+01 0. -1.
        -13    1    4    4    0    0  0.81557193628E+02 -0.33711160022E+02 -0.10255738387E+03  0.13529979723E+03  0.00000000000E+00 0.  1.
         14    1    4    4    0    0  0.62107487143E+02  0.45590771571E+02 -0.95911209152E+02  0.12302364997E+03  0.00000000000E+00 0. -1.
         -5    1    5    5    0  502 -0.68387721309E+02 -0.15764939724E+02 -0.10931647481E+03  0.12999075127E+03  0.47000000000E+01 0.  1.
         13    1    6    6    0    0 -0.84910228167E+02  0.37132958297E+02 -0.52897299590E+03  0.53702982583E+03  0.00000000000E+00 0. -1.
        -14    1    6    6    0    0  0.17656578964E+02  0.15818323887E+02 -0.15049254362E+03  0.15234821901E+03  0.00000000000E+00 0.  1.
</event>
<event>
12    1  0.8416569E-002  0.2978929E+03  0.7818608E-02  0.1086451E+00
         21   -1    0    0  501  502  0.00000000000E+00  0.00000000000E+00  0.20343101072E+03  0.20343101072E+03  0.00000000000E+00 0. -1.
         21   -1    0    0  502  503 -0.00000000000E+00 -0.00000000000E+00 -0.11054514462E+04  0.11054514462E+04  0.00000000000E+00 0. -1.
         -6    2    1    2    0  503  0.23787950314E+03  0.46279850210E+02 -0.96052181954E+03  0.10052995693E+04  0.17116242475E+03 0.  0.
        -24    2    3    3    0    0  0.71408995748E+02  0.71776112709E+02 -0.35709254968E+03  0.37879221661E+03  0.75613486227E+02 0.  0.
          6    2    1    2  501    0 -0.23787950314E+03 -0.46279850210E+02  0.58501384043E+02  0.30358288766E+03  0.17323878086E+03 0.  0.
         24    2    5    5    0    0 -0.48663400147E+02 -0.54225122521E+02  0.10906438650E+02  0.10825437000E+03  0.79319403641E+02 0.  0.
          5    1    5    5  501    0 -0.18921610299E+03  0.79452723113E+01  0.47594945393E+02  0.19532851766E+03  0.47000000000E+01 0. -1.
        -11    1    6    6    0    0 -0.57930667052E+02 -0.48389877823E+02 -0.17780637756E+02  0.77548007968E+02  0.00000000000E+00 0.  1.
         12    1    6    6    0    0  0.92672669053E+01 -0.58352446982E+01  0.28687076405E+02  0.30706362033E+02  0.00000000000E+00 0. -1.
         -5    1    3    3    0  503  0.16647050739E+03 -0.25496262499E+02 -0.60342926986E+03  0.62650735267E+03  0.47000000000E+01 0.  1.
         13    1    4    4    0    0  0.22386680157E+02  0.53947960977E+02 -0.27784228059E+03  0.28391526698E+03  0.00000000000E+00 0. -1.
        -14    1    4    4    0    0  0.49022315591E+02  0.17828151732E+02 -0.79250269085E+02  0.94876949625E+02  0.00000000000E+00 0.  1.
</event>
<event>
12    1  0.8416569E-002  0.1938278E+03  0.7818608E-02  0.1155525E+00
         21   -1    0    0  501  502  0.00000000000E+00  0.00000000000E+00  0.15026622395E+03  0.15026622395E+03  0.00000000000E+00 0.  1.
         21   -1    0    0  502  503 -0.00000000000E+00 -0.00000000000E+00 -0.26471990534E+03  0.26471990534E+03  0.00000000000E+00 0.  1.
         -6    2    1    2    0  503 -0.27608912299E+02  0.82700918213E+02 -0.36679359946E+01  0.19173136638E+03  0.17072132025E+03 0.  0.
        -24    2    3    3    0    0 -0.50515118423E+02  0.21286689085E+02 -0.53402937381E+02  0.10931739802E+03  0.78060998370E+02 0.  0.
          6    2    1    2  501    0  0.27608912299E+02 -0.82700918213E+02 -0.11078574539E+03  0.22325476292E+03  0.17311127598E+03 0.  0.
         24    2    5    5    0    0 -0.20217419435E+02 -0.14525855825E+02 -0.69665348174E+00  0.85135628482E+02  0.81411580103E+02 0.  0.
          5    1    5    5  501    0  0.47826331734E+02 -0.68175062388E+02 -0.11008909191E+03  0.13811913443E+03  0.47000000000E+01 0. -1.
        -13    1    6    6    0    0  0.23127997560E+02 -0.68729937236E+00 -0.24571768556E+02  0.33751273480E+02  0.00000000000E+00 0.  1.
         14    1    6    6    0    0 -0.43345416995E+02 -0.13838556452E+02  0.23875115074E+02  0.51384355002E+02  0.00000000000E+00 0. -1.
         -5    1    3    3    0  503  0.22906206124E+02  0.61414229128E+02  0.49735001387E+02  0.82413968363E+02  0.47000000000E+01 0.  1.
         11    1    4    4    0    0 -0.56470018199E+02  0.44134863808E+02 -0.42334776022E+02  0.83240509486E+02  0.00000000000E+00 0. -1.
        -12    1    4    4    0    0  0.59548997763E+01 -0.22848174723E+02 -0.11068161360E+02  0.26076888530E+02  0.00000000000E+00 0.  1.
</event>
<event>
12    1  0.8416569E-002  0.1803562E+03  0.7818608E-02  0.1167600E+00
         21   -1    0    0  501  502  0.00000000000E+00  0.00000000000E+00  0.49855383770E+03  0.49855383770E+03  0.00000000000E+00 0.  1.
         21   -1    0    0  502  503 -0.00000000000E+00 -0.00000000000E+00 -0.15407014623E+03  0.15407014623E+03  0.00000000000E+00 0. -1.
         -6    2    1    2    0  503 -0.37625010590E+02 -0.39159346481E+02 -0.75934667923E+02  0.19515273976E+03  0.17137509213E+03 0.  0.
        -24    2    3    3    0    0 -0.23603558304E+02  0.39920574344E+02 -0.93265417442E+01  0.90706737082E+02  0.77394751441E+02 0.  0.
          6    2    1    2  501    0  0.37625010590E+02  0.39159346481E+02  0.42041835939E+03  0.45747124417E+03  0.17198618110E+03 0.  0.
         24    2    5    5    0    0 -0.13309157001E+02 -0.34522405609E+02  0.15034562718E+03  0.17289320443E+03  0.76937132621E+02 0.  0.
          5    1    5    5  501    0  0.50934167592E+02  0.73681752090E+02  0.27007273221E+03  0.28457803974E+03  0.47000000000E+01 0. -1.
        -13    1    6    6    0    0  0.24460097834E+02 -0.21421784942E+02  0.11507834357E+03  0.11958350394E+03  0.00000000000E+00 0.  1.
         14    1    6    6    0    0 -0.37769254836E+02 -0.13100620667E+02  0.35267283611E+02  0.53309700487E+02  0.00000000000E+00 0. -1.
         -5    1    3    3    0  503 -0.14021452287E+02 -0.79079920825E+02 -0.66608126179E+02  0.10444600268E+03  0.47000000000E+01 0.  1.
         11    1    4    4    0    0 -0.32278451771E+02 -0.85210688996E+01 -0.21883974128E+02  0.39917607488E+02  0.00000000000E+00 0. -1.
        -12    1    4    4    0    0  0.86748934672E+01  0.48441643244E+02  0.12557432384E+02  0.50789129594E+02  0.00000000000E+00 0.  1.
</event>
<event>
12    1  0.8416569E-002  0.1726545E+03  0.7818608E-02  0.1175176E+00
         21   -1    0    0  503  502  0.00000000000E+00  0.00000000000E+00  0.22012803426E+03  0.22012803426E+03  0.00000000000E+00 0.  1.
         21   -1    0    0  501  503 -0.00000000000E+00 -0.00000000000E+00 -0.15429436265E+03  0.15429436265E+03  0.00000000000E+00 0.  1.
          6    2    1    2  501    0 -0.17035683623E+02 -0.55735753221E+01 -0.32947698966E+02  0.17550700239E+03  0.17145226089E+03 0.  0.
         24    2    3    3    0    0 -0.73747852034E+02 -0.20054970051E+02 -0.32554299936E+02  0.11678540839E+03  0.82085940731E+02 0.  0.
         -6    2    1    2    0  502  0.17035683623E+02  0.55735753221E+01  0.98781370579E+02  0.19891539452E+03  0.17172156458E+03 0.  0.
        -24    2    5    5    0    0  0.75050099967E+02  0.26358248066E+02  0.69956302721E+02  0.13071972265E+03  0.76592994797E+02 0.  0.
          5    1    3    3  501    0  0.56712168410E+02  0.14481394729E+02 -0.39339902907E+00  0.58721594000E+02  0.47000000000E+01 0. -1.
        -13    1    4    4    0    0 -0.47302546365E+02 -0.26676723017E+02  0.19763583176E+02  0.57790809507E+02  0.00000000000E+00 0.  1.
         14    1    4    4    0    0 -0.26445305668E+02  0.66217529655E+01 -0.52317883113E+02  0.58994598885E+02  0.00000000000E+00 0. -1.
         -5    1    5    5    0  502 -0.58014416344E+02 -0.20784672744E+02  0.28825067859E+02  0.68195671870E+02  0.47000000000E+01 0.  1.
         11    1    6    6    0    0 -0.12324550686E+02  0.18990148190E+02  0.16659473363E+02  0.28107976280E+02  0.00000000000E+00 0. -1.
        -12    1    6    6    0    0  0.87374650653E+02  0.73680998764E+01  0.53296829358E+02  0.10261174637E+03  0.00000000000E+00 0.  1.
</event>
<event>
12    1  0.8416569E-002  0.2684061E+03  0.7818608E-02  0.1102249E+00
         21   -1    0    0  503  502  0.00000000000E+00  0.00000000000E+00  0.10859050379E+03  0.10859050379E+03  0.00000000000E+00 0. -1.
         21   -1    0    0  501  503 -0.00000000000E+00 -0.00000000000E+00 -0.12382429792E+04  0.12382429792E+04  0.00000000000E+00 0.  1.
          6    2    1    2  501    0 -0.19959409262E+03 -0.50312711146E+02 -0.10242303634E+04  0.10588152119E+04  0.17225749565E+03 0.  0.
         24    2    3    3    0    0 -0.12715051515E+03 -0.99426854828E+02 -0.66579943450E+03  0.68982321760E+03  0.80710789792E+02 0.  0.
         -6    2    1    2    0  502  0.19959409262E+03  0.50312711146E+02 -0.10542211192E+03  0.28801827107E+03  0.17167274703E+03 0.  0.
        -24    2    5    5    0    0  0.19646107423E+03  0.38964064607E+01 -0.55712697613E+02  0.21977308797E+03  0.81142897716E+02 0.  0.
          5    1    3    3  501    0 -0.72443577470E+02  0.49114143682E+02 -0.35843092893E+03  0.36899199428E+03  0.47000000000E+01 0. -1.
        -11    1    4    4    0    0 -0.10501092088E+02 -0.32765460262E+02 -0.26222294761E+03  0.26447064596E+03  0.00000000000E+00 0.  1.
         12    1    4    4    0    0 -0.11664942306E+03 -0.66661394566E+02 -0.40357648690E+03  0.42535257164E+03  0.00000000000E+00 0. -1.
         -5    1    5    5    0  502  0.31330183909E+01  0.46416304685E+02 -0.49709414309E+02  0.68245183096E+02  0.47000000000E+01 0.  1.
         13    1    6    6    0    0  0.13906506520E+03  0.39293992806E+02 -0.45931414361E+02  0.15163378600E+03  0.00000000000E+00 0. -1.
        -14    1    6    6    0    0  0.57396009027E+02 -0.35397586346E+02 -0.97812832518E+01  0.68139301973E+02  0.00000000000E+00 0.  1.
</event>
<event>
12    1  0.8416569E-002  0.2151123E+03  0.7818608E-02  0.1137904E+00
         21   -1    0    0  503  502  0.00000000000E+00  0.00000000000E+00  0.85522423634E+03  0.85522423634E+03  0.00000000000E+00 0. -1.
         21   -1    0    0  501  503 -0.00000000000E+00 -0.00000000000E+00 -0.93952586198E+02  0.93952586198E+02  0.00000000000E+00 0. -1.
          6    2    1    2  501    0  0.62745284708E+02 -0.11008213544E+03  0.70789674571E+02  0.22646076265E+03  0.17383397740E+03 0.  0.
         24    2    3    3    0    0  0.79326304801E+02 -0.62624401014E+02  0.10551557931E+03  0.16518152274E+03  0.77051409736E+02 0.  0.
         -6    2    1    2    0  502 -0.62745284708E+02  0.11008213544E+03  0.69048197557E+03  0.72271605988E+03  0.17175010139E+03 0.  0.
        -24    2    5    5    0    0 -0.17550868565E+02 -0.80882238445E+01  0.20063622246E+03  0.21677365120E+03  0.79765090978E+02 0.  0.
          5    1    3    3  501    0 -0.16581020093E+02 -0.47457734428E+02 -0.34725904738E+02  0.61279239912E+02  0.47000000000E+01 0. -1.
        -11    1    4    4    0    0  0.28594218404E+01  0.70056549384E+01  0.44428833956E+02  0.45068578644E+02  0.00000000000E+00 0.  1.
         12    1    4    4    0    0  0.76466882961E+02 -0.69630055953E+02  0.61086745353E+02  0.12011294410E+03  0.00000000000E+00 0. -1.
         -5    1    5    5    0  502 -0.45194416143E+02  0.11817035929E+03  0.48984575311E+03  0.50594240868E+03  0.47000000000E+01 0.  1.
         13    1    6    6    0    0 -0.27575970609E+02  0.29291645503E+02  0.13181317603E+03  0.13781563056E+03  0.00000000000E+00 0. -1.
        -14    1    6    6    0    0  0.10025102044E+02 -0.37379869347E+02  0.68823046431E+02  0.78958020641E+02  0.00000000000E+00 0.  1.
</event>
<event>
12    1  0.8416569E-002  0.2197871E+03  0.7818608E-02  0.1134412E+00
         21   -1    0    0  501  502  0.00000000000E+00  0.00000000000E+00  0.12770990507E+03  0.12770990507E+03  0.00000000000E+00 0. -1.
         21   -1    0    0  502  503 -0.00000000000E+00 -0.00000000000E+00 -0.17064290339E+04  0.17064290339E+04  0.00000000000E+00 0. -1.
         -6    2    1    2    0  503 -0.13551106035E+03  0.15324049181E+02 -0.15986775967E+04  0.16134474645E+04  0.16983694635E+03 0.  0.
        -24    2    3    3    0    0 -0.14599313711E+03 -0.12985503795E+02 -0.98806061152E+03  0.10020666524E+04  0.79944883794E+02 0.  0.
          6    2    1    2  501    0  0.13551106035E+03 -0.15324049181E+02  0.19958467916E+02  0.22069147449E+03  0.17236099476E+03 0.  0.
         24    2    5    5    0    0  0.24530032729E+02 -0.40036392423E+02 -0.28032745195E+02  0.97189511209E+02  0.80345074908E+02 0.  0.
          5    1    5    5  501    0  0.11098102762E+03  0.24712343242E+02  0.47991213111E+02  0.12350196328E+03  0.47000000000E+01 0. -1.
        -11    1    6    6    0    0 -0.77270712714E+01  0.20130928037E+02 -0.18198417998E+02  0.28216029340E+02  0.00000000000E+00 0.  1.
         12    1    6    6    0    0  0.32257104001E+02 -0.60167320460E+02 -0.98343271965E+01  0.68973481870E+02  0.00000000000E+00 0. -1.
         -5    1    3    3    0  503  0.10482076760E+02  0.28309552976E+02 -0.61061698520E+03  0.61138081205E+03  0.47000000000E+01 0.  1.
         13    1    4    4    0    0 -0.14841329814E+03 -0.18720108880E+02 -0.98217176286E+03  0.99349802279E+03  0.00000000000E+00 0. -1.
        -14    1    4    4    0    0  0.24201610386E+01  0.57346050856E+01 -0.58888486668E+01  0.85686296198E+01  0.00000000000E+00 0.  1.
</event>
<event>
12    1  0.8416569E-002  0.3659227E+03  0.7818608E-02  0.1056356E+00
         21   -1    0    0  501  502  0.00000000000E+00  0.00000000000E+00  0.12418084733E+03  0.12418084733E+03  0.00000000000E+00 0. -1.
         21   -1    0    0  502  503 -0.00000000000E+00 -0.00000000000E+00 -0.10763586913E+04  0.10763586913E+04  0.00000000000E+00 0.  1.
         -6    2    1    2    0  503 -0.31345195538E+03 -0.77303137011E+02 -0.49423776832E+03  0.61495562313E+03  0.17225429882E+03 0.  0.
        -24    2    3    3    0    0 -0.78140885057E+02 -0.57829356706E+02 -0.14301252620E+03  0.19171598813E+03  0.82778046841E+02 0.  0.
          6    2    1    2  501    0  0.31345195538E+03  0.77303137011E+02 -0.45794007561E+03  0.58558391545E+03  0.17021018142E+03 0.  0.
         24    2    5    5    0    0  0.82561629341E+02  0.62527558521E+02 -0.19955893561E+03  0.23872434172E+03  0.80246023792E+02 0.  0.
          5    1    5    5  501    0  0.23089032604E+03  0.14775578490E+02 -0.25838114000E+03  0.34685957373E+03  0.47000000000E+01 0. -1.
        -13    1    6    6    0    0  0.48078831103E+02  0.58212593888E+01 -0.14479397977E+03  0.15267860897E+03  0.00000000000E+00 0.  1.
         14    1    6    6    0    0  0.34482798238E+02  0.56706299132E+02 -0.54764955839E+02  0.86045732745E+02  0.00000000000E+00 0. -1.
         -5    1    3    3    0  503 -0.23531107032E+03 -0.19473780305E+02 -0.35122524212E+03  0.42323963500E+03  0.47000000000E+01 0.  1.
         11    1    4    4    0    0 -0.93956269670E+02 -0.49167772089E+02 -0.13579107802E+03  0.17229180855E+03  0.00000000000E+00 0. -1.
        -12    1    4    4    0    0  0.15815384613E+02 -0.86615846167E+01 -0.72214481796E+01  0.19424179579E+02  0.00000000000E+00 0.  1.
</event>
<event>
12    1  0.8416569E-002  0.1947457E+03  0.7818608E-02  0.1154814E+00
         21   -1    0    0  501  502  0.00000000000E+00  0.00000000000E+00  0.19116031316E+04  0.19116031316E+04  0.00000000000E+00 0.  1.
         21   -1    0    0  502  503 -0.00000000000E+00 -0.00000000000E+00 -0.21140923934E+02  0.21140923934E+02  0.00000000000E+00 0.  1.
         -6    2    1    2    0  503 -0.15349058507E+02  0.86482967388E+02  0.67678928580E+03  0.70354599815E+03  0.17093372076E+03 0.  0.
        -24    2    3    3    0    0  0.34709103939E+02  0.82493435231E+01  0.24334479335E+03  0.26023737251E+03  0.85053089514E+02 0.  0.
          6    2    1    2  501    0  0.15349058507E+02 -0.86482967388E+02  0.12136729219E+04  0.12291980574E+04  0.17381313461E+03 0.  0.
         24    2    5    5    0    0  0.56277446544E+02 -0.57606050724E+02  0.46039167058E+03  0.47423862615E+03  0.80350333721E+02 0.  0.
          5    1    5    5  501    0 -0.40928388037E+02 -0.28876916664E+02  0.75328125128E+03  0.75495943122E+03  0.47000000000E+01 0. -1.
        -13    1    6    6    0    0  0.78250017451E+00 -0.51238427575E+02  0.30127103734E+03  0.30559814579E+03  0.00000000000E+00 0.  1.
         14    1    6    6    0    0  0.55494946370E+02 -0.63676231487E+01  0.15912063324E+03  0.16864048037E+03  0.00000000000E+00 0. -1.
         -5    1    3    3    0  503 -0.50058162446E+02  0.78233623865E+02  0.43344449245E+03  0.44330862564E+03  0.47000000000E+01 0.  1.
         11    1    4    4    0    0  0.41364591604E+02  0.14422608346E+02  0.24670016251E+03  0.25055939665E+03  0.00000000000E+00 0. -1.
        -12    1    4    4    0    0 -0.66554876651E+01 -0.61732648231E+01 -0.33553691526E+01  0.96779758621E+01  0.00000000000E+00 0.  1.
</event>
<event>
12    1  0.8416569E-002  0.2700389E+03  0.7818608E-02  0.1101346E+00
         21   -1    0    0  503  502  0.00000000000E+00  0.00000000000E+00  0.76269826044E+03  0.76269826044E+03  0.00000000000E+00 0. -1.
         21   -1    0    0  501  503 -0.00000000000E+00 -0.00000000000E+00 -0.10419743485E+03  0.10419743485E+03  0.00000000000E+00 0. -1.
          6    2    1    2  501    0  0.18964193634E+03 -0.87269162020E+02  0.20289880735E+03  0.33727865696E+03  0.17032027407E+03 0.  0.
         24    2    3    3    0    0  0.60510425317E+02 -0.42082690360E+02  0.16104604697E+03  0.19413359798E+03  0.79495661647E+02 0.  0.
         -6    2    1    2    0  502 -0.18964193634E+03  0.87269162020E+02  0.45560201824E+03  0.52961703833E+03  0.17129225790E+03 0.  0.
        -24    2    5    5    0    0 -0.14626351847E+03  0.11432705952E+03  0.42180707265E+03  0.46815155777E+03  0.82346712938E+02 0.  0.
          5    1    3    3  501    0  0.12913151102E+03 -0.45186471660E+02  0.41852760384E+02  0.14314505898E+03  0.47000000000E+01 0. -1.
        -11    1    4    4    0    0  0.61671745713E+01 -0.52378308653E+02  0.70755007942E+02  0.88248469723E+02  0.00000000000E+00 0.  1.
         12    1    4    4    0    0  0.54343250745E+02  0.10295618294E+02  0.90291039023E+02  0.10588512825E+03  0.00000000000E+00 0. -1.
         -5    1    5    5    0  502 -0.43378417865E+02 -0.27057897504E+02  0.33794945589E+02  0.61465480565E+02  0.47000000000E+01 0.  1.
         13    1    6    6    0    0 -0.12658177645E+03  0.97104940429E+02  0.26607664558E+03  0.31024038568E+03  0.00000000000E+00 0. -1.
        -14    1    6    6    0    0 -0.19681742017E+02  0.17222119094E+02  0.15573042707E+03  0.15791117208E+03  0.00000000000E+00 0.  1.
</event>
<event>
12    1  0.8416569E-002  0.3074064E+03  0.7818608E-02  0.1082447E+00
         21   -1    0    0  503  502  0.00000000000E+00  0.00000000000E+00  0.24359084908E+03  0.24359084908E+03  0.00000000000E+00 0.  1.
         21   -1    0    0  501  503 -0.00000000000E+00 -0.00000000000E+00 -0.37948882333E+03  0.37948882333E+03  0.00000000000E+00 0.  1.
          6    2    1    2  501    0  0.27871234513E+02 -0.25372549574E+03 -0.75375691046E+02  0.30977211713E+03  0.15850500576E+03 0.  0.
         24    2    3    3    0    0 -0.27353993399E+02 -0.15945766886E+03 -0.23640660109E+01  0.17828433681E+03  0.74864723550E+02 0.  0.
         -6    2    1    2    0  502 -0.27871234513E+02  0.25372549574E+03 -0.60522283197E+02  0.31330755528E+03  0.17130453739E+03 0.  0.
        -24    2    5    5    0    0  0.34424527709E+02  0.66142736347E+02 -0.34505946446E+02  0.11389092260E+03  0.78870604354E+02 0.  0.
          5    1    3    3  501    0  0.55225227912E+02 -0.94267826880E+02 -0.73011625035E+02  0.13148778032E+03  0.47000000000E+01 0. -1.
        -11    1    4    4    0    0  0.55987185523E+01 -0.12382347893E+03 -0.22072949320E+02  0.12590001857E+03  0.00000000000E+00 0.  1.
         12    1    4    4    0    0 -0.32952711951E+02 -0.35634189931E+02  0.19708883309E+02  0.52384318248E+02  0.00000000000E+00 0. -1.
         -5    1    5    5    0  502 -0.62295762222E+02  0.18758275939E+03 -0.26016336750E+02  0.19941663268E+03  0.47000000000E+01 0.  1.
         13    1    6    6    0    0 -0.20557367227E+02  0.11064195668E+02 -0.27017929316E+02  0.35707006002E+02  0.00000000000E+00 0. -1.
        -14    1    6    6    0    0  0.54981894937E+02  0.55078540678E+02 -0.74880171301E+01  0.78183916598E+02  0.00000000000E+00 0.  1.
</event>
<event>
12    1  0.8416569E-002  0.2348298E+03  0.7818608E-02  0.1123961E+00
         21   -1    0    0  501  502  0.00000000000E+00  0.00000000000E+00  0.49862139157E+03  0.49862139157E+03  0.00000000000E+00 0. -1.
         21   -1    0    0  502  503 -0.00000000000E+00 -0.00000000000E+00 -0.23966518964E+03  0.23966518964E+03  0.00000000000E+00 0.  1.
         -6    2    1    2    0  503  0.15275440739E+03  0.16147489754E+02 -0.14382371673E+03  0.27204984762E+03  0.17242739832E+03 0.  0.
        -24    2    3    3    0    0  0.14918777795E+02  0.34710676734E+02 -0.86975021531E+02  0.12172647338E+03  0.76323514993E+02 0.  0.
          6    2    1    2  501    0 -0.15275440739E+03 -0.16147489754E+02  0.40277991866E+03  0.46623673360E+03  0.17762426207E+03 0.  0.
         24    2    5    5    0    0 -0.15232099475E+02 -0.42950683199E+01  0.23758362075E+03  0.25091192799E+03  0.79122400682E+02 0.  0.
          5    1    5    5  501    0 -0.13752230791E+03 -0.11852421434E+02  0.16519629791E+03  0.21532480561E+03  0.47000000000E+01 0. -1.
        -13    1    6    6    0    0  0.10431069953E+01 -0.30762597483E+02  0.19903138182E+03  0.20139740919E+03  0.00000000000E+00 0.  1.
         14    1    6    6    0    0 -0.16275206470E+02  0.26467529164E+02  0.38552238931E+02  0.49514518803E+02  0.00000000000E+00 0. -1.
         -5    1    3    3    0  503  0.13783562959E+03 -0.18563186980E+02 -0.56848695202E+02  0.15032337424E+03  0.47000000000E+01 0.  1.
         13    1    4    4    0    0  0.11712833446E+02  0.33271516731E+02 -0.59806985776E+00  0.35278066564E+02  0.00000000000E+00 0. -1.
        -14    1    4    4    0    0  0.32059443494E+01  0.14391600029E+01 -0.86376951673E+02  0.86448406816E+02  0.00000000000E+00 0.  1.
</event>
<event>
12    1  0.8416569E-002  0.2322162E+03  0.7818608E-02  0.1125287E+00
         21   -1    0    0  503  502  0.00000000000E+00  0.00000000000E+00  0.10953256851E+03  0.10953256851E+03  0.00000000000E+00 0. -1.
         21   -1    0    0  501  503 -0.00000000000E+00 -0.00000000000E+00 -0.55216498981E+03  0.55216498981E+03  0.00000000000E+00 0. -1.
          6    2    1    2  501    0  0.78845587202E+02 -0.13321607565E+03 -0.33192558962E+03  0.40444208231E+03  0.17156821227E+03 0.  0.
         24    2    3    3    0    0 -0.17986119520E+02 -0.84286016381E+02 -0.20935240067E+03  0.24068370305E+03  0.81685887372E+02 0.  0.
         -6    2    1    2    0  502 -0.78845587202E+02  0.13321607565E+03 -0.11070683167E+03  0.25725547601E+03  0.17309311923E+03 0.  0.
        -24    2    5    5    0    0 -0.53677197707E+02  0.16024738942E+03 -0.10878633796E+03  0.21997387129E+03  0.89406763470E+02 0.  0.
          5    1    3    3  501    0  0.96831706722E+02 -0.48930059269E+02 -0.12257318896E+03  0.16375837926E+03  0.47000000000E+01 0. -1.
        -11    1    4    4    0    0  0.16095562792E+02  0.95313895168E+01 -0.38683284288E+02  0.42968721310E+02  0.00000000000E+00 0.  1.
         12    1    4    4    0    0 -0.34081682312E+02 -0.93817405898E+02 -0.17066911638E+03  0.19771498174E+03  0.00000000000E+00 0. -1.
         -5    1    5    5    0  502 -0.25168389495E+02 -0.27031313773E+02 -0.19204937086E+01  0.37281604715E+02  0.47000000000E+01 0.  1.
         11    1    6    6    0    0 -0.25153340246E+02  0.31817491005E+02 -0.73201496597E+02  0.83686930661E+02  0.00000000000E+00 0. -1.
        -12    1    6    6    0    0 -0.28523857462E+02  0.12842989842E+03 -0.35584841367E+02  0.13628694063E+03  0.00000000000E+00 0.  1.
</event>
<event>
12    1  0.8416569E-002  0.2319519E+03  0.7818608E-02  0.1125511E+00
         21   -1    0    0  503  502  0.00000000000E+00  0.00000000000E+00  0.58803991385E+02  0.58803991385E+02  0.00000000000E+00 0. -1.
         21   -1    0    0  501  503 -0.00000000000E+00 -0.00000000000E+00 -0.11063970746E+04  0.11063970746E+04  0.00000000000E+00 0. -1.
          6    2    1    2  501    0 -0.11491703108E+03  0.10485871514E+03 -0.77079343637E+03  0.80493738374E+03  0.17204765622E+03 0.  0.
         24    2    3    3    0    0 -0.26244430505E+02  0.55031774706E+02 -0.58151227366E+03  0.59000715635E+03  0.78959823767E+02 0.  0.
         -6    2    1    2    0  502  0.11491703108E+03 -0.10485871514E+03 -0.27679964683E+03  0.36026368223E+03  0.17020752650E+03 0.  0.
        -24    2    5    5    0    0  0.97546595507E+02 -0.44958134399E+02 -0.26540204592E+03  0.29668847549E+03  0.77776817698E+02 0.  0.
          5    1    3    3  501    0 -0.88672600579E+02  0.49826940436E+02 -0.18928116272E+03  0.21493022739E+03  0.47000000000E+01 0. -1.
        -11    1    4    4    0    0 -0.37593840270E+02 -0.54446321690E+01 -0.24221372391E+03  0.24517428270E+03  0.00000000000E+00 0.  1.
         12    1    4    4    0    0  0.11349409765E+02  0.60476406875E+02 -0.33929854974E+03  0.34483287365E+03  0.00000000000E+00 0. -1.
         -5    1    5    5    0  502  0.17370435578E+02 -0.59900580742E+02 -0.11397600914E+02  0.63575206740E+02  0.47000000000E+01 0.  1.
         13    1    6    6    0    0  0.91424296401E+02 -0.21393889081E+02 -0.13756698296E+03  0.16655562213E+03  0.00000000000E+00 0. -1.
        -14    1    6    6    0    0  0.61222991058E+01 -0.23564245318E+02 -0.12783506296E+03  0.13013285337E+03  0.00000000000E+00 0.  1.
</event>
<event>
12    1  0.8416569E-002  0.2282116E+03  0.7818608E-02  0.1128527E+00
         21   -1    0    0  501  502  0.00000000000E+00  0.00000000000E+00  0.36053657154E+03  0.36053657154E+03  0.00000000000E+00 0. -1.
         21   -1    0    0  502  503 -0.00000000000E+00 -0.00000000000E+00 -0.18350672552E+03  0.18350672552E+03  0.00000000000E+00 0.  1.
         -6    2    1    2    0  503  0.14420019359E+03 -0.62347413408E+01 -0.40966040477E+02  0.22844427116E+03  0.17226723636E+03 0.  0.
        -24    2    3    3    0    0  0.12406757037E+03 -0.62433478245E+02 -0.44827525209E+02  0.16843909129E+03  0.84092325663E+02 0.  0.
          6    2    1    2  501    0 -0.14420019359E+03  0.62347413408E+01  0.21799588650E+03  0.31559902589E+03  0.17677095571E+03 0.  0.
         24    2    5    5    0    0 -0.11839395771E+03  0.33461093164E+02  0.68322071421E+02  0.16122423208E+03  0.78667487502E+02 0.  0.
          5    1    5    5  501    0 -0.25806235882E+02 -0.27226351823E+02  0.14967381508E+03  0.15437479381E+03  0.47000000000E+01 0. -1.
        -11    1    6    6    0    0 -0.37929091105E+02 -0.92013475318E+01 -0.10891224702E+02  0.40520359376E+02  0.00000000000E+00 0.  1.
         12    1    6    6    0    0 -0.80464866601E+02  0.42662440696E+02  0.79213296123E+02  0.12070387271E+03  0.00000000000E+00 0. -1.
         -5    1    3    3    0  503  0.20132623221E+02  0.56198736904E+02  0.38614847313E+01  0.60005179874E+02  0.47000000000E+01 0.  1.
         11    1    4    4    0    0  0.96843500083E+02 -0.43878091952E+01 -0.16457704209E+02  0.98329916128E+02  0.00000000000E+00 0. -1.
        -12    1    4    4    0    0  0.27224070284E+02 -0.58045669050E+02 -0.28369821000E+02  0.70109175162E+02  0.00000000000E+00 0.  1.
</event>
<event>
12    1  0.8416569E-002  0.3711691E+03  0.7818608E-02  0.1054400E+00
         21   -1    0    0  501  502  0.00000000000E+00  0.00000000000E+00  0.23282909622E+03  0.23282909622E+03  0.00000000000E+00 0. -1.
         21   -1    0    0  502  503 -0.00000000000E+00 -0.00000000000E+00 -0.61624646261E+03  0.61624646261E+03  0.00000000000E+00 0. -1.
         -6    2    1    2    0  503 -0.19109258226E+03  0.26559684938E+03 -0.28034103524E+03  0.46385972145E+03  0.17180420178E+03 0.  0.
        -24    2    3    3    0    0 -0.17782219407E+03  0.21235806633E+03 -0.15585896450E+03  0.32774085002E+03  0.80033536200E+02 0.  0.
          6    2    1    2  501    0  0.19109258226E+03 -0.26559684938E+03 -0.10307633116E+03  0.38521583738E+03  0.17523826616E+03 0.  0.
         24    2    5    5    0    0  0.12645795507E+03 -0.86459987657E+02 -0.88617291423E+02  0.19416923550E+03  0.79885692133E+02 0.  0.
          5    1    5    5  501    0  0.64634627189E+02 -0.17913686173E+03 -0.14459039733E+02  0.19104660188E+03  0.47000000000E+01 0. -1.
        -11    1    6    6    0    0  0.76412865476E+02 -0.78257327819E+02 -0.92585828006E+02  0.14330132908E+03  0.00000000000E+00 0.  1.
         12    1    6    6    0    0  0.50045089593E+02 -0.82026598382E+01  0.39685365825E+01  0.50867906418E+02  0.00000000000E+00 0. -1.
         -5    1    3    3    0  503 -0.13270388184E+02  0.53238783050E+02 -0.12448207074E+03  0.13611887143E+03  0.47000000000E+01 0.  1.
         13    1    4    4    0    0 -0.54228786382E+02  0.12012276258E+03 -0.51338532930E+02  0.14144215894E+03  0.00000000000E+00 0. -1.
        -14    1    4    4    0    0 -0.12359340769E+03  0.92235303752E+02 -0.10452043157E+03  0.18629869108E+03  0.00000000000E+00 0.  1.
</event>
<event>
12    1  0.8416569E-002  0.1951547E+03  0.7818608E-02  0.1154107E+00
         21   -1    0    0  501  502  0.00000000000E+00  0.00000000000E+00  0.11707188977E+03  0.11707188977E+03  0.00000000000E+00 0.  1.
         21   -1    0    0  502  503 -0.00000000000E+00 -0.00000000000E+00 -0.32455008152E+03  0.32455008152E+03  0.00000000000E+00 0.  1.
         -6    2    1    2    0  503  0.66530794425E+02 -0.63117317348E+02 -0.11542801601E+03  0.22673547891E+03  0.17226493595E+03 0.  0.
        -24    2    3    3    0    0  0.10266149919E+03 -0.49899352390E+02 -0.45130756613E+02  0.14646134170E+03  0.79905010090E+02 0.  0.
          6    2    1    2  501    0 -0.66530794425E+02  0.63117317348E+02 -0.92050175733E+02  0.21488649238E+03  0.17115147501E+03 0.  0.
         24    2    5    5    0    0 -0.52722136152E+02 -0.77783811228E+01 -0.10816586230E+03  0.14073337742E+03  0.72566541176E+02 0.  0.
          5    1    5    5  501    0 -0.13808658274E+02  0.70895698471E+02  0.16115686570E+02  0.74153114963E+02  0.47000000000E+01 0. -1.
        -11    1    6    6    0    0 -0.47173214186E+01  0.66157944335E+01 -0.85232638542E+02  0.85619066394E+02  0.00000000000E+00 0.  1.
         12    1    6    6    0    0 -0.48004814733E+02 -0.14394175556E+02 -0.22933223760E+02  0.55114311023E+02  0.00000000000E+00 0. -1.
         -5    1    3    3    0  503 -0.36130704761E+02 -0.13217964959E+02 -0.70297259400E+02  0.80274137201E+02  0.47000000000E+01 0.  1.
         11    1    4    4    0    0 -0.22138513250E+01 -0.30623301538E+02 -0.80641413458E-01  0.30703326169E+02  0.00000000000E+00 0. -1.
        -12    1    4    4    0    0  0.10487535051E+03 -0.19276050851E+02 -0.45050115199E+02  0.11575801554E+03  0.00000000000E+00 0.  1.
</event>
<event>
12    1  0.8416569E-002  0.2102358E+03  0.7818608E-02  0.1142317E+00
         21   -1    0    0  501  502  0.00000000000E+00  0.00000000000E+00  0.23096118928E+03  0.23096118928E+03  0.00000000000E+00 0. -1.
         21   -1    0    0  502  503 -0.00000000000E+00 -0.00000000000E+00 -0.18712991901E+03  0.18712991901E+03  0.00000000000E+00 0. -1.
         -6    2    1    2    0  503 -0.10523665505E+01  0.11333725953E+03  0.22125901238E+02  0.21139694321E+03  0.17706685240E+03 0.  0.
        -24    2    3    3    0    0 -0.18799039725E+02  0.45168539187E+02 -0.53889445405E+02  0.10765523623E+03  0.79321981410E+02 0.  0.
          6    2    1    2  501    0  0.10523665505E+01 -0.11333725953E+03  0.21705369026E+02  0.20669416508E+03  0.17147860788E+03 0.  0.
         24    2    5    5    0    0  0.12283029731E+02 -0.26905189435E+02  0.65519199034E+02  0.10902957459E+03  0.81975122174E+02 0.  0.
          5    1    5    5  501    0 -0.11230663180E+02 -0.86432070092E+02 -0.43813830008E+02  0.97664590491E+02  0.47000000000E+01 0. -1.
        -11    1    6    6    0    0  0.47574790994E+02 -0.15821043773E+02  0.36558093935E+02  0.62049660727E+02  0.00000000000E+00 0.  1.
         12    1    6    6    0    0 -0.35291761263E+02 -0.11084145662E+02  0.28961105100E+02  0.46979913864E+02  0.00000000000E+00 0. -1.
         -5    1    3    3    0  503  0.17746673175E+02  0.68168720340E+02  0.76015346643E+02  0.10374170698E+03  0.47000000000E+01 0.  1.
         11    1    4    4    0    0 -0.27793316819E+02  0.31529491319E+02  0.87401207432E+01  0.42929791441E+02  0.00000000000E+00 0. -1.
        -12    1    4    4    0    0  0.89942770934E+01  0.13639047869E+02 -0.62629566148E+02  0.64725444788E+02  0.00000000000E+00 0.  1.
</event>
<event>
12    1  0.8416569E-002  0.2208786E+03  0.7818608E-02  0.1133799E+00
         21   -1    0    0  503  502  0.00000000000E+00  0.00000000000E+00  0.16835983710E+03  0.16835983710E+03  0.00000000000E+00 0. -1.
         21   -1    0    0  501  503 -0.00000000000E+00 -0.00000000000E+00 -0.29555090115E+03  0.29555090115E+03  0.00000000000E+00 0.  1.
          6    2    1    2  501    0  0.13300458879E+03  0.36055201535E+02 -0.10616231241E+03  0.24506695569E+03  0.17261859111E+03 0.  0.
         24    2    3    3    0    0  0.88827104619E+02  0.50684632166E+02 -0.13712741718E+03  0.18897240995E+03  0.80296056728E+02 0.  0.
         -6    2    1    2    0  502 -0.13300458879E+03 -0.36055201535E+02 -0.21028751641E+02  0.21884378257E+03  0.16870149548E+03 0.  0.
        -24    2    5    5    0    0 -0.42277793025E+02 -0.76345375943E+02 -0.12491899376E+02  0.11909601332E+03  0.80073620045E+02 0.  0.
          5    1    3    3  501    0  0.44177484170E+02 -0.14629430632E+02  0.30965104768E+02  0.56094545738E+02  0.47000000000E+01 0. -1.
        -11    1    4    4    0    0 -0.72032578147E+01 -0.38330518948E+01 -0.43314446068E+02  0.44076302569E+02  0.00000000000E+00 0.  1.
         12    1    4    4    0    0  0.96030362434E+02  0.54517684061E+02 -0.93812971112E+02  0.14489610738E+03  0.00000000000E+00 0. -1.
         -5    1    5    5    0  502 -0.90726795765E+02  0.40290174408E+02 -0.85368522651E+01  0.99747769249E+02  0.47000000000E+01 0.  1.
         13    1    6    6    0    0 -0.20440923704E+02 -0.58488321768E+01  0.27811104671E+02  0.35007109888E+02  0.00000000000E+00 0. -1.
        -14    1    6    6    0    0 -0.21836869321E+02 -0.70496543766E+02 -0.40303004046E+02  0.84088903429E+02  0.00000000000E+00 0.  1.
</event>
<event>
12    1  0.8416569E-002  0.2324504E+03  0.7818608E-02  0.1125126E+00
         21   -1    0    0  501  502  0.00000000000E+00  0.00000000000E+00  0.14936682305E+03  0.14936682305E+03  0.00000000000E+00 0.  1.
         21   -1    0    0  502  503 -0.00000000000E+00 -0.00000000000E+00 -0.40604520439E+03  0.40604520439E+03  0.00000000000E+00 0. -1.
         -6    2    1    2    0  503 -0.15257967417E+03  0.27773024623E+02 -0.22160851916E+03  0.32033102886E+03  0.17160924923E+03 0.  0.
        -24    2    3    3    0    0 -0.70653171165E+01  0.35933428354E+02 -0.87338189895E+02  0.12210986042E+03  0.77082609052E+02 0.  0.
          6    2    1    2  501    0  0.15257967417E+03 -0.27773024623E+02 -0.35069862181E+02  0.23508099857E+03  0.17315104039E+03 0.  0.
         24    2    5    5    0    0  0.96886125603E+02  0.87778793112E+01  0.42414419991E+02  0.13278904427E+03  0.79812121610E+02 0.  0.
          5    1    5    5  501    0  0.55693548568E+02 -0.36550903934E+02 -0.77484282172E+02  0.10229195430E+03  0.47000000000E+01 0. -1.
        -13    1    6    6    0    0 -0.12708868372E+02 -0.33404665315E+01  0.13410187194E+02  0.18775174368E+02  0.00000000000E+00 0.  1.
         14    1    6    6    0    0  0.10959499397E+03  0.12118345843E+02  0.29004232796E+02  0.11401386990E+03  0.00000000000E+00 0. -1.
         -5    1    3    3    0  503 -0.14551435705E+03 -0.81604037311E+01 -0.13427032926E+03  0.19822116844E+03  0.47000000000E+01 0.  1.
         11    1    4    4    0    0 -0.22530726829E+02 -0.79819618925E+01 -0.67305787688E+02  0.71424186544E+02  0.00000000000E+00 0. -1.
        -12    1    4    4    0    0  0.15465409713E+02  0.43915390246E+02 -0.20032402207E+02  0.50685673876E+02  0.00000000000E+00 0.  1.
</event>
<event>
12    1  0.8416569E-002  0.2232538E+03  0.7818608E-02  0.1132056E+00
         21   -1    0    0  503  502  0.00000000000E+00  0.00000000000E+00  0.48916655644E+03  0.48916655644E+03  0.00000000000E+00 0. -1.
         21   -1    0    0  501  503 -0.00000000000E+00 -0.00000000000E+00 -0.10071137073E+03  0.10071137073E+03  0.00000000000E+00 0.  1.
          6    2    1    2  501    0  0.67092148851E+02  0.11807585323E+03  0.20998821247E+03  0.30649191538E+03  0.17719757692E+03 0.  0.
         24    2    3    3    0    0 -0.24246177189E+02  0.32274060481E+02  0.13188624506E+03  0.15875348180E+03  0.78607851138E+02 0.  0.
         -6    2    1    2    0  502 -0.67092148851E+02 -0.11807585323E+03  0.17846697324E+03  0.28338601179E+03  0.17324522385E+03 0.  0.
        -24    2    5    5    0    0 -0.90091506180E+02 -0.28438504350E+02  0.12371244893E+03  0.17575714631E+03  0.81612354729E+02 0.  0.
          5    1    3    3  501    0  0.91338326040E+02  0.85801792748E+02  0.78101967406E+02  0.14773843358E+03  0.47000000000E+01 0. -1.
        -13    1    4    4    0    0 -0.29814952381E+02  0.14421149670E+02  0.88191601474E+01  0.34273583545E+02  0.00000000000E+00 0.  1.
         14    1    4    4    0    0  0.55687751923E+01  0.17852910811E+02  0.12306708491E+03  0.12447989826E+03  0.00000000000E+00 0. -1.
         -5    1    5    5    0  502  0.22999357329E+02 -0.89637348879E+02  0.54754524320E+02  0.10762886548E+03  0.47000000000E+01 0.  1.
         13    1    6    6    0    0 -0.35609349395E+02 -0.73931078578E+01  0.10987097833E+03  0.11573381393E+03  0.00000000000E+00 0. -1.
        -14    1    6    6    0    0 -0.54482156785E+02 -0.21045396493E+02  0.13841470595E+02  0.60023332377E+02  0.00000000000E+00 0.  1.
</event>
<event>
12    1  0.8416569E-002  0.2356848E+03  0.7818608E-02  0.1125730E+00
         21   -1    0    0  503  502  0.00000000000E+00  0.00000000000E+00  0.19384976803E+02  0.19384976803E+02  0.00000000000E+00 0.  1.
         21   -1    0    0  501  503 -0.00000000000E+00 -0.00000000000E+00 -0.28572915514E+04  0.28572915514E+04  0.00000000000E+00 0.  1.
          6    2    1    2  501    0  0.15363060648E+02  0.13416853846E+03 -0.17453128148E+04  0.17589518480E+04  0.17192312703E+03 0.  0.
         24    2    3    3    0    0  0.61878366302E+01  0.14832031394E+03 -0.17194177272E+04  0.17276932004E+04  0.80556001122E+02 0.  0.
         -6    2    1    2    0  502 -0.15363060648E+02 -0.13416853846E+03 -0.10925937597E+04  0.11177246802E+04  0.19315826806E+03 0.  0.
        -24    2    5    5    0    0 -0.32166661928E+01 -0.62946987394E+02 -0.21737172296E+03  0.23951300416E+03  0.78379481092E+02 0.  0.
          5    1    3    3  501    0  0.91752240176E+01 -0.14151775478E+02 -0.25895087640E+02  0.31258647585E+02  0.47000000000E+01 0. -1.
        -11    1    4    4    0    0  0.15636279858E+02  0.20699676533E+02 -0.10295756776E+03  0.10617547087E+03  0.00000000000E+00 0.  1.
         12    1    4    4    0    0 -0.94484432279E+01  0.12762063740E+03 -0.16164601594E+04  0.16215177295E+04  0.00000000000E+00 0. -1.
         -5    1    5    5    0  502 -0.12146394455E+02 -0.71221551063E+02 -0.87522203677E+03  0.87821167601E+03  0.47000000000E+01 0.  1.
         13    1    6    6    0    0  0.22351927657E+02 -0.70228183827E+02 -0.15136754209E+03  0.16835598971E+03  0.00000000000E+00 0. -1.
        -14    1    6    6    0    0 -0.25568593850E+02  0.72811964328E+01 -0.66004180864E+02  0.71157014443E+02  0.00000000000E+00 0.  1.
</event>
<event>
12    1  0.8416569E-002  0.1878843E+03  0.7818608E-02  0.1161970E+00
         21   -1    0    0  501  502  0.00000000000E+00  0.00000000000E+00  0.20308965116E+03  0.20308965116E+03  0.00000000000E+00 0. -1.
         21   -1    0    0  502  503 -0.00000000000E+00 -0.00000000000E+00 -0.16800122127E+03  0.16800122127E+03  0.00000000000E+00 0. -1.
         -6    2    1    2    0  503 -0.20701670145E+02  0.49480311653E+02  0.26461168715E+02  0.18300858420E+03  0.17295978739E+03 0.  0.
        -24    2    3    3    0    0 -0.66671057168E+02  0.74349340176E+02  0.77804484387E+01  0.12730658753E+03  0.78572117209E+02 0.  0.
          6    2    1    2  501    0  0.20701670145E+02 -0.49480311653E+02  0.86272611658E+01  0.18808228823E+03  0.18006570224E+03 0.  0.
         24    2    5    5    0    0 -0.13758502752E+02 -0.10347320148E+02 -0.59249078547E+02  0.10236075049E+03  0.81675617531E+02 0.  0.
          5    1    5    5  501    0  0.34460172897E+02 -0.39132991505E+02  0.67876339713E+02  0.85721537743E+02  0.47000000000E+01 0. -1.
        -11    1    6    6    0    0 -0.94772990642E+01 -0.46283512731E+02 -0.32056171035E+02  0.57092739028E+02  0.00000000000E+00 0.  1.
         12    1    6    6    0    0 -0.42812036875E+01  0.35936192583E+02 -0.27192907512E+02  0.45268011458E+02  0.00000000000E+00 0. -1.
         -5    1    3    3    0  503  0.45969387022E+02 -0.24869028523E+02  0.18680720276E+02  0.55701996669E+02  0.47000000000E+01 0.  1.
         11    1    4    4    0    0 -0.33063459555E+02  0.85421815342E+02  0.77176153000E+01  0.91921926003E+02  0.00000000000E+00 0. -1.
        -12    1    4    4    0    0 -0.33607597612E+02 -0.11072475166E+02  0.62833138660E-01  0.35384661530E+02  0.00000000000E+00 0.  1.
</event>
<event>
12    1  0.8416569E-002  0.2595306E+03  0.7818608E-02  0.1107498E+00
         21   -1    0    0  503  502  0.00000000000E+00  0.00000000000E+00  0.13663959154E+03  0.13663959154E+03  0.00000000000E+00 0.  1.
         21   -1    0    0  501  503 -0.00000000000E+00 -0.00000000000E+00 -0.60026243270E+03  0.60026243270E+03  0.00000000000E+00 0. -1.
          6    2    1    2  501    0 -0.99070634563E+02 -0.16683559698E+03 -0.38808619882E+03  0.46660233344E+03  0.17163255171E+03 0.  0.
         24    2    3    3    0    0 -0.65576703551E+02 -0.12707727836E+03 -0.38177143203E+03  0.41402350125E+03  0.72229457660E+02 0.  0.
         -6    2    1    2    0  502  0.99070634563E+02  0.16683559698E+03 -0.75536642341E+02  0.27029969080E+03  0.17235727852E+03 0.  0.
        -24    2    5    5    0    0 -0.95083032646E+01  0.39068405106E+02 -0.60002701743E+02  0.10184425346E+03  0.71799579649E+02 0.  0.
          5    1    3    3  501    0 -0.33493931012E+02 -0.39758318625E+02 -0.63147667876E+01  0.52578832187E+02  0.47000000000E+01 0. -1.
        -11    1    4    4    0    0 -0.27937567423E+02 -0.43138939673E+02 -0.23691695573E+03  0.24242755558E+03  0.00000000000E+00 0.  1.
         12    1    4    4    0    0 -0.37639136128E+02 -0.83938338686E+02 -0.14485447630E+03  0.17159594568E+03  0.00000000000E+00 0. -1.
         -5    1    5    5    0  502  0.10857893783E+03  0.12776719188E+03 -0.15533940598E+02  0.16845543734E+03  0.47000000000E+01 0.  1.
         11    1    6    6    0    0 -0.11399564517E+02  0.50710897931E+02 -0.13266682339E+02  0.53642801012E+02  0.00000000000E+00 0. -1.
        -12    1    6    6    0    0  0.18912612529E+01 -0.11642492825E+02 -0.46736019404E+02  0.48201452448E+02  0.00000000000E+00 0.  1.
</event>
<event>
12    1  0.8416569E-002  0.2647319E+03  0.7818608E-02  0.1104779E+00
         21   -1    0    0  503  502  0.00000000000E+00  0.00000000000E+00  0.44063784052E+03  0.44063784052E+03  0.00000000000E+00 0. -1.
         21   -1    0    0  501  503 -0.00000000000E+00 -0.00000000000E+00 -0.15953074958E+03  0.15953074958E+03  0.00000000000E+00 0.  1.
          6    2    1    2  501    0  0.11370806649E+03  0.16143991006E+03  0.10378626558E+03  0.28153764393E+03  0.17175414721E+03 0.  0.
         24    2    3    3    0    0 -0.71451414066E+01  0.49067961124E+02  0.66848601933E+02  0.11236485132E+03  0.75487789583E+02 0.  0.
         -6    2    1    2    0  502 -0.11370806649E+03 -0.16143991006E+03  0.17732082537E+03  0.31863094616E+03  0.17632536914E+03 0.  0.
        -24    2    5    5    0    0 -0.42718229478E+02 -0.93191453854E+01  0.84468086901E+02  0.12673512796E+03  0.83757037639E+02 0.  0.
          5    1    3    3  501    0  0.12085320790E+03  0.11237194893E+03  0.36937663647E+02  0.16917279262E+03  0.47000000000E+01 0. -1.
        -13    1    4    4    0    0 -0.74558453555E+01 -0.19842852461E+02  0.12572050268E+02  0.24645179482E+02  0.00000000000E+00 0.  1.
         14    1    4    4    0    0  0.31070394893E+00  0.68910813585E+02  0.54276551665E+02  0.87719671834E+02  0.00000000000E+00 0. -1.
         -5    1    5    5    0  502 -0.70989837012E+02 -0.15212076467E+03  0.92852738464E+02  0.19189581820E+03  0.47000000000E+01 0.  1.
         13    1    6    6    0    0 -0.17145244010E+02 -0.13810972183E+02  0.95878727237E+02  0.98373943102E+02  0.00000000000E+00 0. -1.
        -14    1    6    6    0    0 -0.25572985468E+02  0.44918267980E+01 -0.11410640336E+02  0.28361184859E+02  0.00000000000E+00 0.  1.
</event>
<event>
12    1  0.8416569E-002  0.1866970E+03  0.7818608E-02  0.1164069E+00
         21   -1    0    0  503  502  0.00000000000E+00  0.00000000000E+00  0.10322614082E+03  0.10322614082E+03  0.00000000000E+00 0. -1.
         21   -1    0    0  501  503 -0.00000000000E+00 -0.00000000000E+00 -0.51836557555E+03  0.51836557555E+03  0.00000000000E+00 0. -1.
          6    2    1    2  501    0  0.40897900821E+02  0.25048310924E+02 -0.39679235317E+03  0.43399540486E+03  0.16913835678E+03 0.  0.
         24    2    3    3    0    0 -0.36436622468E+02  0.40585024596E+02 -0.21210239772E+03  0.23311114065E+03  0.79866169914E+02 0.  0.
         -6    2    1    2    0  502 -0.40897900821E+02 -0.25048310924E+02 -0.18347081568E+02  0.18759631152E+03  0.18043199417E+03 0.  0.
        -24    2    5    5    0    0 -0.58398643438E+02  0.33456069470E+02 -0.54545912984E+02  0.11645220485E+03  0.77821264781E+02 0.  0.
          5    1    3    3  501    0  0.77334523290E+02 -0.15536713672E+02 -0.18468995544E+03  0.20088426421E+03  0.47000000000E+01 0. -1.
        -11    1    4    4    0    0 -0.40531398769E+02  0.17042876297E+02 -0.40263686344E+02  0.59618942935E+02  0.00000000000E+00 0.  1.
         12    1    4    4    0    0  0.40947763012E+01  0.23542148299E+02 -0.17183871138E+03  0.17349219772E+03  0.00000000000E+00 0. -1.
         -5    1    5    5    0  502  0.17500742617E+02 -0.58504380394E+02  0.36198831416E+02  0.71144106666E+02  0.47000000000E+01 0.  1.
         11    1    6    6    0    0 -0.44295343477E+02 -0.18399397900E+02 -0.16966755859E+02  0.50877166796E+02  0.00000000000E+00 0. -1.
        -12    1    6    6    0    0 -0.14103299961E+02  0.51855467370E+02 -0.37579157124E+02  0.65575038057E+02  0.00000000000E+00 0.  1.
</event>
<event>
12    1  0.8416569E-002  0.1854336E+03  0.7818608E-02  0.1162879E+00
         21   -1    0    0  501  502  0.00000000000E+00  0.00000000000E+00  0.69532374852E+02  0.69532374852E+02  0.00000000000E+00 0. -1.
         21   -1    0    0  502  503 -0.00000000000E+00 -0.00000000000E+00 -0.51117636252E+03  0.51117636252E+03  0.00000000000E+00 0. -1.
         -6    2    1    2    0  503 -0.48050791538E+02  0.51474349005E+02 -0.16496367115E+03  0.24819072710E+03  0.17154339698E+03 0.  0.
        -24    2    3    3    0    0 -0.69250541286E+02  0.80254826892E+02 -0.76662732567E+02  0.15281310367E+03  0.78982247254E+02 0.  0.
          6    2    1    2  501    0  0.48050791538E+02 -0.51474349005E+02 -0.27668031652E+03  0.33251801027E+03  0.17046331697E+03 0.  0.
         24    2    5    5    0    0  0.12123544718E+02 -0.18146338880E+02 -0.26970252459E+03  0.28279575264E+03  0.82205328253E+02 0.  0.
          5    1    5    5  501    0  0.35927246820E+02 -0.33328010125E+02 -0.69777919304E+01  0.49722257624E+02  0.47000000000E+01 0. -1.
        -11    1    6    6    0    0 -0.15410175615E+02 -0.24127975278E+02 -0.30094832478E+02  0.41537111664E+02  0.00000000000E+00 0.  1.
         12    1    6    6    0    0  0.27533720332E+02  0.59816363988E+01 -0.23960769211E+03  0.24125864098E+03  0.00000000000E+00 0. -1.
         -5    1    3    3    0  503  0.21199749748E+02 -0.28780477887E+02 -0.88300938583E+02  0.95377623431E+02  0.47000000000E+01 0.  1.
         11    1    4    4    0    0 -0.20538051174E+02  0.45402940155E+02  0.65762361709E+01  0.50264156244E+02  0.00000000000E+00 0. -1.
        -12    1    4    4    0    0 -0.48712490112E+02  0.34851886737E+02 -0.83238968738E+02  0.10254894743E+03  0.00000000000E+00 0.  1.
</event>
<event>
12    1  0.8416569E-002  0.2661926E+03  0.7818608E-02  0.1103563E+00
         21   -1    0    0  501  502  0.00000000000E+00  0.00000000000E+00  0.10240949095E+04  0.10240949095E+04  0.00000000000E+00 0. -1.
         21   -1    0    0  502  503 -0.00000000000E+00 -0.00000000000E+00 -0.32889404556E+03  0.32889404556E+03  0.00000000000E+00 0. -1.
         -6    2    1    2    0  503 -0.19656531444E+03  0.49616158512E+02 -0.25363203592E+03  0.36767880668E+03  0.17250741785E+03 0.  0.
        -24    2    3    3    0    0 -0.20044141798E+03  0.31409327188E+02 -0.26672209879E+03  0.34444192584E+03  0.79600593055E+02 0.  0.
          6    2    1    2  501    0  0.19656531444E+03 -0.49616158512E+02  0.94883289983E+03  0.98531014834E+03  0.17161739596E+03 0.  0.
         24    2    5    5    0    0  0.23073729432E+02  0.56319397711E+01  0.31458264718E+03  0.32542594985E+03  0.79847925413E+02 0.  0.
          5    1    5    5  501    0  0.17349158501E+03 -0.55248098283E+02  0.63425025265E+03  0.65988419849E+03  0.47000000000E+01 0. -1.
        -11    1    6    6    0    0  0.63222580781E+01  0.39871366635E+02  0.10678164501E+03  0.11415785797E+03  0.00000000000E+00 0.  1.
         12    1    6    6    0    0  0.16751471354E+02 -0.34239426864E+02  0.20780100217E+03  0.21126809188E+03  0.00000000000E+00 0. -1.
         -5    1    3    3    0  503  0.38761035442E+01  0.18206831324E+02  0.13090062867E+02  0.23236880845E+02  0.47000000000E+01 0.  1.
         11    1    4    4    0    0 -0.11995182432E+03  0.56274224929E+01 -0.95254519818E+02  0.15327599808E+03  0.00000000000E+00 0. -1.
        -12    1    4    4    0    0 -0.80489593666E+02  0.25781904695E+02 -0.17146757897E+03  0.19116592776E+03  0.00000000000E+00 0.  1.
</event>
<event>
12    1  0.8416569E-002  0.2460223E+03  0.7818608E-02  0.1115881E+00
         21   -1    0    0  501  502  0.00000000000E+00  0.00000000000E+00  0.73588185713E+02  0.73588185713E+02  0.00000000000E+00 0. -1.
         21   -1    0    0  502  503 -0.00000000000E+00 -0.00000000000E+00 -0.10762221854E+04  0.10762221854E+04  0.00000000000E+00 0. -1.
         -6    2    1    2    0  503 -0.16708765638E+03  0.56043859676E+02 -0.78069311777E+03  0.81847261929E+03  0.17133734349E+03 0.  0.
        -24    2    3    3    0    0 -0.64779018393E+02 -0.24915174050E+02 -0.24090447885E+03  0.26312112046E+03  0.79879089751E+02 0.  0.
          6    2    1    2  501    0  0.16708765638E+03 -0.56043859676E+02 -0.22194088188E+03  0.33133775178E+03  0.17166173594E+03 0.  0.
         24    2    5    5    0    0  0.10002668652E+03 -0.59584741701E+02 -0.22573736839E+03  0.26391212732E+03  0.71669882115E+02 0.  0.
          5    1    5    5  501    0  0.67060969860E+02  0.35408820248E+01  0.37964865073E+01  0.67425624460E+02  0.47000000000E+01 0. -1.
        -13    1    6    6    0    0  0.17140001696E+02 -0.50476000496E+02 -0.90609983102E+02  0.10512742421E+03  0.00000000000E+00 0.  1.
         14    1    6    6    0    0  0.82886684825E+02 -0.91087412051E+01 -0.13512738528E+03  0.15878470311E+03  0.00000000000E+00 0. -1.
         -5    1    3    3    0  503 -0.10230863799E+03  0.80959033726E+02 -0.53978863892E+03  0.55535149883E+03  0.47000000000E+01 0.  1.
         11    1    4    4    0    0 -0.83487833004E+02 -0.19595973097E+02 -0.20650565113E+03  0.22360412422E+03  0.00000000000E+00 0. -1.
        -12    1    4    4    0    0  0.18708814611E+02 -0.53192009536E+01 -0.34398827726E+02  0.39516996240E+02  0.00000000000E+00 0.  1.
</event>
<event>
12    1  0.8416569E-002  0.1845705E+03  0.7818608E-02  0.1163763E+00
         21   -1    0    0  501  502  0.00000000000E+00  0.00000000000E+00  0.19693386613E+03  0.19693386613E+03  0.00000000000E+00 0. -1.
         21   -1    0    0  502  503 -0.00000000000E+00 -0.00000000000E+00 -0.29876777416E+03  0.29876777416E+03  0.00000000000E+00 0. -1.
         -6    2    1    2    0  503 -0.59809591175E+02 -0.23691095806E+02 -0.21263154552E+03  0.28156428318E+03  0.17299657857E+03 0.  0.
        -24    2    3    3    0    0 -0.76770445020E+01 -0.69838872077E+01 -0.20974263407E+02  0.82186408210E+02  0.78784352991E+02 0.  0.
          6    2    1    2  501    0  0.59809591175E+02  0.23691095806E+02  0.11079763749E+03  0.21413735710E+03  0.17158157249E+03 0.  0.
         24    2    5    5    0    0 -0.33552716412E+01  0.35448450052E+02  0.12033419200E+03  0.14901385025E+03  0.80355207310E+02 0.  0.
          5    1    5    5  501    0  0.63164862816E+02 -0.11757354246E+02 -0.95365545133E+01  0.65123506858E+02  0.47000000000E+01 0. -1.
        -13    1    6    6    0    0 -0.25171013383E+02 -0.31687293692E+01  0.55655530918E+01  0.25972988695E+02  0.00000000000E+00 0.  1.
         14    1    6    6    0    0  0.21815741742E+02  0.38617179421E+02  0.11476863891E+03  0.12304086155E+03  0.00000000000E+00 0. -1.
         -5    1    3    3    0  503 -0.52132546673E+02 -0.16707208598E+02 -0.19165728211E+03  0.19937787497E+03  0.47000000000E+01 0.  1.
         11    1    4    4    0    0 -0.12543688706E+01  0.50611409332E+01 -0.49915719068E+02  0.50187325082E+02  0.00000000000E+00 0. -1.
        -12    1    4    4    0    0 -0.64226756313E+01 -0.12045028141E+02  0.28941455662E+02  0.31999083127E+02  0.00000000000E+00 0.  1.
</event>
<event>
12    1  0.8416569E-002  0.2032374E+03  0.7818608E-02  0.1147362E+00
         21   -1    0    0  501  502  0.00000000000E+00  0.00000000000E+00  0.22409205917E+02  0.22409205917E+02  0.00000000000E+00 0. -1.
         21   -1    0    0  502  503 -0.00000000000E+00 -0.00000000000E+00 -0.20313203310E+04  0.20313203310E+04  0.00000000000E+00 0. -1.
         -6    2    1    2    0  503 -0.37256126130E+02 -0.98115854781E+02 -0.13320305767E+04  0.13474460672E+04  0.17404225553E+03 0.  0.
        -24    2    3    3    0    0  0.39881981073E+02 -0.41486201919E+02 -0.87274389813E+03  0.87827280674E+03  0.79809360208E+02 0.  0.
          6    2    1    2  501    0  0.37256126130E+02  0.98115854781E+02 -0.67688054835E+03  0.70628346974E+03  0.17220430598E+03 0.  0.
         24    2    5    5    0    0 -0.20006424858E+02  0.12108409980E+02 -0.44478448134E+03  0.45218318515E+03  0.78035424406E+02 0.  0.
          5    1    5    5  501    0  0.57262550988E+02  0.86007444801E+02 -0.23209606700E+03  0.25410028458E+03  0.47000000000E+01 0. -1.
        -11    1    6    6    0    0 -0.41023332077E+01  0.26176223217E+02 -0.41364969801E+03  0.41449740224E+03  0.00000000000E+00 0.  1.
         12    1    6    6    0    0 -0.15904091650E+02 -0.14067813238E+02 -0.31134783335E+02  0.37685782914E+02  0.00000000000E+00 0. -1.
         -5    1    3    3    0  503 -0.77138107203E+02 -0.56629652862E+02 -0.45928667859E+03  0.46917326043E+03  0.47000000000E+01 0.  1.
         13    1    4    4    0    0  0.21115507440E+02 -0.53417796340E+02 -0.80339005806E+03  0.80544081782E+03  0.00000000000E+00 0. -1.
        -14    1    4    4    0    0  0.18766473633E+02  0.11931594421E+02 -0.69353840071E+02  0.72831988924E+02  0.00000000000E+00 0.  1.
</event>
<event>
12    1  0.8416569E-002  0.1751487E+03  0.7818608E-02  0.1173103E+00
         21   -1    0    0  501  502  0.00000000000E+00  0.00000000000E+00  0.18201947791E+03  0.18201947791E+03  0.00000000000E+00 0.  1.
         21   -1    0    0  502  503 -0.00000000000E+00 -0.00000000000E+00 -0.17304292765E+03  0.17304292765E+03  0.00000000000E+00 0.  1.
         -6    2    1    2    0  503  0.43361828047E+01 -0.28776656683E+02  0.38830877819E+02  0.17738756962E+03  0.17062125991E+03 0.  0.
        -24    2    3    3    0    0 -0.31614053005E+02 -0.53640754904E+02  0.71953053477E+02  0.12234384740E+03  0.76902510743E+02 0.  0.
          6    2    1    2  501    0 -0.43361828047E+01  0.28776656683E+02 -0.29854327563E+02  0.17767483594E+03  0.17271412218E+03 0.  0.
         24    2    5    5    0    0 -0.96379521589E+01  0.52370227829E+02  0.39582476597E+02  0.10399766764E+03  0.80082529527E+02 0.  0.
          5    1    5    5  501    0  0.53017693542E+01 -0.23593571147E+02 -0.69436804160E+02  0.73677168306E+02  0.47000000000E+01 0. -1.
        -13    1    6    6    0    0  0.15589981405E+02  0.17167109941E+02  0.53661079315E+02  0.58457408574E+02  0.00000000000E+00 0.  1.
         14    1    6    6    0    0 -0.25227933564E+02  0.35203117888E+02 -0.14078602718E+02  0.45540259062E+02  0.00000000000E+00 0. -1.
         -5    1    3    3    0  503  0.35950235809E+02  0.24864098221E+02 -0.33122175658E+02  0.55043722217E+02  0.47000000000E+01 0.  1.
         11    1    4    4    0    0 -0.71043494872E+01 -0.69399785280E+02  0.52459302378E+02  0.87285625303E+02  0.00000000000E+00 0. -1.
        -12    1    4    4    0    0 -0.24509703518E+02  0.15759030376E+02  0.19493751099E+02  0.35058222100E+02  0.00000000000E+00 0.  1.
</event>
<event>
12    1  0.8416569E-002  0.1885237E+03  0.7818608E-02  0.1159980E+00
         21   -1    0    0  503  502  0.00000000000E+00  0.00000000000E+00  0.81566434876E+03  0.81566434876E+03  0.00000000000E+00 0. -1.
         21   -1    0    0  501  503 -0.00000000000E+00 -0.00000000000E+00 -0.44115098814E+02  0.44115098814E+02  0.00000000000E+00 0. -1.
          6    2    1    2  501    0  0.20450473558E+02  0.71296217944E+02  0.32988554455E+03  0.37956281737E+03  0.17245894370E+03 0.  0.
         24    2    3    3    0    0  0.12387310396E+02  0.29731081583E+02  0.32578255387E+03  0.33676562478E+03  0.78990068729E+02 0.  0.
         -6    2    1    2    0  502 -0.20450473558E+02 -0.71296217944E+02  0.44166370539E+03  0.48021663021E+03  0.17331996625E+03 0.  0.
        -24    2    5    5    0    0 -0.40602663648E+02 -0.98736240749E+02  0.22225987086E+03  0.25813736908E+03  0.76406999582E+02 0.  0.
          5    1    3    3  501    0  0.80631631625E+01  0.41565136361E+02  0.41029906844E+01  0.42797192588E+02  0.47000000000E+01 0. -1.
        -11    1    4    4    0    0 -0.19934389823E+02  0.19946564157E+02  0.39697603876E+02  0.48694404944E+02  0.00000000000E+00 0.  1.
         12    1    4    4    0    0  0.32321700219E+02  0.97845174257E+01  0.28608494999E+03  0.28807121984E+03  0.00000000000E+00 0. -1.
         -5    1    5    5    0  502  0.20152190090E+02  0.27440022805E+02  0.21940383453E+03  0.22207926113E+03  0.47000000000E+01 0.  1.
         11    1    6    6    0    0  0.14024927065E+02 -0.48586555105E+02  0.52536378600E+02  0.72920662316E+02  0.00000000000E+00 0. -1.
        -12    1    6    6    0    0 -0.54627590713E+02 -0.50149685643E+02  0.16972349226E+03  0.18521670676E+03  0.00000000000E+00 0.  1.
</event>
<event>
12    1  0.8416569E-002  0.1752263E+03  0.7818608E-02  0.1176339E+00
         21   -1    0    0  501  502  0.00000000000E+00  0.00000000000E+00  0.32038568555E+02  0.32038568555E+02  0.00000000000E+00 0.  1.
         21   -1    0    0  502  503 -0.00000000000E+00 -0.00000000000E+00 -0.95935941062E+03  0.95935941062E+03  0.00000000000E+00 0.  1.
         -6    2    1    2    0  503 -0.10755535710E+02  0.28419764210E+02 -0.62447631010E+03  0.64859456113E+03  0.17257137162E+03 0.  0.
        -24    2    3    3    0    0 -0.96635516415E+01 -0.38508433175E+02 -0.19514517765E+03  0.21405125221E+03  0.78485760215E+02 0.  0.
          6    2    1    2  501    0  0.10755535710E+02 -0.28419764210E+02 -0.30284453196E+03  0.34280341805E+03  0.15772129957E+03 0.  0.
         24    2    5    5    0    0 -0.28706190587E+02 -0.27299411577E+02 -0.89617871690E+02  0.12590210020E+03  0.79061195651E+02 0.  0.
          5    1    5    5  501    0  0.39461726297E+02 -0.11203526330E+01 -0.21322666027E+03  0.21690131785E+03  0.47000000000E+01 0. -1.
        -13    1    6    6    0    0  0.17276943217E+02  0.90525890957E+01 -0.84543587298E+00  0.19523239948E+02  0.00000000000E+00 0.  1.
         14    1    6    6    0    0 -0.45983133804E+02 -0.36352000673E+02 -0.88772435817E+02  0.10637886025E+03  0.00000000000E+00 0. -1.
         -5    1    3    3    0  503 -0.10919840687E+01  0.66928197385E+02 -0.42933113245E+03  0.43454330892E+03  0.47000000000E+01 0.  1.
         11    1    4    4    0    0  0.23493307829E+02 -0.39142783712E+02 -0.62958031691E+02  0.77767646126E+02  0.00000000000E+00 0. -1.
        -12    1    4    4    0    0 -0.33156859470E+02  0.63435053753E+00 -0.13218714596E+03  0.13628360608E+03  0.00000000000E+00 0.  1.
</event>
<event>
12    1  0.8416569E-002  0.1830038E+03  0.7818608E-02  0.1164933E+00
         21   -1    0    0  501  502  0.00000000000E+00  0.00000000000E+00  0.27536104693E+03  0.27536104693E+03  0.00000000000E+00 0.  1.
         21   -1    0    0  502  503 -0.00000000000E+00 -0.00000000000E+00 -0.18051900375E+03  0.18051900375E+03  0.00000000000E+00 0.  1.
         -6    2    1    2    0  503 -0.54904903527E+02  0.33659749972E+02 -0.82795129557E+02  0.20084010626E+03  0.17127226163E+03 0.  0.
        -24    2    3    3    0    0 -0.39204044176E+02 -0.38551006366E+02 -0.10009688052E+03  0.12479833549E+03  0.50319994829E+02 0.  0.
          6    2    1    2  501    0  0.54904903527E+02 -0.33659749972E+02  0.17763717274E+03  0.25503994442E+03  0.17129763836E+03 0.  0.
         24    2    5    5    0    0  0.78389766220E+02 -0.36038563307E+02  0.54723911874E+02  0.12979236070E+03  0.80047591298E+02 0.  0.
          5    1    5    5  501    0 -0.23484862693E+02  0.23788133360E+01  0.12291326087E+03  0.12524758371E+03  0.47000000000E+01 0. -1.
        -13    1    6    6    0    0 -0.17875356170E+01 -0.17412954343E+02 -0.14116667263E+02  0.22487475562E+02  0.00000000000E+00 0.  1.
         14    1    6    6    0    0  0.80177301837E+02 -0.18625608964E+02  0.68840579137E+02  0.10730488514E+03  0.00000000000E+00 0. -1.
         -5    1    3    3    0  503 -0.15700859351E+02  0.72210756337E+02  0.17301750966E+02  0.76041770769E+02  0.47000000000E+01 0.  1.
         11    1    4    4    0    0  0.87416027795E+01 -0.19859702428E+02 -0.19495004742E+02  0.29169823613E+02  0.00000000000E+00 0. -1.
        -12    1    4    4    0    0 -0.47945646955E+02 -0.18691303937E+02 -0.80601875781E+02  0.95628511879E+02  0.00000000000E+00 0.  1.
</event>
<event>
12    1  0.8416569E-002  0.1974573E+03  0.7818608E-02  0.1152125E+00
         21   -1    0    0  503  502  0.00000000000E+00  0.00000000000E+00  0.50234388243E+03  0.50234388243E+03  0.00000000000E+00 0. -1.
         21   -1    0    0  501  503 -0.00000000000E+00 -0.00000000000E+00 -0.16528103100E+03  0.16528103100E+03  0.00000000000E+00 0. -1.
          6    2    1    2  501    0  0.78815611231E+02 -0.56936046501E+02 -0.75349757121E+02  0.21037930232E+03  0.17067000610E+03 0.  0.
         24    2    3    3    0    0 -0.12822075306E+02 -0.44049303297E+02 -0.25602150359E+00  0.91111985451E+02  0.78718368948E+02 0.  0.
         -6    2    1    2    0  502 -0.78815611231E+02  0.56936046501E+02  0.41241260855E+03  0.45724561111E+03  0.17185975451E+03 0.  0.
        -24    2    5    5    0    0 -0.11728223253E+03  0.15354497956E+02  0.26335295691E+03  0.29771637905E+03  0.72728122271E+02 0.  0.
          5    1    3    3  501    0  0.91637686538E+02 -0.12886743204E+02 -0.75093735617E+02  0.11926731687E+03  0.47000000000E+01 0. -1.
        -11    1    4    4    0    0  0.13277550051E+02 -0.54702849288E+02 -0.16393342834E+02  0.58629657553E+02  0.00000000000E+00 0.  1.
         12    1    4    4    0    0 -0.26099625357E+02  0.10653545991E+02  0.16137321330E+02  0.32482327898E+02  0.00000000000E+00 0. -1.
         -5    1    5    5    0  502  0.38466621295E+02  0.41581548545E+02  0.14905965164E+03  0.15952923205E+03  0.47000000000E+01 0.  1.
         11    1    6    6    0    0 -0.11687059761E+03  0.30028073961E+02  0.20816808064E+03  0.24061249263E+03  0.00000000000E+00 0. -1.
        -12    1    6    6    0    0 -0.41163492139E+00 -0.14673576005E+02  0.55184876271E+02  0.57103886428E+02  0.00000000000E+00 0.  1.
</event>
<event>
12    1  0.8416569E-002  0.2012196E+03  0.7818608E-02  0.1148855E+00
         21   -1    0    0  501  502  0.00000000000E+00  0.00000000000E+00  0.28863371156E+03  0.28863371156E+03  0.00000000000E+00 0.  1.
         21   -1    0    0  502  503 -0.00000000000E+00 -0.00000000000E+00 -0.20857146499E+03  0.20857146499E+03  0.00000000000E+00 0.  1.
         -6    2    1    2    0  503 -0.95847945022E+02  0.37641323848E+02 -0.10266367280E+03  0.22589633129E+03  0.17287459313E+03 0.  0.
        -24    2    3    3    0    0 -0.71497967859E+02  0.80655149779E+02 -0.28723626451E+02  0.13683269638E+03  0.79252302727E+02 0.  0.
          6    2    1    2  501    0  0.95847945022E+02 -0.37641323848E+02  0.18272591937E+03  0.27130884526E+03  0.17209308551E+03 0.  0.
         24    2    5    5    0    0  0.61816448255E+02  0.38611699438E+02  0.13784132718E+03  0.17639107586E+03  0.82470864888E+02 0.  0.
          5    1    5    5  501    0  0.34031496767E+02 -0.76253023286E+02  0.44884592191E+02  0.94917769403E+02  0.47000000000E+01 0. -1.
        -11    1    6    6    0    0  0.41642826681E+02  0.36985699912E+02  0.23800765540E+02  0.60568502147E+02  0.00000000000E+00 0.  1.
         12    1    6    6    0    0  0.20173621574E+02  0.16259995253E+01  0.11404056164E+03  0.11582257371E+03  0.00000000000E+00 0. -1.
         -5    1    3    3    0  503 -0.24349977163E+02 -0.43013825931E+02 -0.73940046349E+02  0.89063634909E+02  0.47000000000E+01 0.  1.
         13    1    4    4    0    0 -0.35224846281E+02  0.68863329343E+02  0.15021453714E+02  0.78794619076E+02  0.00000000000E+00 0. -1.
        -14    1    4    4    0    0 -0.36273121578E+02  0.11791820437E+02 -0.43745080164E+02  0.58038077301E+02  0.00000000000E+00 0.  1.
</event>
<event>
12    1  0.8416569E-002  0.2597829E+03  0.7818608E-02  0.1107380E+00
         21   -1    0    0  503  502  0.00000000000E+00  0.00000000000E+00  0.34523849364E+03  0.34523849364E+03  0.00000000000E+00 0.  1.
         21   -1    0    0  501  503 -0.00000000000E+00 -0.00000000000E+00 -0.31549560013E+03  0.31549560013E+03  0.00000000000E+00 0. -1.
          6    2    1    2  501    0 -0.16720546604E+03 -0.98879724853E+02 -0.18932629945E+03  0.32145234846E+03  0.17248854109E+03 0.  0.
         24    2    3    3    0    0 -0.14686371122E+02 -0.55668561804E+02 -0.45886573679E+02  0.10761520516E+03  0.78490613876E+02 0.  0.
         -6    2    1    2    0  502  0.16720546604E+03  0.98879724853E+02  0.21906919296E+03  0.33928174531E+03  0.17142322926E+03 0.  0.
        -24    2    5    5    0    0  0.19429978481E+03  0.91022366035E+02  0.18134035383E+03  0.29193836669E+03  0.79411639721E+02 0.  0.
          5    1    3    3  501    0 -0.15251909492E+03 -0.43211163049E+02 -0.14343972577E+03  0.21383714330E+03  0.47000000000E+01 0. -1.
        -13    1    4    4    0    0 -0.68009465454E+01  0.80433799119E+01 -0.41998814734E+02  0.43299529713E+02  0.00000000000E+00 0.  1.
         14    1    4    4    0    0 -0.78854245761E+01 -0.63711941716E+02 -0.38877589450E+01  0.64315675442E+02  0.00000000000E+00 0. -1.
         -5    1    5    5    0  502 -0.27094318762E+02  0.78573588183E+01  0.37728839132E+02  0.47343378619E+02  0.47000000000E+01 0.  1.
         11    1    6    6    0    0  0.84802998775E+02 -0.93955937263E+00  0.54607093697E+02  0.10086806261E+03  0.00000000000E+00 0. -1.
        -12    1    6    6    0    0  0.10949678603E+03  0.91961925407E+02  0.12673326013E+03  0.19107030408E+03  0.00000000000E+00 0.  1.
</event>
<event>
12    1  0.8416569E-002  0.2956616E+03  0.7818608E-02  0.1087459E+00
         21   -1    0    0  501  502  0.00000000000E+00  0.00000000000E+00  0.12157220698E+03  0.12157220698E+03  0.00000000000E+00 0. -1.
         21   -1    0    0  502  503 -0.00000000000E+00 -0.00000000000E+00 -0.72071340507E+03  0.72071340507E+03  0.00000000000E+00 0.  1.
         -6    2    1    2    0  503  0.23257018882E+03  0.58944566643E+02 -0.27602398824E+03  0.40431244281E+03  0.17238316236E+03 0.  0.
        -24    2    3    3    0    0  0.21279425727E+03 -0.16386308549E+01 -0.23837153434E+03  0.33014231020E+03  0.82999250354E+02 0.  0.
          6    2    1    2  501    0 -0.23257018882E+03 -0.58944566643E+02 -0.32311720985E+03  0.43797316924E+03  0.17277850275E+03 0.  0.
         24    2    5    5    0    0 -0.14903803412E+03 -0.93932926773E+02 -0.15503035644E+03  0.24698341427E+03  0.77010811995E+02 0.  0.
          5    1    5    5  501    0 -0.83532154701E+02  0.34988360130E+02 -0.16808685341E+03  0.19098975497E+03  0.47000000000E+01 0. -1.
        -11    1    6    6    0    0 -0.13845702014E+02 -0.46051808024E+02 -0.48741003294E+02  0.68470124059E+02  0.00000000000E+00 0.  1.
         12    1    6    6    0    0 -0.13519233210E+03 -0.47881118749E+02 -0.10628935314E+03  0.17851329021E+03  0.00000000000E+00 0. -1.
         -5    1    3    3    0  503  0.19775931545E+02  0.60583197498E+02 -0.37652453904E+02  0.74170132617E+02  0.47000000000E+01 0.  1.
         13    1    4    4    0    0  0.17431911197E+03 -0.16790146665E+01 -0.13701082957E+03  0.22172491811E+03  0.00000000000E+00 0. -1.
        -14    1    4    4    0    0  0.38475145299E+02  0.40383811579E-01 -0.10136070477E+03  0.10841739209E+03  0.00000000000E+00 0.  1.
</event>
<event>
12    1  0.8416569E-002  0.3001973E+03  0.7818608E-02  0.1085249E+00
         21   -1    0    0  503  502  0.00000000000E+00  0.00000000000E+00  0.85609046394E+03  0.85609046394E+03  0.00000000000E+00 0.  1.
         21   -1    0    0  501  503 -0.00000000000E+00 -0.00000000000E+00 -0.20087561160E+03  0.20087561160E+03  0.00000000000E+00 0. -1.
          6    2    1    2  501    0 -0.19187332446E+03 -0.15073027267E+03 -0.37805639635E+02  0.30172053363E+03  0.17340999477E+03 0.  0.
         24    2    3    3    0    0 -0.12284081057E+03 -0.17047177183E+03 -0.46482260095E+02  0.22924578971E+03  0.79009758026E+02 0.  0.
         -6    2    1    2    0  502  0.19187332446E+03  0.15073027267E+03  0.69302049198E+03  0.75524554191E+03  0.17488121265E+03 0.  0.
        -24    2    5    5    0    0  0.79686838076E+02  0.24724092798E+02  0.17426309813E+03  0.20972314204E+03  0.81577545985E+02 0.  0.
          5    1    3    3  501    0 -0.69032513897E+02  0.19741499159E+02  0.86766204600E+01  0.72474743922E+02  0.47000000000E+01 0. -1.
        -13    1    4    4    0    0 -0.87033580703E+02 -0.14663073834E+03 -0.66910823367E+01  0.17064638343E+03  0.00000000000E+00 0.  1.
         14    1    4    4    0    0 -0.35807229862E+02 -0.23841033493E+02 -0.39791177759E+02  0.58599406276E+02  0.00000000000E+00 0. -1.
         -5    1    5    5    0  502  0.11218648639E+03  0.12600617987E+03  0.51875739385E+03  0.54552239987E+03  0.47000000000E+01 0.  1.
         13    1    6    6    0    0 -0.67611216773E+01 -0.11642521831E+02  0.61975999517E+02  0.63421491603E+02  0.00000000000E+00 0. -1.
        -14    1    6    6    0    0  0.86447959753E+02  0.36366614629E+02  0.11228709861E+03  0.14630165044E+03  0.00000000000E+00 0.  1.
</event>
<event>
12    1  0.8416569E-002  0.2257629E+03  0.7818608E-02  0.1130169E+00
         21   -1    0    0  501  502  0.00000000000E+00  0.00000000000E+00  0.61736847696E+03  0.61736847696E+03  0.00000000000E+00 0. -1.
         21   -1    0    0  502  503 -0.00000000000E+00 -0.00000000000E+00 -0.16286193565E+03  0.16286193565E+03  0.00000000000E+00 0. -1.
         -6    2    1    2    0  503  0.67705709157E+02 -0.12626517307E+03 -0.47711736114E+02  0.23074945726E+03  0.17447620263E+03 0.  0.
        -24    2    3    3    0    0 -0.92920293934E+01 -0.12150460881E+02  0.42464619166E+01  0.83533413227E+02  0.82011116178E+02 0.  0.
          6    2    1    2  501    0 -0.67705709157E+02  0.12626517307E+03  0.50221827742E+03  0.54948095535E+03  0.17081910061E+03 0.  0.
         24    2    5    5    0    0 -0.45562946235E+02  0.14364031956E+03  0.48941000000E+03  0.51820253410E+03  0.79392661949E+02 0.  0.
          5    1    5    5  501    0 -0.22142762922E+02 -0.17375146493E+02  0.12808277421E+02  0.31278421251E+02  0.47000000000E+01 0. -1.
        -11    1    6    6    0    0 -0.25004174261E+02  0.94343979765E+01  0.35582917210E+02  0.44501242599E+02  0.00000000000E+00 0.  1.
         12    1    6    6    0    0 -0.20558771974E+02  0.13420592158E+03  0.45382708279E+03  0.47370129150E+03  0.00000000000E+00 0. -1.
         -5    1    3    3    0  503  0.76997738550E+02 -0.11411471219E+03 -0.51958198030E+02  0.14721604404E+03  0.47000000000E+01 0.  1.
         13    1    4    4    0    0  0.13232263178E+02  0.27539439140E+02 -0.14961511974E+02  0.34019999081E+02  0.00000000000E+00 0. -1.
        -14    1    4    4    0    0 -0.22524292571E+02 -0.39689900021E+02  0.19207973890E+02  0.49513414147E+02  0.00000000000E+00 0.  1.
</event>
<event>
12    1  0.8416569E-002  0.1967785E+03  0.7818608E-02  0.1152504E+00
         21   -1    0    0  503  502  0.00000000000E+00  0.00000000000E+00  0.21201670187E+03  0.21201670187E+03  0.00000000000E+00 0. -1.
         21   -1    0    0  501  503 -0.00000000000E+00 -0.00000000000E+00 -0.21911463570E+03  0.21911463570E+03  0.00000000000E+00 0. -1.
          6    2    1    2  501    0  0.90324481439E+02 -0.31986139860E+02 -0.91601104072E+02  0.21705423105E+03  0.17187248721E+03 0.  0.
         24    2    3    3    0    0  0.52277413817E+02 -0.31976387336E+02  0.17006110082E+02  0.10187959662E+03  0.79591626982E+02 0.  0.
         -6    2    1    2    0  502 -0.90324481439E+02  0.31986139860E+02  0.84503170235E+02  0.21407710652E+03  0.17177484294E+03 0.  0.
        -24    2    5    5    0    0 -0.10955457886E+03 -0.72942578003E+01  0.98739111001E+02  0.16784401992E+03  0.79792174021E+02 0.  0.
          5    1    3    3  501    0  0.38047067622E+02 -0.97525240346E-02 -0.10860721415E+03  0.11517463443E+03  0.47000000000E+01 0. -1.
        -13    1    4    4    0    0  0.69340021778E+02 -0.40164265283E+02  0.20314014738E+02  0.82667200392E+02  0.00000000000E+00 0.  1.
         14    1    4    4    0    0 -0.17062607961E+02  0.81878779476E+01 -0.33079046561E+01  0.19212396231E+02  0.00000000000E+00 0. -1.
         -5    1    5    5    0  502  0.19230097421E+02  0.39280397660E+02 -0.14235940766E+02  0.46233086601E+02  0.47000000000E+01 0.  1.
         11    1    6    6    0    0 -0.17159051632E+02 -0.22396022578E+02  0.60422327231E+02  0.66684874659E+02  0.00000000000E+00 0. -1.
        -12    1    6    6    0    0 -0.92395527229E+02  0.15101764778E+02  0.38316783770E+02  0.10115914526E+03  0.00000000000E+00 0.  1.
</event>
<event>
12    1  0.8416569E-002  0.1804035E+03  0.7818608E-02  0.1167933E+00
         21   -1    0    0  503  502  0.00000000000E+00  0.00000000000E+00  0.35147887537E+02  0.35147887537E+02  0.00000000000E+00 0.  1.
         21   -1    0    0  501  503 -0.00000000000E+00 -0.00000000000E+00 -0.10855983861E+04  0.10855983861E+04  0.00000000000E+00 0.  1.
          6    2    1    2  501    0 -0.12287128415E+02  0.54156426441E+02 -0.74472417959E+03  0.76576173485E+03  0.16939019699E+03 0.  0.
         24    2    3    3    0    0 -0.60254440080E+02  0.50416083788E+02 -0.34056567772E+03  0.35872237828E+03  0.80773663964E+02 0.  0.
         -6    2    1    2    0  502  0.12287128415E+02 -0.54156426441E+02 -0.30572631902E+03  0.35498453884E+03  0.17164366759E+03 0.  0.
        -24    2    5    5    0    0 -0.22360231600E+02  0.70346333811E+01 -0.25401435232E+03  0.26757170878E+03  0.80758046862E+02 0.  0.
          5    1    3    3  501    0  0.47967311665E+02  0.37403426528E+01 -0.40415850188E+03  0.40703935656E+03  0.47000000000E+01 0. -1.
        -13    1    4    4    0    0 -0.11021744861E+02  0.59300392366E+02 -0.14932676624E+03  0.16104812482E+03  0.00000000000E+00 0.  1.
         14    1    4    4    0    0 -0.49232695220E+02 -0.88843085782E+01 -0.19123891148E+03  0.19767425346E+03  0.00000000000E+00 0. -1.
         -5    1    5    5    0  502  0.34647360015E+02 -0.61191059822E+02 -0.51711966698E+02  0.87412830053E+02  0.47000000000E+01 0.  1.
         13    1    6    6    0    0 -0.20621334066E+01 -0.27912582223E+02 -0.18870366101E+03  0.19076801702E+03  0.00000000000E+00 0. -1.
        -14    1    6    6    0    0 -0.20298098193E+02  0.34947215604E+02 -0.65310691314E+02  0.76803691765E+02  0.00000000000E+00 0.  1.
</event>
<event>
12    1  0.8416569E-002  0.1743745E+03  0.7818608E-02  0.1173863E+00
         21   -1    0    0  503  502  0.00000000000E+00  0.00000000000E+00  0.46241186233E+03  0.46241186233E+03  0.00000000000E+00 0.  1.
         21   -1    0    0  501  503 -0.00000000000E+00 -0.00000000000E+00 -0.53962391570E+03  0.53962391570E+03  0.00000000000E+00 0.  1.
          6    2    1    2  501    0  0.65255850431E+00 -0.24457191205E+02 -0.50844756758E+03  0.53687932479E+03  0.17065140015E+03 0.  0.
         24    2    3    3    0    0  0.63087295519E+01  0.38108172985E+02 -0.41314109489E+03  0.42263471527E+03  0.80265218805E+02 0.  0.
         -6    2    1    2    0  502 -0.65255850431E+00  0.24457191205E+02  0.43123551421E+03  0.46515645324E+03  0.17264957933E+03 0.  0.
        -24    2    5    5    0    0 -0.50765612109E+02  0.59022162793E+02  0.25804824175E+03  0.28152100801E+03  0.81267581533E+02 0.  0.
          5    1    3    3  501    0 -0.56561710476E+01 -0.62565364190E+02 -0.95306472694E+02  0.11424460952E+03  0.47000000000E+01 0. -1.
        -13    1    4    4    0    0 -0.11691022468E+02 -0.19807431140E+02 -0.58754023879E+02  0.63095559723E+02  0.00000000000E+00 0.  1.
         14    1    4    4    0    0  0.17999752020E+02  0.57915604126E+02 -0.35438707101E+03  0.35953915555E+03  0.00000000000E+00 0. -1.
         -5    1    5    5    0  502  0.50113053605E+02 -0.34564971588E+02  0.17318727246E+03  0.18363544523E+03  0.47000000000E+01 0.  1.
         11    1    6    6    0    0 -0.31500464140E+02 -0.80585736901E+01  0.14550635617E+03  0.14909500172E+03  0.00000000000E+00 0. -1.
        -12    1    6    6    0    0 -0.19265147969E+02  0.67080736483E+02  0.11254188558E+03  0.13242600629E+03  0.00000000000E+00 0.  1.
</event>
<event>
12    1  0.8416569E-002  0.1817707E+03  0.7818608E-02  0.1167128E+00
         21   -1    0    0  501  502  0.00000000000E+00  0.00000000000E+00  0.18678144267E+03  0.18678144267E+03  0.00000000000E+00 0. -1.
         21   -1    0    0  502  503 -0.00000000000E+00 -0.00000000000E+00 -0.45226702911E+03  0.45226702911E+03  0.00000000000E+00 0. -1.
         -6    2    1    2    0  503 -0.41143244758E+02 -0.40106695844E+02 -0.38331520020E+03  0.42242805474E+03  0.16796905992E+03 0.  0.
        -24    2    3    3    0    0 -0.67543114951E+02  0.21282847960E+02 -0.26523223687E+03  0.28666611065E+03  0.82548697916E+02 0.  0.
          6    2    1    2  501    0  0.41143244758E+02  0.40106695844E+02  0.11782961376E+03  0.21662041703E+03  0.17245078589E+03 0.  0.
         24    2    5    5    0    0  0.44134351539E+02  0.37684576983E+02  0.15246693897E+03  0.18145441532E+03  0.79445383956E+02 0.  0.
          5    1    5    5  501    0 -0.29911067811E+01  0.24221188616E+01 -0.34637325202E+02  0.35166001716E+02  0.47000000000E+01 0. -1.
        -11    1    6    6    0    0  0.18387052710E+02 -0.12262270085E+02  0.36738282413E+01  0.22404106520E+02  0.00000000000E+00 0.  1.
         12    1    6    6    0    0  0.25747298829E+02  0.49946847068E+02  0.14879311073E+03  0.15905030880E+03  0.00000000000E+00 0. -1.
         -5    1    3    3    0  503  0.26399870194E+02 -0.61389543804E+02 -0.11808296333E+03  0.13576194409E+03  0.47000000000E+01 0.  1.
         11    1    4    4    0    0 -0.77664590264E+02 -0.21875741665E+00 -0.23884489174E+03  0.25115477050E+03  0.00000000000E+00 0. -1.
        -12    1    4    4    0    0  0.10121475313E+02  0.21501605376E+02 -0.26387345123E+02  0.35511340145E+02  0.00000000000E+00 0.  1.
</event>
<event>
12    1  0.8416569E-002  0.2061219E+03  0.7818608E-02  0.1144812E+00
         21   -1    0    0  501  502  0.00000000000E+00  0.00000000000E+00  0.20180445963E+03  0.20180445963E+03  0.00000000000E+00 0. -1.
         21   -1    0    0  502  503 -0.00000000000E+00 -0.00000000000E+00 -0.23881489648E+03  0.23881489648E+03  0.00000000000E+00 0.  1.
         -6    2    1    2    0  503  0.90169379950E+02  0.69962923075E+02 -0.95219231494E+02  0.22643603435E+03  0.17082519697E+03 0.  0.
        -24    2    3    3    0    0  0.76303615753E+02  0.34293130956E+02  0.10537135046E+02  0.11387008679E+03  0.76531724422E+02 0.  0.
          6    2    1    2  501    0 -0.90169379950E+02 -0.69962923075E+02  0.58208794644E+02  0.21418332175E+03  0.17164178937E+03 0.  0.
         24    2    5    5    0    0 -0.10763410595E+03 -0.65869279455E+02  0.92140091226E+02  0.17551553852E+03  0.79950266490E+02 0.  0.
          5    1    5    5  501    0  0.17464725998E+02 -0.40936436193E+01 -0.33931296582E+02  0.38667783231E+02  0.47000000000E+01 0. -1.
        -13    1    6    6    0    0 -0.17146859990E+02 -0.53561066019E+02  0.22087072691E+02  0.60420537739E+02  0.00000000000E+00 0.  1.
         14    1    6    6    0    0 -0.90487245957E+02 -0.12308213436E+02  0.70053018535E+02  0.11509500078E+03  0.00000000000E+00 0. -1.
         -5    1    3    3    0  503  0.13865764197E+02  0.35669792119E+02 -0.10575636654E+03  0.11256594756E+03  0.47000000000E+01 0.  1.
         11    1    4    4    0    0 -0.40370907591E+01  0.18979498995E+02  0.24126789091E+02  0.30961612292E+02  0.00000000000E+00 0. -1.
        -12    1    4    4    0    0  0.80340706512E+02  0.15313631961E+02 -0.13589654044E+02  0.82908474499E+02  0.00000000000E+00 0.  1.
</event>
<event>
12    1  0.8416569E-002  0.1880134E+03  0.7818608E-02  0.1160383E+00
         21   -1    0    0  503  502  0.00000000000E+00  0.00000000000E+00  0.10525741479E+04  0.10525741479E+04  0.00000000000E+00 0.  1.
         21   -1    0    0  501  503 -0.00000000000E+00 -0.00000000000E+00 -0.55860438674E+02  0.55860438674E+02  0.00000000000E+00 0.  1.
          6    2    1    2  501    0 -0.70251310692E+02 -0.28319393741E+02  0.14805529818E+03  0.23931029092E+03  0.17208082201E+03 0.  0.
         24    2    3    3    0    0 -0.64760849412E+01  0.10480701148E+02  0.14335636309E+03  0.16436433189E+03  0.79453143345E+02 0.  0.
         -6    2    1    2    0  502  0.70251310692E+02  0.28319393741E+02  0.84865841109E+03  0.86912429570E+03  0.17151882682E+03 0.  0.
        -24    2    5    5    0    0 -0.15643965837E+02  0.43691351410E+02  0.30825079960E+03  0.32169688301E+03  0.79477425908E+02 0.  0.
          5    1    3    3  501    0 -0.63775225750E+02 -0.38800094889E+02  0.46989350910E+01  0.74945959023E+02  0.47000000000E+01 0. -1.
        -11    1    4    4    0    0 -0.30918134389E+02 -0.23270532775E+02  0.71405336185E+02  0.81216813318E+02  0.00000000000E+00 0.  1.
         12    1    4    4    0    0  0.24442049448E+02  0.33751233923E+02  0.71951026906E+02  0.83147518576E+02  0.00000000000E+00 0. -1.
         -5    1    5    5    0  502  0.85895276529E+02 -0.15371957669E+02  0.54040761148E+03  0.54742741269E+03  0.47000000000E+01 0.  1.
         13    1    6    6    0    0  0.46976979361E+01 -0.12095693154E+02  0.17887400454E+03  0.17934403714E+03  0.00000000000E+00 0. -1.
        -14    1    6    6    0    0 -0.20341663773E+02  0.55787044564E+02  0.12937679506E+03  0.14235284587E+03  0.00000000000E+00 0.  1.
</event>
<event>
12    1  0.8416569E-002  0.2109127E+03  0.7818608E-02  0.1141053E+00
         21   -1    0    0  501  502  0.00000000000E+00  0.00000000000E+00  0.17372724981E+03  0.17372724981E+03  0.00000000000E+00 0.  1.
         21   -1    0    0  502  503 -0.00000000000E+00 -0.00000000000E+00 -0.36526143068E+03  0.36526143068E+03  0.00000000000E+00 0.  1.
         -6    2    1    2    0  503 -0.10831888107E+03 -0.56439423293E+02 -0.24381341802E+03  0.32169331159E+03  0.17065525311E+03 0.  0.
        -24    2    3    3    0    0 -0.69302448933E+02  0.15693993338E+02 -0.65612412466E+02  0.12547098831E+03  0.79930278261E+02 0.  0.
          6    2    1    2  501    0  0.10831888107E+03  0.56439423293E+02  0.52279237147E+02  0.21729536890E+03  0.17194699827E+03 0.  0.
         24    2    5    5    0    0  0.13599949932E+03  0.51096349760E+02  0.94200786452E+01  0.16578068624E+03  0.79295632125E+02 0.  0.
          5    1    5    5  501    0 -0.27680618259E+02  0.53430735327E+01  0.42859158502E+02  0.51514682659E+02  0.47000000000E+01 0. -1.
        -13    1    6    6    0    0  0.31114280516E+02  0.14408350144E+02  0.37863071598E+02  0.51081417332E+02  0.00000000000E+00 0.  1.
         14    1    6    6    0    0  0.10488521881E+03  0.36687999616E+02 -0.28442992952E+02  0.11469926891E+03  0.00000000000E+00 0. -1.
         -5    1    3    3    0  503 -0.39016432132E+02 -0.72133416630E+02 -0.17820100556E+03  0.19622232328E+03  0.47000000000E+01 0.  1.
         11    1    4    4    0    0  0.15617218598E+02  0.88750664832E+01 -0.36945319565E-01  0.17962897505E+02  0.00000000000E+00 0. -1.
        -12    1    4    4    0    0 -0.84919667532E+02  0.68189268543E+01 -0.65575467146E+02  0.10750809081E+03  0.00000000000E+00 0.  1.
</event>
<event>
12    1  0.8416569E-002  0.1929109E+03  0.7818608E-02  0.1155998E+00
         21   -1    0    0  501  502  0.00000000000E+00  0.00000000000E+00  0.27125120946E+03  0.27125120946E+03  0.00000000000E+00 0. -1.
         21   -1    0    0  502  503 -0.00000000000E+00 -0.00000000000E+00 -0.15386934590E+03  0.15386934590E+03  0.00000000000E+00 0. -1.
         -6    2    1    2    0  503  0.99900173243E+01  0.88282941979E+02 -0.12270926161E+02  0.19268895786E+03  0.17054260630E+03 0.  0.
        -24    2    3    3    0    0 -0.41967828320E+02  0.59312624369E+00 -0.17488469735E+02  0.90520301863E+02  0.78271502241E+02 0.  0.
          6    2    1    2  501    0 -0.99900173243E+01 -0.88282941979E+02  0.12965278973E+03  0.23243159750E+03  0.17123353451E+03 0.  0.
         24    2    5    5    0    0 -0.17079934252E+02  0.11693484763E+01  0.91745776758E+01  0.82134994848E+02  0.79805344265E+02 0.  0.
          5    1    5    5  501    0  0.70899169275E+01 -0.89452290455E+02  0.12047821205E+03  0.15029660265E+03  0.47000000000E+01 0. -1.
        -11    1    6    6    0    0  0.24515322766E+02  0.23008460342E+02  0.10230149413E+02  0.35143224875E+02  0.00000000000E+00 0.  1.
         12    1    6    6    0    0 -0.41595257017E+02 -0.21839111866E+02 -0.10555717374E+01  0.46991769972E+02  0.00000000000E+00 0. -1.
         -5    1    3    3    0  503  0.51957845644E+02  0.87689815735E+02  0.52175435736E+01  0.10216865600E+03  0.47000000000E+01 0.  1.
         13    1    4    4    0    0 -0.79346904911E+01  0.34744298941E+02 -0.22342040566E+02  0.42062957560E+02  0.00000000000E+00 0. -1.
        -14    1    4    4    0    0 -0.34033137829E+02 -0.34151172697E+02  0.48535708314E+01  0.48457344302E+02  0.00000000000E+00 0.  1.
</event>
<event>
12    1  0.8416569E-002  0.1930027E+03  0.7818608E-02  0.1156353E+00
         21   -1    0    0  503  502  0.00000000000E+00  0.00000000000E+00  0.12415092960E+04  0.12415092960E+04  0.00000000000E+00 0.  1.
         21   -1    0    0  501  503 -0.00000000000E+00 -0.00000000000E+00 -0.34280375082E+02  0.34280375082E+02  0.00000000000E+00 0.  1.
          6    2    1    2  501    0 -0.85494543979E+02  0.20042903600E+02  0.84266749122E+03  0.86448745188E+03  0.17186919055E+03 0.  0.
         24    2    3    3    0    0 -0.51510530622E+02  0.76624090400E+02  0.44583996530E+03  0.46218095281E+03  0.79456733437E+02 0.  0.
         -6    2    1    2    0  502  0.85494543979E+02 -0.20042903600E+02  0.36456142969E+03  0.41130221920E+03  0.16897764486E+03 0.  0.
        -24    2    5    5    0    0  0.99174892262E+02 -0.29630878304E+02  0.37057048221E+03  0.39293703746E+03  0.79770827468E+02 0.  0.
          5    1    3    3  501    0 -0.33984013357E+02 -0.56581186800E+02  0.39682752592E+03  0.40230649907E+03  0.47000000000E+01 0. -1.
        -11    1    4    4    0    0 -0.51674383307E+02  0.30998199034E+02  0.35961256460E+03  0.36462628382E+03  0.00000000000E+00 0.  1.
         12    1    4    4    0    0  0.16385268497E+00  0.45625891366E+02  0.86227400693E+02  0.97554668986E+02  0.00000000000E+00 0. -1.
         -5    1    5    5    0  502 -0.13680348283E+02  0.95879747043E+01 -0.60090525217E+01  0.18365181738E+02  0.47000000000E+01 0.  1.
         13    1    6    6    0    0  0.52849380855E+02  0.25316855261E+02  0.17754282979E+03  0.18696378427E+03  0.00000000000E+00 0. -1.
        -14    1    6    6    0    0  0.46325511407E+02 -0.54947733565E+02  0.19302765242E+03  0.20597325319E+03  0.00000000000E+00 0.  1.
</event>
<event>
12    1  0.8416569E-002  0.1889512E+03  0.7818608E-02  0.1159564E+00
         21   -1    0    0  503  502  0.00000000000E+00  0.00000000000E+00  0.44543589789E+03  0.44543589789E+03  0.00000000000E+00 0. -1.
         21   -1    0    0  501  503 -0.00000000000E+00 -0.00000000000E+00 -0.96077410789E+02  0.96077410789E+02  0.00000000000E+00 0. -1.
          6    2    1    2  501    0  0.70756784838E+02  0.30207240279E+02  0.63720084764E+02  0.19940608782E+03  0.17257907953E+03 0.  0.
         24    2    3    3    0    0  0.31149800936E+02  0.39688620791E+02  0.10438128849E+03  0.14166499986E+03  0.81412665360E+02 0.  0.
         -6    2    1    2    0  502 -0.70756784838E+02 -0.30207240279E+02  0.28563840234E+03  0.34210722087E+03  0.17184019818E+03 0.  0.
        -24    2    5    5    0    0 -0.75797282109E+02  0.20043198895E+02  0.26398657097E+03  0.28695828569E+03  0.80679553005E+02 0.  0.
          5    1    3    3  501    0  0.39606983902E+02 -0.94813805119E+01 -0.40661203721E+02  0.57741087956E+02  0.47000000000E+01 0. -1.
        -11    1    4    4    0    0  0.15112829478E+02  0.64465211546E+02  0.74326995933E+02  0.99542269609E+02  0.00000000000E+00 0.  1.
         12    1    4    4    0    0  0.16036971458E+02 -0.24776590756E+02  0.30054292553E+02  0.42122730252E+02  0.00000000000E+00 0. -1.
         -5    1    5    5    0  502  0.50404972709E+01 -0.50250439174E+02  0.21651831369E+02  0.55148935181E+02  0.47000000000E+01 0.  1.
         13    1    6    6    0    0 -0.42197983125E+01 -0.80096427437E+01  0.14508853058E+03  0.14537070812E+03  0.00000000000E+00 0. -1.
        -14    1    6    6    0    0 -0.71577483797E+02  0.28052841639E+02  0.11889804039E+03  0.14158757756E+03  0.00000000000E+00 0.  1.
</event>
<event>
12    1  0.8416569E-002  0.1901562E+03  0.7818608E-02  0.1158325E+00
         21   -1    0    0  501  502  0.00000000000E+00  0.00000000000E+00  0.21594174506E+03  0.21594174506E+03  0.00000000000E+00 0.  1.
         21   -1    0    0  502  503 -0.00000000000E+00 -0.00000000000E+00 -0.21851264462E+03  0.21851264462E+03  0.00000000000E+00 0.  1.
         -6    2    1    2    0  503  0.27418407005E+02 -0.75357047499E+02 -0.10631146443E+03  0.21785658907E+03  0.17242074203E+03 0.  0.
        -24    2    3    3    0    0 -0.34954864675E+02 -0.34610528719E+01 -0.79428536512E+02  0.11884022236E+03  0.81118953316E+02 0.  0.
          6    2    1    2  501    0 -0.27418407005E+02  0.75357047499E+02  0.10374056487E+03  0.21659780060E+03  0.17240083751E+03 0.  0.
         24    2    5    5    0    0 -0.53967741288E+02 -0.38840554972E+01  0.91186434389E+02  0.13195906392E+03  0.78553330595E+02 0.  0.
          5    1    5    5  501    0  0.26549334283E+02  0.79241102996E+02  0.12554130482E+02  0.84638736682E+02  0.47000000000E+01 0. -1.
        -13    1    6    6    0    0 -0.47100582796E+02 -0.35238158789E+02  0.38621200138E+02  0.70368955049E+02  0.00000000000E+00 0.  1.
         14    1    6    6    0    0 -0.68671584921E+01  0.31354103292E+02  0.52565234251E+02  0.61590108872E+02  0.00000000000E+00 0. -1.
         -5    1    3    3    0  503  0.62373271680E+02 -0.71895994627E+02 -0.26882927921E+02  0.99016366713E+02  0.47000000000E+01 0.  1.
         11    1    4    4    0    0 -0.45527081355E+02 -0.54647764033E+01 -0.79276032722E+01  0.46534135981E+02  0.00000000000E+00 0. -1.
        -12    1    4    4    0    0  0.10572216680E+02  0.20037235314E+01 -0.71500933239E+02  0.72306086380E+02  0.00000000000E+00 0.  1.
</event>
<event>
12    1  0.8416569E-002  0.1800125E+03  0.7818608E-02  0.1168201E+00
         21   -1    0    0  501  502  0.00000000000E+00  0.00000000000E+00  0.10919135598E+04  0.10919135598E+04  0.00000000000E+00 0. -1.
         21   -1    0    0  502  503 -0.00000000000E+00 -0.00000000000E+00 -0.10973680327E+03  0.10973680327E+03  0.00000000000E+00 0. -1.
         -6    2    1    2    0  503 -0.36649194028E+02 -0.36168625027E+02 -0.22370934830E+02  0.18139725823E+03  0.17249108299E+03 0.  0.
        -24    2    3    3    0    0  0.34795151877E+02 -0.11822538758E+02 -0.50772006683E+02  0.10061522211E+03  0.78709283061E+02 0.  0.
          6    2    1    2  501    0  0.36649194028E+02  0.36168625027E+02  0.10045476914E+04  0.10202531049E+04  0.17073078472E+03 0.  0.
         24    2    5    5    0    0 -0.34771041978E+02  0.42413284551E+02  0.40487293289E+03  0.41628973523E+03  0.79794359457E+02 0.  0.
          5    1    5    5  501    0  0.71420236006E+02 -0.62446595243E+01  0.59967475849E+03  0.60396336963E+03  0.47000000000E+01 0. -1.
        -11    1    6    6    0    0  0.22049736259E+02  0.28760609949E+02  0.19947962865E+03  0.20274487861E+03  0.00000000000E+00 0.  1.
         12    1    6    6    0    0 -0.56820778237E+02  0.13652674602E+02  0.20539330424E+03  0.21354485662E+03  0.00000000000E+00 0. -1.
         -5    1    3    3    0  503 -0.71444345904E+02 -0.24346086268E+02  0.28401071853E+02  0.80782036126E+02  0.47000000000E+01 0.  1.
         11    1    4    4    0    0 -0.17284267990E+02 -0.22463284668E+02 -0.35266444807E+02  0.45244526822E+02  0.00000000000E+00 0. -1.
        -12    1    4    4    0    0  0.52079419866E+02  0.10640745909E+02 -0.15505561875E+02  0.55370695284E+02  0.00000000000E+00 0.  1.
</event>
<event>
12    1  0.8416569E-002  0.2124293E+03  0.7818608E-02  0.1140276E+00
         21   -1    0    0  503  502  0.00000000000E+00  0.00000000000E+00  0.15442172428E+03  0.15442172428E+03  0.00000000000E+00 0.  1.
         21   -1    0    0  501  503 -0.00000000000E+00 -0.00000000000E+00 -0.29235049052E+03  0.29235049052E+03  0.00000000000E+00 0.  1.
          6    2    1    2  501    0 -0.11362764737E+03 -0.41190144879E+02 -0.41933073714E+02  0.21652845690E+03  0.17469493322E+03 0.  0.
         24    2    3    3    0    0 -0.81531509248E+02  0.95027331975E+01 -0.84722403971E+02  0.14268438636E+03  0.80269916145E+02 0.  0.
         -6    2    1    2    0  502  0.11362764737E+03  0.41190144879E+02 -0.95995692533E+02  0.23024375790E+03  0.17084830929E+03 0.  0.
        -24    2    5    5    0    0  0.78078624403E+02  0.77518242301E+02 -0.19701701665E+02  0.13844873223E+03  0.81697888152E+02 0.  0.
          5    1    3    3  501    0 -0.32096138117E+02 -0.50692878077E+02  0.42789330256E+02  0.73844070537E+02  0.47000000000E+01 0. -1.
        -13    1    4    4    0    0  0.64303022162E+01  0.21808104337E+02 -0.48794181021E+01  0.23254051741E+02  0.00000000000E+00 0.  1.
         14    1    4    4    0    0 -0.87961811465E+02 -0.12305371139E+02 -0.79842985868E+02  0.11943033462E+03  0.00000000000E+00 0. -1.
         -5    1    5    5    0  502  0.35549022963E+02 -0.36328097422E+02 -0.76293990868E+02  0.91795025674E+02  0.47000000000E+01 0.  1.
         11    1    6    6    0    0  0.46271175308E+02 -0.45564130376E+01 -0.19519270324E+02  0.50426029768E+02  0.00000000000E+00 0. -1.
        -12    1    6    6    0    0  0.31807449095E+02  0.82074655339E+02 -0.18243134070E+00  0.88022702459E+02  0.00000000000E+00 0.  1.
</event>
<event>
12    1  0.8416569E-002  0.2631976E+03  0.7818608E-02  0.1105437E+00
         21   -1    0    0  501  502  0.00000000000E+00  0.00000000000E+00  0.55041649334E+02  0.55041649334E+02  0.00000000000E+00 0. -1.
         21   -1    0    0  502  503 -0.00000000000E+00 -0.00000000000E+00 -0.39105331924E+04  0.39105331924E+04  0.00000000000E+00 0. -1.
         -6    2    1    2    0  503  0.19365899637E+03 -0.39323190893E+02 -0.35609783315E+04  0.35705925804E+04  0.17179807153E+03 0.  0.
        -24    2    3    3    0    0  0.11583194655E+03 -0.85358362558E+02 -0.26451685866E+04  0.26503176945E+04  0.81018148239E+02 0.  0.
          6    2    1    2  501    0 -0.19365899637E+03  0.39323190893E+02 -0.29451321155E+03  0.39498226134E+03  0.17384715925E+03 0.  0.
         24    2    5    5    0    0 -0.12930790432E+03  0.19893804783E+02 -0.28925184700E+03  0.32739279433E+03  0.80019455155E+02 0.  0.
          5    1    5    5  501    0 -0.64351092057E+02  0.19429386110E+02 -0.52613645499E+01  0.67589467008E+02  0.47000000000E+01 0. -1.
        -11    1    6    6    0    0 -0.95390595898E+02 -0.10990460477E+02 -0.24707679573E+03  0.26507942016E+03  0.00000000000E+00 0.  1.
         12    1    6    6    0    0 -0.33917308419E+02  0.30884265260E+02 -0.42175051271E+02  0.62313374173E+02  0.00000000000E+00 0. -1.
         -5    1    3    3    0  503  0.77827049823E+02  0.46035171665E+02 -0.91580974490E+03  0.92027488588E+03  0.47000000000E+01 0.  1.
         11    1    4    4    0    0  0.10877491269E+03 -0.70516777671E+02 -0.16746055616E+04  0.16796155467E+04  0.00000000000E+00 0. -1.
        -12    1    4    4    0    0  0.70570338655E+01 -0.14841584887E+02 -0.97056302499E+03  0.97070214786E+03  0.00000000000E+00 0.  1.
</event>
<event>
12    1  0.8416569E-002  0.2182266E+03  0.7818608E-02  0.1135527E+00
         21   -1    0    0  501  502  0.00000000000E+00  0.00000000000E+00  0.12584793931E+03  0.12584793931E+03  0.00000000000E+00 0. -1.
         21   -1    0    0  502  503 -0.00000000000E+00 -0.00000000000E+00 -0.64409336358E+03  0.64409336358E+03  0.00000000000E+00 0.  1.
         -6    2    1    2    0  503 -0.10374372463E+03 -0.82086713858E+02 -0.50828194545E+03  0.55314861215E+03  0.17355650968E+03 0.  0.
        -24    2    3    3    0    0 -0.11944925352E+03 -0.11220371194E+03 -0.47148371422E+03  0.50285053034E+03  0.60860216522E+02 0.  0.
          6    2    1    2  501    0  0.10374372463E+03  0.82086713858E+02 -0.99634788236E+01  0.21679269075E+03  0.17146081435E+03 0.  0.
         24    2    5    5    0    0  0.80363225654E+02  0.47245629323E+02 -0.70863967935E+02  0.14268797782E+03  0.81533793821E+02 0.  0.
          5    1    5    5  501    0  0.23380498975E+02  0.34841084535E+02  0.60900489111E+02  0.74104712926E+02  0.47000000000E+01 0. -1.
        -13    1    6    6    0    0  0.71355607482E+01 -0.84528463848E+01 -0.46102148033E+02  0.47410704408E+02  0.00000000000E+00 0.  1.
         14    1    6    6    0    0  0.73227664906E+02  0.55698475708E+02 -0.24761819902E+02  0.95277273411E+02  0.00000000000E+00 0. -1.
         -5    1    3    3    0  503  0.15705528887E+02  0.30116998080E+02 -0.36798231233E+02  0.50298081801E+02  0.47000000000E+01 0.  1.
         11    1    4    4    0    0 -0.91559594275E+02 -0.11458726721E+03 -0.38791175506E+03  0.41471548177E+03  0.00000000000E+00 0. -1.
        -12    1    4    4    0    0 -0.27889659241E+02  0.23835552751E+01 -0.83571959164E+02  0.88135048572E+02  0.00000000000E+00 0.  1.
</event>
<event>
12    1  0.8416569E-002  0.2030107E+03  0.7818608E-02  0.1147775E+00
         21   -1    0    0  503  502  0.00000000000E+00  0.00000000000E+00  0.47109672166E+03  0.47109672166E+03  0.00000000000E+00 0. -1.
         21   -1    0    0  501  503 -0.00000000000E+00 -0.00000000000E+00 -0.13754159413E+03  0.13754159413E+03  0.00000000000E+00 0. -1.
          6    2    1    2  501    0 -0.17382242970E+02 -0.10756407348E+03 -0.19571868886E+02  0.20131530689E+03  0.16814464744E+03 0.  0.
         24    2    3    3    0    0 -0.91024259323E+01  0.87679998905E+01  0.40525458402E+01  0.82227483690E+02  0.81149269659E+02 0.  0.
         -6    2    1    2    0  502  0.17382242970E+02  0.10756407348E+03  0.35312699642E+03  0.40732300890E+03  0.17129269017E+03 0.  0.
        -24    2    5    5    0    0 -0.56068414855E+01  0.11744700462E+03  0.35438473861E+03  0.38183100529E+03  0.79882025993E+02 0.  0.
          5    1    3    3  501    0 -0.82798170378E+01 -0.11633207337E+03 -0.23624414726E+02  0.11908782320E+03  0.47000000000E+01 0. -1.
        -11    1    4    4    0    0  0.21803180189E+02  0.21621183745E+02 -0.23666691581E+02  0.38768112455E+02  0.00000000000E+00 0.  1.
         12    1    4    4    0    0 -0.30905606122E+02 -0.12853183854E+02  0.27719237421E+02  0.43459371235E+02  0.00000000000E+00 0. -1.
         -5    1    5    5    0  502  0.22989084456E+02 -0.98829311455E+01 -0.12577421970E+01  0.25492003601E+02  0.47000000000E+01 0.  1.
         11    1    6    6    0    0 -0.20936295537E+01  0.14993256260E+02  0.17155986127E+03  0.17222649917E+03  0.00000000000E+00 0. -1.
        -12    1    6    6    0    0 -0.35132119319E+01  0.10245374836E+03  0.18282487734E+03  0.20960450612E+03  0.00000000000E+00 0.  1.
</event>
<event>
12    1  0.8416569E-002  0.2354554E+03  0.7818608E-02  0.1124366E+00
         21   -1    0    0  501  502  0.00000000000E+00  0.00000000000E+00  0.73344471757E+03  0.73344471757E+03  0.00000000000E+00 0. -1.
         21   -1    0    0  502  503 -0.00000000000E+00 -0.00000000000E+00 -0.91029523154E+02  0.91029523154E+02  0.00000000000E+00 0.  1.
         -6    2    1    2    0  503 -0.11479640319E+03  0.92903971950E+02  0.13210587039E+03  0.26246458723E+03  0.17212302684E+03 0.  0.
        -24    2    3    3    0    0 -0.10632067972E+03  0.29861314586E+02  0.14267213549E+03  0.19781205059E+03  0.81107854536E+02 0.  0.
          6    2    1    2  501    0  0.11479640319E+03 -0.92903971950E+02  0.51030932403E+03  0.56200965350E+03  0.18338452017E+03 0.  0.
         24    2    5    5    0    0  0.79157489791E+02 -0.64377911848E+02  0.14826773244E+03  0.19707120349E+03  0.80270262471E+02 0.  0.
          5    1    5    5  501    0  0.35638913403E+02 -0.28526060102E+02  0.36204159159E+03  0.36493845001E+03  0.47000000000E+01 0. -1.
        -13    1    6    6    0    0  0.26391042458E+02 -0.70620096949E+02  0.73026102041E+02  0.10495950073E+03  0.00000000000E+00 0.  1.
         14    1    6    6    0    0  0.52766447333E+02  0.62421851006E+01  0.75241630401E+02  0.92111702755E+02  0.00000000000E+00 0. -1.
         -5    1    3    3    0  503 -0.84757234698E+01  0.63042657364E+02 -0.10566265104E+02  0.64652536641E+02  0.47000000000E+01 0.  1.
         11    1    4    4    0    0 -0.22895079172E+02 -0.21541654201E+02  0.10226087861E+02  0.33057531501E+02  0.00000000000E+00 0. -1.
        -12    1    4    4    0    0 -0.83425600552E+02  0.51402968787E+02  0.13244604763E+03  0.16475451909E+03  0.00000000000E+00 0.  1.
</event>
<event>
12    1  0.8416569E-002  0.2079573E+03  0.7818608E-02  0.1143351E+00
         21   -1    0    0  503  502  0.00000000000E+00  0.00000000000E+00  0.14728858889E+03  0.14728858889E+03  0.00000000000E+00 0.  1.
         21   -1    0    0  501  503 -0.00000000000E+00 -0.00000000000E+00 -0.73030152812E+03  0.73030152812E+03  0.00000000000E+00 0. -1.
          6    2    1    2  501    0  0.86100677543E+02 -0.77113040896E+02 -0.63146278216E+03  0.66482438564E+03  0.17287703934E+03 0.  0.
         24    2    3    3    0    0  0.10151224446E+02  0.22065346253E+02 -0.24507821756E+03  0.25872120457E+03  0.79267913509E+02 0.  0.
         -6    2    1    2    0  502 -0.86100677543E+02  0.77113040896E+02  0.48449842938E+02  0.21276573138E+03  0.17193638771E+03 0.  0.
        -24    2    5    5    0    0 -0.55278529266E+02 -0.19457279419E+02 -0.41495145108E+01  0.98465188969E+02  0.79018184286E+02 0.  0.
          5    1    3    3  501    0  0.75949453097E+02 -0.99178387149E+02 -0.38638456461E+03  0.40610318106E+03  0.47000000000E+01 0. -1.
        -11    1    4    4    0    0  0.23683063276E+02  0.48071863521E+02 -0.15825204355E+03  0.16707932498E+03  0.00000000000E+00 0.  1.
         12    1    4    4    0    0 -0.13531838830E+02 -0.26006517268E+02 -0.86826174006E+02  0.91641879591E+02  0.00000000000E+00 0. -1.
         -5    1    5    5    0  502 -0.30822148278E+02  0.96570320316E+02  0.52599357449E+02  0.11430054241E+03  0.47000000000E+01 0.  1.
         13    1    6    6    0    0 -0.27863629824E+02  0.61623005789E+01 -0.38277130074E+02  0.47744052007E+02  0.00000000000E+00 0. -1.
        -14    1    6    6    0    0 -0.27414899442E+02 -0.25619579998E+02  0.34127615563E+02  0.50721136962E+02  0.00000000000E+00 0.  1.
</event>
<event>
12    1  0.8416569E-002  0.1877115E+03  0.7818608E-02  0.1160697E+00
         21   -1    0    0  503  502  0.00000000000E+00  0.00000000000E+00  0.11047594118E+03  0.11047594118E+03  0.00000000000E+00 0.  1.
         21   -1    0    0  501  503 -0.00000000000E+00 -0.00000000000E+00 -0.66771904389E+03  0.66771904389E+03  0.00000000000E+00 0.  1.
          6    2    1    2  501    0  0.53944558355E+02 -0.50661399704E+02 -0.56005706411E+03  0.59046243686E+03  0.17177130578E+03 0.  0.
         24    2    3    3    0    0 -0.18523480389E+02  0.21381156041E+02 -0.26277588314E+03  0.27607424205E+03  0.79784391989E+02 0.  0.
         -6    2    1    2    0  502 -0.53944558355E+02  0.50661399704E+02  0.28139613938E+01  0.18773254821E+03  0.17250796643E+03 0.  0.
        -24    2    5    5    0    0  0.27092479499E+02  0.45055707850E+02  0.13249059723E+02  0.10569958798E+03  0.90735032161E+02 0.  0.
          5    1    3    3  501    0  0.72468038745E+02 -0.72042555745E+02 -0.29728118097E+03  0.31438819481E+03  0.47000000000E+01 0. -1.
        -13    1    4    4    0    0  0.30950425289E+02  0.15311687562E+02 -0.11864141120E+03  0.12356440043E+03  0.00000000000E+00 0.  1.
         14    1    4    4    0    0 -0.49473905678E+02  0.60694684790E+01 -0.14413447194E+03  0.15250984163E+03  0.00000000000E+00 0. -1.
         -5    1    5    5    0  502 -0.81037037855E+02  0.56056918537E+01 -0.10435098329E+02  0.82032960221E+02  0.47000000000E+01 0.  1.
         13    1    6    6    0    0  0.16008612376E-01  0.14968456173E+02 -0.37738610292E+02  0.40598739429E+02  0.00000000000E+00 0. -1.
        -14    1    6    6    0    0  0.27076470887E+02  0.30087251677E+02  0.50987670014E+02  0.65100848555E+02  0.00000000000E+00 0.  1.
</event>
<event>
12    1  0.8416569E-002  0.2469148E+03  0.7818608E-02  0.1115542E+00
         21   -1    0    0  501  502  0.00000000000E+00  0.00000000000E+00  0.25663966672E+04  0.25663966672E+04  0.00000000000E+00 0.  1.
         21   -1    0    0  502  503 -0.00000000000E+00 -0.00000000000E+00 -0.13667423155E+03  0.13667423155E+03  0.00000000000E+00 0.  1.
         -6    2    1    2    0  503  0.17698037308E+03  0.10216053378E+02 -0.13774888447E+02  0.24729873503E+03  0.17187349008E+03 0.  0.
        -24    2    3    3    0    0  0.19104826051E+02 -0.16151059133E+02  0.12425472446E+02  0.85038259607E+02  0.80319749389E+02 0.  0.
          6    2    1    2  501    0 -0.17698037308E+03 -0.10216053378E+02  0.24434973241E+04  0.24557721637E+04  0.16944417098E+03 0.  0.
         24    2    5    5    0    0 -0.14169624904E+03 -0.54041327576E+02  0.13557285410E+04  0.13665391126E+04  0.80193375433E+02 0.  0.
          5    1    5    5  501    0 -0.35284124044E+02  0.43825274198E+02  0.10877687831E+04  0.10892330511E+04  0.47000000000E+01 0. -1.
        -11    1    6    6    0    0 -0.16647925525E+02  0.15512705383E+01  0.47033678362E+03  0.47063388094E+03  0.00000000000E+00 0.  1.
         12    1    6    6    0    0 -0.12504832352E+03 -0.55592598114E+02  0.88539175735E+03  0.89590523168E+03  0.00000000000E+00 0. -1.
         -5    1    3    3    0  503  0.15787554703E+03  0.26367112511E+02 -0.26200360892E+02  0.16226047542E+03  0.47000000000E+01 0.  1.
         11    1    4    4    0    0  0.33052934055E+02  0.23457099815E+02 -0.21517554934E+01  0.40587707906E+02  0.00000000000E+00 0. -1.
        -12    1    4    4    0    0 -0.13948108003E+02 -0.39608158948E+02  0.14577227939E+02  0.44450551701E+02  0.00000000000E+00 0.  1.
</event>
<event>
12    1  0.8416569E-002  0.1822843E+03  0.7818608E-02  0.1166307E+00
         21   -1    0    0  503  502  0.00000000000E+00  0.00000000000E+00  0.73641759635E+03  0.73641759635E+03  0.00000000000E+00 0. -1.
         21   -1    0    0  501  503 -0.00000000000E+00 -0.00000000000E+00 -0.63621585393E+02  0.63621585393E+02  0.00000000000E+00 0. -1.
          6    2    1    2  501    0  0.89783703187E+01 -0.56558028853E+02  0.11844085849E+03  0.21738403072E+03  0.17305536134E+03 0.  0.
         24    2    3    3    0    0  0.37759298901E+01  0.11084503614E+02  0.12569015491E+03  0.14899382759E+03  0.79145573177E+02 0.  0.
         -6    2    1    2    0  502 -0.89783703187E+01  0.56558028853E+02  0.55435515247E+03  0.58265515103E+03  0.16999402398E+03 0.  0.
        -24    2    5    5    0    0 -0.55148207492E+02  0.71158375207E+02  0.31273388702E+03  0.33618456476E+03  0.84337051999E+02 0.  0.
          5    1    3    3  501    0  0.52024404286E+01 -0.67642532467E+02 -0.72492964160E+01  0.68390203126E+02  0.47000000000E+01 0. -1.
        -11    1    4    4    0    0 -0.17421550785E+02 -0.17145380312E+02  0.10556483960E+03  0.10835778633E+03  0.00000000000E+00 0.  1.
         12    1    4    4    0    0  0.21197480676E+02  0.28229883927E+02  0.20125315304E+02  0.40636041264E+02  0.00000000000E+00 0. -1.
         -5    1    5    5    0  502  0.46169837173E+02 -0.14600346354E+02  0.24162126545E+03  0.24647058627E+03  0.47000000000E+01 0.  1.
         13    1    6    6    0    0 -0.37159984224E+02 -0.10450230988E+02  0.12161307307E+03  0.12759236378E+03  0.00000000000E+00 0. -1.
        -14    1    6    6    0    0 -0.17988223268E+02  0.81608606195E+02  0.19112081395E+03  0.20859220097E+03  0.00000000000E+00 0.  1.
</event>
<event>
12    1  0.8416569E-002  0.2344640E+03  0.7818608E-02  0.1123986E+00
         21   -1    0    0  501  502  0.00000000000E+00  0.00000000000E+00  0.22003262652E+03  0.22003262652E+03  0.00000000000E+00 0.  1.
         21   -1    0    0  502  503 -0.00000000000E+00 -0.00000000000E+00 -0.26461004854E+03  0.26461004854E+03  0.00000000000E+00 0. -1.
         -6    2    1    2    0  503  0.34176639819E+02  0.15359096234E+03 -0.84552640198E+02  0.24679530169E+03  0.17029546545E+03 0.  0.
        -24    2    3    3    0    0  0.68361346007E+02  0.14368544090E+03 -0.27743796018E+02  0.17959375209E+03  0.78520175870E+02 0.  0.
          6    2    1    2  501    0 -0.34176639819E+02 -0.15359096234E+03  0.39975218176E+02  0.23784737337E+03  0.17382499397E+03 0.  0.
         24    2    5    5    0    0  0.38285010178E+02 -0.11655137683E+03 -0.17283454377E+01  0.14628374067E+03  0.79661660551E+02 0.  0.
          5    1    5    5  501    0 -0.72461649997E+02 -0.37039585509E+02  0.41703563613E+02  0.91563632699E+02  0.47000000000E+01 0. -1.
        -11    1    6    6    0    0  0.37176930591E+02 -0.64570176923E+02  0.35305804346E+02  0.82449570869E+02  0.00000000000E+00 0.  1.
         12    1    6    6    0    0  0.11080795867E+01 -0.51981199909E+02 -0.37034149784E+02  0.63834169804E+02  0.00000000000E+00 0. -1.
         -5    1    3    3    0  503 -0.34184706188E+02  0.99055214454E+01 -0.56808844180E+02  0.67201549605E+02  0.47000000000E+01 0.  1.
         13    1    4    4    0    0  0.58489597841E+02  0.39869426463E+02  0.30703761103E+01  0.70852180147E+02  0.00000000000E+00 0. -1.
        -14    1    4    4    0    0  0.98717481661E+01  0.10381601443E+03 -0.30814172129E+02  0.10874157194E+03  0.00000000000E+00 0.  1.
</event>
<event>
12    1  0.8416569E-002  0.1965505E+03  0.7818608E-02  0.1152760E+00
         21   -1    0    0  501  502  0.00000000000E+00  0.00000000000E+00  0.39937388994E+03  0.39937388994E+03  0.00000000000E+00 0.  1.
         21   -1    0    0  502  503 -0.00000000000E+00 -0.00000000000E+00 -0.23589882566E+03  0.23589882566E+03  0.00000000000E+00 0. -1.
         -6    2    1    2    0  503 -0.90099673139E+02 -0.31768758721E+02 -0.16235570674E+03  0.25493425925E+03  0.17176989230E+03 0.  0.
        -24    2    3    3    0    0 -0.96966097544E+02 -0.18207685618E+02 -0.27130652053E+02  0.11877642473E+03  0.60314367293E+02 0.  0.
          6    2    1    2  501    0  0.90099673139E+02  0.31768758721E+02  0.32583077102E+03  0.38033845635E+03  0.17136056988E+03 0.  0.
         24    2    5    5    0    0  0.74158935937E+02 -0.34641168032E+02  0.27138848868E+03  0.29287167649E+03  0.73637957595E+02 0.  0.
          5    1    5    5  501    0  0.15940737202E+02  0.66409926753E+02  0.54442282339E+02  0.87466779866E+02  0.47000000000E+01 0. -1.
        -11    1    6    6    0    0 -0.12669654227E+02 -0.15288040658E+02  0.34150891129E+02  0.39503514910E+02  0.00000000000E+00 0.  1.
         12    1    6    6    0    0  0.86828590164E+02 -0.19353127374E+02  0.23723759755E+03  0.25336816158E+03  0.00000000000E+00 0. -1.
         -5    1    3    3    0  503  0.68664244047E+01 -0.13561073103E+02 -0.13522505469E+03  0.13615783453E+03  0.47000000000E+01 0.  1.
         13    1    4    4    0    0 -0.37665983128E+02 -0.29900176037E+01 -0.41258606060E+02  0.55945858330E+02  0.00000000000E+00 0. -1.
        -14    1    4    4    0    0 -0.59300114416E+02 -0.15217668014E+02  0.14127954007E+02  0.62830566398E+02  0.00000000000E+00 0.  1.
</event>
<event>
12    1  0.8416569E-002  0.2132395E+03  0.7818608E-02  0.1139068E+00
         21   -1    0    0  503  502  0.00000000000E+00  0.00000000000E+00  0.12461446001E+03  0.12461446001E+03  0.00000000000E+00 0.  1.
         21   -1    0    0  501  503 -0.00000000000E+00 -0.00000000000E+00 -0.11539813581E+04  0.11539813581E+04  0.00000000000E+00 0.  1.
          6    2    1    2  501    0  0.10566288908E+03 -0.69601340211E+02 -0.10433725934E+04  0.10648969076E+04  0.17137696005E+03 0.  0.
         24    2    3    3    0    0  0.75053315024E+02  0.80684330747E+01 -0.79360643264E+03  0.80150601030E+03  0.83081977138E+02 0.  0.
         -6    2    1    2    0  502 -0.10566288908E+03  0.69601340211E+02  0.14005695278E+02  0.21369891056E+03  0.17164519273E+03 0.  0.
        -24    2    5    5    0    0 -0.44610845322E+01  0.76526104774E+02  0.11860901100E+02  0.11212899498E+03  0.80969652054E+02 0.  0.
          5    1    3    3  501    0  0.30609574058E+02 -0.77669773286E+02 -0.24976616074E+03  0.26339089725E+03  0.47000000000E+01 0. -1.
        -13    1    4    4    0    0  0.58137939150E+02 -0.18476054155E+02 -0.70194539329E+03  0.70459117203E+03  0.00000000000E+00 0.  1.
         14    1    4    4    0    0  0.16915375874E+02  0.26544487230E+02 -0.91661039345E+02  0.96914838271E+02  0.00000000000E+00 0. -1.
         -5    1    5    5    0  502 -0.10120180455E+03 -0.69247645626E+01  0.21447941780E+01  0.10156991558E+03  0.47000000000E+01 0.  1.
         13    1    6    6    0    0  0.10153743464E+02 -0.11716827185E+02  0.16400354497E+02  0.22568876206E+02  0.00000000000E+00 0. -1.
        -14    1    6    6    0    0 -0.14614827996E+02  0.88242931958E+02 -0.45394533961E+01  0.89560118776E+02  0.00000000000E+00 0.  1.
</event>
<event>
12    1  0.8416569E-002  0.1919118E+03  0.7818608E-02  0.1157162E+00
         21   -1    0    0  503  502  0.00000000000E+00  0.00000000000E+00  0.65396388533E+03  0.65396388533E+03  0.00000000000E+00 0.  1.
         21   -1    0    0  501  503 -0.00000000000E+00 -0.00000000000E+00 -0.75033129914E+02  0.75033129914E+02  0.00000000000E+00 0.  1.
          6    2    1    2  501    0 -0.67499593532E+02 -0.53077586066E+02  0.10377171247E+03  0.21654578928E+03  0.16955850104E+03 0.  0.
         24    2    3    3    0    0 -0.85524577451E+02 -0.81554398643E+02  0.41150637639E+02  0.14527645567E+03  0.73799053568E+02 0.  0.
         -6    2    1    2    0  502  0.67499593532E+02  0.53077586066E+02  0.47515904295E+03  0.51245122597E+03  0.17162959428E+03 0.  0.
        -24    2    5    5    0    0  0.95075066448E+01  0.76004645099E+02  0.19019939110E+03  0.22071020150E+03  0.81670593920E+02 0.  0.
          5    1    3    3  501    0  0.18024983919E+02  0.28476812578E+02  0.62621074830E+02  0.71269333607E+02  0.47000000000E+01 0. -1.
        -11    1    4    4    0    0 -0.68715989064E+02 -0.14745343016E+02  0.24207609119E+02  0.74332500516E+02  0.00000000000E+00 0.  1.
         12    1    4    4    0    0 -0.16808588387E+02 -0.66809055627E+02  0.16943028519E+02  0.70943955153E+02  0.00000000000E+00 0. -1.
         -5    1    5    5    0  502  0.57992086888E+02 -0.22927059033E+02  0.28495965185E+03  0.29174102447E+03  0.47000000000E+01 0.  1.
         13    1    6    6    0    0  0.19860990637E+02  0.97237648503E+00  0.48296219896E+01  0.20462886250E+02  0.00000000000E+00 0. -1.
        -14    1    6    6    0    0 -0.10353483992E+02  0.75032268614E+02  0.18536976911E+03  0.20024731525E+03  0.00000000000E+00 0.  1.
</event>
<event>
12    1  0.8416569E-002  0.1794243E+03  0.7818608E-02  0.1168557E+00
         21   -1    0    0  503  502  0.00000000000E+00  0.00000000000E+00  0.39822111671E+03  0.39822111671E+03  0.00000000000E+00 0.  1.
         21   -1    0    0  501  503 -0.00000000000E+00 -0.00000000000E+00 -0.10177557217E+03  0.10177557217E+03  0.00000000000E+00 0.  1.
          6    2    1    2  501    0  0.34258493676E+02  0.36235530963E+02  0.34131586833E+02  0.18264187054E+03  0.17235553244E+03 0.  0.
         24    2    3    3    0    0  0.84659721065E+02  0.40892952770E+02  0.45761363527E+02  0.13049479962E+03  0.78072327863E+02 0.  0.
         -6    2    1    2    0  502 -0.34258493676E+02 -0.36235530963E+02  0.26231395771E+03  0.31735481834E+03  0.17151912494E+03 0.  0.
        -24    2    5    5    0    0  0.27063904724E+02 -0.35683235799E+02  0.69286555282E+02  0.11476555489E+03  0.79779430876E+02 0.  0.
          5    1    3    3  501    0 -0.50401227389E+02 -0.46574218063E+01 -0.11629776694E+02  0.52147070926E+02  0.47000000000E+01 0. -1.
        -13    1    4    4    0    0  0.88638773790E+02  0.90728061623E+01  0.25962704695E+02  0.92807381526E+02  0.00000000000E+00 0.  1.
         14    1    4    4    0    0 -0.39790527251E+01  0.31820146607E+02  0.19798658832E+02  0.37687418090E+02  0.00000000000E+00 0. -1.
         -5    1    5    5    0  502 -0.61322398400E+02 -0.55229516410E+00  0.19302740243E+03  0.20258926345E+03  0.47000000000E+01 0.  1.
         13    1    6    6    0    0  0.55249421794E+02 -0.19804881716E+02  0.50001949452E+02  0.77103352050E+02  0.00000000000E+00 0. -1.
        -14    1    6    6    0    0 -0.28185517070E+02 -0.15878354084E+02  0.19284605830E+02  0.37662202842E+02  0.00000000000E+00 0.  1.
</event>
<event>
12    1  0.8416569E-002  0.2331931E+03  0.7818608E-02  0.1124554E+00
         21   -1    0    0  503  502  0.00000000000E+00  0.00000000000E+00  0.90180064273E+03  0.90180064273E+03  0.00000000000E+00 0.  1.
         21   -1    0    0  501  503 -0.00000000000E+00 -0.00000000000E+00 -0.65049419701E+02  0.65049419701E+02  0.00000000000E+00 0.  1.
          6    2    1    2  501    0  0.71510363779E+02  0.13976523869E+03  0.55118583306E+03  0.59816777801E+03  0.17132079270E+03 0.  0.
         24    2    3    3    0    0  0.98710142721E+02  0.15405102133E+03  0.49844987044E+03  0.53695435371E+03  0.79951830402E+02 0.  0.
         -6    2    1    2    0  502 -0.71510363779E+02 -0.13976523869E+03  0.28556538997E+03  0.36868228442E+03  0.17242674046E+03 0.  0.
        -24    2    5    5    0    0 -0.88158671695E+02 -0.16481591518E+03  0.25091272113E+03  0.32255636972E+03  0.78416712057E+02 0.  0.
          5    1    3    3  501    0 -0.27199778942E+02 -0.14285782644E+02  0.52735962625E+02  0.61213424298E+02  0.47000000000E+01 0. -1.
        -11    1    4    4    0    0  0.48823953156E+02  0.47280477107E+02  0.96132097678E+02  0.11773105844E+03  0.00000000000E+00 0.  1.
         12    1    4    4    0    0  0.49886189565E+02  0.10677054422E+03  0.40231777276E+03  0.41922329528E+03  0.00000000000E+00 0. -1.
         -5    1    5    5    0  502  0.16648307915E+02  0.25050676497E+02  0.34652668841E+02  0.46125914703E+02  0.47000000000E+01 0.  1.
         13    1    6    6    0    0 -0.35613849691E+02 -0.21501024324E+02  0.98145330068E+02  0.10659805885E+03  0.00000000000E+00 0. -1.
        -14    1    6    6    0    0 -0.52544822003E+02 -0.14331489086E+03  0.15276739106E+03  0.21595831087E+03  0.00000000000E+00 0.  1.
</event>
<event>
12    1  0.8416569E-002  0.1740454E+03  0.7818608E-02  0.1173794E+00
         21   -1    0    0  503  502  0.00000000000E+00  0.00000000000E+00  0.28225092654E+03  0.28225092654E+03  0.00000000000E+00 0.  1.
         21   -1    0    0  501  503 -0.00000000000E+00 -0.00000000000E+00 -0.16602075409E+03  0.16602075409E+03  0.00000000000E+00 0.  1.
          6    2    1    2  501    0 -0.14960081356E+02 -0.23419906699E+02  0.19170714639E+03  0.25892743293E+03  0.17181236708E+03 0.  0.
         24    2    3    3    0    0  0.19657015666E+02  0.31587360206E+02  0.16845531847E+03  0.18974014855E+03  0.78993481129E+02 0.  0.
         -6    2    1    2    0  502  0.14960081356E+02  0.23419906699E+02 -0.75476973945E+02  0.18934424770E+03  0.17141229384E+03 0.  0.
        -24    2    5    5    0    0  0.45516014272E+01  0.77584612127E+02 -0.85770006234E+02  0.13303982264E+03  0.65597342350E+02 0.  0.
          5    1    3    3  501    0 -0.34617097022E+02 -0.55007266905E+02  0.23251827922E+02  0.69187284383E+02  0.47000000000E+01 0. -1.
        -11    1    4    4    0    0 -0.54895987200E+01 -0.14817499592E+02  0.10940292543E+03  0.11053820191E+03  0.00000000000E+00 0.  1.
         12    1    4    4    0    0  0.25146614386E+02  0.46404859798E+02  0.59052393036E+02  0.79201946638E+02  0.00000000000E+00 0. -1.
         -5    1    5    5    0  502  0.10408479929E+02 -0.54164705428E+02  0.10293032289E+02  0.56304425068E+02  0.47000000000E+01 0.  1.
         11    1    6    6    0    0 -0.17467255447E+02  0.28511252490E+02 -0.20096979418E+01  0.33496797118E+02  0.00000000000E+00 0. -1.
        -12    1    6    6    0    0  0.22018856874E+02  0.49073359637E+02 -0.83760308292E+02  0.99543025518E+02  0.00000000000E+00 0.  1.
</event>
<event>
12    1  0.8416569E-002  0.2167925E+03  0.7818608E-02  0.1136408E+00
         21   -1    0    0  503  502  0.00000000000E+00  0.00000000000E+00  0.13505959074E+04  0.13505959074E+04  0.00000000000E+00 0.  1.
         21   -1    0    0  501  503 -0.00000000000E+00 -0.00000000000E+00 -0.38372427316E+03  0.38372427316E+03  0.00000000000E+00 0. -1.
          6    2    1    2  501    0 -0.80215553225E+02 -0.10323465029E+03 -0.34363973709E+03  0.40599828952E+03  0.17220457074E+03 0.  0.
         24    2    3    3    0    0 -0.83914889004E+01 -0.27754813798E+01 -0.20619191447E+03  0.22116124026E+03  0.79492567070E+02 0.  0.
         -6    2    1    2    0  502  0.80215553225E+02  0.10323465029E+03  0.13105113713E+04  0.13283218910E+04  0.17293658909E+03 0.  0.
        -24    2    5    5    0    0  0.53438388149E+02  0.90570119385E+02  0.49832013089E+03  0.51557709225E+03  0.80238253691E+02 0.  0.
          5    1    3    3  501    0 -0.71824064325E+02 -0.10045916891E+03 -0.13744782262E+03  0.18483704925E+03  0.47000000000E+01 0. -1.
        -11    1    4    4    0    0 -0.16608533205E+01 -0.18933272344E+02 -0.20235045176E+03  0.20324107007E+03  0.00000000000E+00 0.  1.
         12    1    4    4    0    0 -0.67306355800E+01  0.16157790964E+02 -0.38414627131E+01  0.17920170198E+02  0.00000000000E+00 0. -1.
         -5    1    5    5    0  502  0.26777165077E+02  0.12664530902E+02  0.81219124043E+03  0.81274479878E+03  0.47000000000E+01 0.  1.
         13    1    6    6    0    0 -0.11896060176E+02  0.57452379466E+02  0.20299878684E+03  0.21130735816E+03  0.00000000000E+00 0. -1.
        -14    1    6    6    0    0  0.65334448325E+02  0.33117739919E+02  0.29532134405E+03  0.30426973409E+03  0.00000000000E+00 0.  1.
</event>
<event>
12    1  0.8416569E-002  0.2004322E+03  0.7818608E-02  0.1149708E+00
         21   -1    0    0  501  502  0.00000000000E+00  0.00000000000E+00  0.12663969690E+04  0.12663969690E+04  0.00000000000E+00 0. -1.
         21   -1    0    0  502  503 -0.00000000000E+00 -0.00000000000E+00 -0.31473885666E+02  0.31473885666E+02  0.00000000000E+00 0. -1.
         -6    2    1    2    0  503 -0.22328854254E+02 -0.10011001110E+03  0.62249158913E+03  0.65396394592E+03  0.17219893137E+03 0.  0.
        -24    2    3    3    0    0 -0.39920041358E+02 -0.71180184816E+02  0.60452849475E+03  0.61534856721E+03  0.80863649411E+02 0.  0.
          6    2    1    2  501    0  0.22328854254E+02  0.10011001110E+03  0.61243149417E+03  0.64390690872E+03  0.17036190885E+03 0.  0.
         24    2    5    5    0    0 -0.32064284532E+02  0.14395226283E+02  0.18884963781E+03  0.20830466248E+03  0.80568640487E+02 0.  0.
          5    1    5    5  501    0  0.54393138786E+02  0.85714784820E+02  0.42358185637E+03  0.43560224624E+03  0.47000000000E+01 0. -1.
        -11    1    6    6    0    0  0.12682578032E+02 -0.20669236543E+02  0.99426045069E+02  0.10234062518E+03  0.00000000000E+00 0.  1.
         12    1    6    6    0    0 -0.44746862564E+02  0.35064462827E+02  0.89423592737E+02  0.10596403730E+03  0.00000000000E+00 0. -1.
         -5    1    3    3    0  503  0.17591187104E+02 -0.28929826288E+02  0.17963094385E+02  0.38615378707E+02  0.47000000000E+01 0.  1.
         13    1    4    4    0    0 -0.53837663466E+02 -0.78404252103E+02  0.44494124330E+03  0.45499278098E+03  0.00000000000E+00 0. -1.
        -14    1    4    4    0    0  0.13917622108E+02  0.72240672874E+01  0.15958725145E+03  0.16035578623E+03  0.00000000000E+00 0.  1.
</event>
<event>
12    1  0.8416569E-002  0.2336632E+03  0.7818608E-02  0.1124635E+00
         21   -1    0    0  503  502  0.00000000000E+00  0.00000000000E+00  0.81180199673E+02  0.81180199673E+02  0.00000000000E+00 0.  1.
         21   -1    0    0  501  503 -0.00000000000E+00 -0.00000000000E+00 -0.67265445961E+03  0.67265445961E+03  0.00000000000E+00 0.  1.
          6    2    1    2  501    0 -0.38904635218E+02  0.15496616874E+03 -0.34166542915E+03  0.41392483480E+03  0.17050049645E+03 0.  0.
         24    2    3    3    0    0 -0.91601665042E+02  0.99213717409E+02 -0.23755551896E+03  0.28451743090E+03  0.79267377526E+02 0.  0.
         -6    2    1    2    0  502  0.38904635218E+02 -0.15496616874E+03 -0.24980883079E+03  0.33990982449E+03  0.16615099382E+03 0.  0.
        -24    2    5    5    0    0  0.97504454948E+01 -0.15778547471E+03 -0.13835559406E+03  0.22457626804E+03  0.79378224614E+02 0.  0.
          5    1    3    3  501    0  0.52697029825E+02  0.55752451335E+02 -0.10410991019E+03  0.12940740389E+03  0.47000000000E+01 0. -1.
        -13    1    4    4    0    0 -0.30976306980E+02  0.72106858613E+02 -0.18102962450E+03  0.19730852896E+03  0.00000000000E+00 0.  1.
         14    1    4    4    0    0 -0.60625358063E+02  0.27106858797E+02 -0.56525894455E+02  0.87208901943E+02  0.00000000000E+00 0. -1.
         -5    1    5    5    0  502  0.29154189723E+02  0.28193059703E+01 -0.11145323673E+03  0.11533355644E+03  0.47000000000E+01 0.  1.
         11    1    6    6    0    0 -0.97043452791E+01  0.21466059011E+01  0.28540554214E+01  0.10340593143E+02  0.00000000000E+00 0. -1.
        -12    1    6    6    0    0  0.19454790774E+02 -0.15993208062E+03 -0.14120964948E+03  0.21423567490E+03  0.00000000000E+00 0.  1.
</event>
<event>
12    1  0.8416569E-002  0.2621791E+03  0.7818608E-02  0.1105953E+00
         21   -1    0    0  501  502  0.00000000000E+00  0.00000000000E+00  0.73399870328E+02  0.73399870328E+02  0.00000000000E+00 0.  1.
         21   -1    0    0  502  503 -0.00000000000E+00 -0.00000000000E+00 -0.11047689126E+04  0.11047689126E+04  0.00000000000E+00 0.  1.
         -6    2    1    2    0  503 -0.55911587627E+02  0.19051493369E+03 -0.74679483324E+03  0.79123164427E+03  0.17006747587E+03 0.  0.
        -24    2    3    3    0    0 -0.91236014432E+02  0.17371172787E+03 -0.52741067525E+03  0.56833780939E+03  0.79662227400E+02 0.  0.
          6    2    1    2  501    0  0.55911587627E+02 -0.19051493369E+03 -0.28457420906E+03  0.38693713868E+03  0.17121864163E+03 0.  0.
         24    2    5    5    0    0  0.56290748461E+01 -0.14837692469E+03 -0.27193584062E+03  0.31996131281E+03  0.79867027100E+02 0.  0.
          5    1    5    5  501    0  0.50282512781E+02 -0.42138009005E+02 -0.12638368436E+02  0.66975825871E+02  0.47000000000E+01 0. -1.
        -13    1    6    6    0    0 -0.14064640027E+02 -0.10183525610E+03 -0.23753705886E+03  0.25882829794E+03  0.00000000000E+00 0.  1.
         14    1    6    6    0    0  0.19693714873E+02 -0.46541668589E+02 -0.34398781768E+02  0.61133014875E+02  0.00000000000E+00 0. -1.
         -5    1    3    3    0  503  0.35324426805E+02  0.16803205820E+02 -0.21938415799E+03  0.22289383489E+03  0.47000000000E+01 0.  1.
         11    1    4    4    0    0 -0.32683888811E+02  0.23682264772E+02 -0.48639476294E+02  0.63205101904E+02  0.00000000000E+00 0. -1.
        -12    1    4    4    0    0 -0.58552125621E+02  0.15002946310E+03 -0.47877119896E+03  0.50513270748E+03  0.00000000000E+00 0.  1.
</event>
<event>
12    1  0.8416569E-002  0.1751498E+03  0.7818608E-02  0.1172746E+00
         21   -1    0    0  501  502  0.00000000000E+00  0.00000000000E+00  0.69383682049E+03  0.69383682049E+03  0.00000000000E+00 0. -1.
         21   -1    0    0  502  503 -0.00000000000E+00 -0.00000000000E+00 -0.46839132373E+02  0.46839132373E+02  0.00000000000E+00 0. -1.
         -6    2    1    2    0  503 -0.14685517611E+02 -0.16430039143E+02  0.23367969292E+03  0.29203364542E+03  0.17375799423E+03 0.  0.
        -24    2    3    3    0    0 -0.68559223781E+02 -0.24390091260E+02  0.10162724798E+03  0.14911521812E+03  0.81314248606E+02 0.  0.
          6    2    1    2  501    0  0.14685517611E+02  0.16430039143E+02  0.41331799519E+03  0.44864230744E+03  0.17309692159E+03 0.  0.
         24    2    5    5    0    0  0.75372309381E+02  0.25099211395E+02  0.25787839945E+03  0.28148489909E+03  0.80134412570E+02 0.  0.
          5    1    5    5  501    0 -0.60686791770E+02 -0.86691722520E+01  0.15543959574E+03  0.16715740835E+03  0.47000000000E+01 0. -1.
        -11    1    6    6    0    0  0.29424976911E+02  0.25775357493E+02  0.30756634653E+02  0.49761118308E+02  0.00000000000E+00 0.  1.
         12    1    6    6    0    0  0.45947332470E+02 -0.67614609811E+00  0.22712176480E+03  0.23172378079E+03  0.00000000000E+00 0. -1.
         -5    1    3    3    0  503  0.53873706170E+02  0.79600521174E+01  0.13205244494E+03  0.14291842730E+03  0.47000000000E+01 0.  1.
         11    1    4    4    0    0 -0.44317887409E+02  0.27282673587E+02  0.48084398937E+02  0.70855690269E+02  0.00000000000E+00 0. -1.
        -12    1    4    4    0    0 -0.24241336372E+02 -0.51672764847E+02  0.53542849046E+02  0.78259527854E+02  0.00000000000E+00 0.  1.
</event>
<event>
12    1  0.8416569E-002  0.1906438E+03  0.7818608E-02  0.1157942E+00
         21   -1    0    0  501  502  0.00000000000E+00  0.00000000000E+00  0.90627755099E+02  0.90627755099E+02  0.00000000000E+00 0.  1.
         21   -1    0    0  502  503 -0.00000000000E+00 -0.00000000000E+00 -0.81373181333E+03  0.81373181333E+03  0.00000000000E+00 0.  1.
         -6    2    1    2    0  503  0.38082233575E+02 -0.72951415568E+02 -0.68391668275E+03  0.70999089476E+03  0.17196766018E+03 0.  0.
        -24    2    3    3    0    0  0.69999277847E+02 -0.32694746543E+02 -0.60893913600E+03  0.61897979855E+03  0.79751327958E+02 0.  0.
          6    2    1    2  501    0 -0.38082233575E+02  0.72951415568E+02 -0.39187375480E+02  0.19436867367E+03  0.17167226147E+03 0.  0.
         24    2    5    5    0    0 -0.90955011374E+02  0.60982460388E+02 -0.30150711488E+02  0.13920946939E+03  0.80489355798E+02 0.  0.
          5    1    5    5  501    0  0.52872777799E+02  0.11968955180E+02 -0.90366639922E+01  0.55159204276E+02  0.47000000000E+01 0. -1.
        -11    1    6    6    0    0 -0.98726439204E+02  0.52154867536E+02 -0.44899648337E+02  0.12034541298E+03  0.00000000000E+00 0.  1.
         12    1    6    6    0    0  0.77714278294E+01  0.88275928512E+01  0.14748936849E+02  0.18864056410E+02  0.00000000000E+00 0. -1.
         -5    1    3    3    0  503 -0.31917044272E+02 -0.40256669025E+02 -0.74977546751E+02  0.91011096207E+02  0.47000000000E+01 0.  1.
         13    1    4    4    0    0  0.57391836499E+02  0.73162436688E+01 -0.20944435909E+03  0.21728849457E+03  0.00000000000E+00 0. -1.
        -14    1    4    4    0    0  0.12607441348E+02 -0.40010990211E+02 -0.39949477691E+03  0.40169130398E+03  0.00000000000E+00 0.  1.
</event>
<event>
12    1  0.8416569E-002  0.1735822E+03  0.7818608E-02  0.1174312E+00
         21   -1    0    0  503  502  0.00000000000E+00  0.00000000000E+00  0.45244353166E+02  0.45244353166E+02  0.00000000000E+00 0.  1.
         21   -1    0    0  501  503 -0.00000000000E+00 -0.00000000000E+00 -0.83134789780E+03  0.83134789780E+03  0.00000000000E+00 0.  1.
          6    2    1    2  501    0 -0.52380571258E+01 -0.56783259304E+01 -0.59040452250E+03  0.61539277449E+03  0.17341016717E+03 0.  0.
         24    2    3    3    0    0 -0.36263576037E+01 -0.16804847562E+02 -0.59649321192E+03  0.60177076298E+03  0.77642423535E+02 0.  0.
         -6    2    1    2    0  502  0.52380571258E+01  0.56783259304E+01 -0.19569902213E+03  0.26119947647E+03  0.17282181175E+03 0.  0.
        -24    2    5    5    0    0 -0.11817246339E+02 -0.38550791794E+02 -0.19349741601E+03  0.21351263027E+03  0.80750123357E+02 0.  0.
          5    1    3    3  501    0 -0.16116995222E+01  0.11126521632E+02  0.60886894184E+01  0.13622011518E+02  0.47000000000E+01 0. -1.
        -13    1    4    4    0    0  0.60762992156E+01 -0.38226625110E+02 -0.15890892219E+03  0.16355501164E+03  0.00000000000E+00 0.  1.
         14    1    4    4    0    0 -0.97026568193E+01  0.21421777548E+02 -0.43758428973E+03  0.43821575134E+03  0.00000000000E+00 0. -1.
         -5    1    5    5    0  502  0.17055303465E+02  0.44229117725E+02 -0.22016061149E+01  0.47686846200E+02  0.47000000000E+01 0.  1.
         11    1    6    6    0    0  0.22283040348E+02 -0.24663750126E+02 -0.26515354080E+02  0.42519389217E+02  0.00000000000E+00 0. -1.
        -12    1    6    6    0    0 -0.34100286687E+02 -0.13887041669E+02 -0.16698206193E+03  0.17099324105E+03  0.00000000000E+00 0.  1.
</event>
<event>
12    1  0.8416569E-002  0.1979418E+03  0.7818608E-02  0.1151579E+00
         21   -1    0    0  501  502  0.00000000000E+00  0.00000000000E+00  0.46176017030E+02  0.46176017030E+02  0.00000000000E+00 0. -1.
         21   -1    0    0  502  503 -0.00000000000E+00 -0.00000000000E+00 -0.13079642112E+04  0.13079642112E+04  0.00000000000E+00 0. -1.
         -6    2    1    2    0  503 -0.50748651190E+02 -0.83979937972E+02 -0.10334212148E+04  0.10522073735E+04  0.17190955248E+03 0.  0.
        -24    2    3    3    0    0 -0.76532491633E+02 -0.77321300222E+02 -0.48506533897E+03  0.50318515140E+03  0.77917313732E+02 0.  0.
          6    2    1    2  501    0  0.50748651190E+02  0.83979937972E+02 -0.22836697941E+03  0.30193285470E+03  0.17141737333E+03 0.  0.
         24    2    5    5    0    0  0.45830806141E+01 -0.20777505917E+02 -0.10263888453E+03  0.13182986883E+03  0.79947885017E+02 0.  0.
          5    1    5    5  501    0  0.46165570576E+02  0.10475744389E+03 -0.12572809488E+03  0.17010298586E+03  0.47000000000E+01 0. -1.
        -11    1    6    6    0    0  0.50370009153E+01  0.15435148304E+02 -0.92927034494E+02  0.94334770479E+02  0.00000000000E+00 0.  1.
         12    1    6    6    0    0 -0.45392030111E+00 -0.36212654221E+02 -0.97118500342E+01  0.37495098352E+02  0.00000000000E+00 0. -1.
         -5    1    3    3    0  503  0.25783840443E+02 -0.66586377497E+01 -0.54835587579E+03  0.54902222214E+03  0.47000000000E+01 0.  1.
         11    1    4    4    0    0 -0.53117212958E+02 -0.89765860733E+02 -0.42343521134E+03  0.43609256617E+03  0.00000000000E+00 0. -1.
        -12    1    4    4    0    0 -0.23415278675E+02  0.12444560511E+02 -0.61630127630E+02  0.67092585234E+02  0.00000000000E+00 0.  1.
</event>
<event>
12    1  0.8416569E-002  0.1925009E+03  0.7818608E-02  0.1156298E+00
         21   -1    0    0  501  502  0.00000000000E+00  0.00000000000E+00  0.50688333273E+02  0.50688333273E+02  0.00000000000E+00 0. -1.
         21   -1    0    0  502  503 -0.00000000000E+00 -0.00000000000E+00 -0.76836969164E+03  0.76836969164E+03  0.00000000000E+00 0. -1.
         -6    2    1    2    0  503 -0.33051127090E+02  0.81367019166E+02 -0.26739519029E+03  0.32947953915E+03  0.17129976684E+03 0.  0.
        -24    2    3    3    0    0 -0.47717735234E+02 -0.16772111004E+02 -0.58196823386E+02  0.97892741209E+02  0.60314447405E+02 0.  0.
          6    2    1    2  501    0  0.33051127090E+02 -0.81367019166E+02 -0.45028616807E+03  0.48957848576E+03  0.17092832343E+03 0.  0.
         24    2    5    5    0    0  0.64154413588E+02 -0.15722283863E+02 -0.16308268202E+03  0.19329386229E+03  0.80022353323E+02 0.  0.
          5    1    5    5  501    0 -0.31103286498E+02 -0.65644735303E+02 -0.28720348605E+03  0.29628462347E+03  0.47000000000E+01 0. -1.
        -11    1    6    6    0    0  0.20074343530E+02 -0.45916464827E+02 -0.72662478743E+02  0.88267416567E+02  0.00000000000E+00 0.  1.
         12    1    6    6    0    0  0.44080070058E+02  0.30194180964E+02 -0.90420203273E+02  0.10502644572E+03  0.00000000000E+00 0. -1.
         -5    1    3    3    0  503  0.14666608144E+02  0.98139130170E+02 -0.20919836691E+03  0.23158679794E+03  0.47000000000E+01 0.  1.
         11    1    4    4    0    0 -0.19366548403E+02 -0.36423478545E+02 -0.44765388846E+02  0.60874239419E+02  0.00000000000E+00 0. -1.
        -12    1    4    4    0    0 -0.28351186832E+02  0.19651367541E+02 -0.13431434541E+02  0.37018501790E+02  0.00000000000E+00 0.  1.
</event>
<event>
12    1  0.8416569E-002  0.1863311E+03  0.7818608E-02  0.1161834E+00
         21   -1    0    0  501  502  0.00000000000E+00  0.00000000000E+00  0.16463284800E+03  0.16463284800E+03  0.00000000000E+00 0.  1.
         21   -1    0    0  502  503 -0.00000000000E+00 -0.00000000000E+00 -0.24496031453E+03  0.24496031453E+03  0.00000000000E+00 0.  1.
         -6    2    1    2    0  503 -0.54022337016E+02 -0.46390099643E+02 -0.11666584778E+03  0.21984132166E+03  0.17218836323E+03 0.  0.
        -24    2    3    3    0    0  0.92185337539E+01  0.20005468488E+01 -0.16994570700E+01  0.79911255570E+02  0.79334337208E+02 0.  0.
          6    2    1    2  501    0  0.54022337016E+02  0.46390099643E+02  0.36338381250E+02  0.18975184088E+03  0.17208959563E+03 0.  0.
         24    2    5    5    0    0  0.29407477058E+02  0.51947636030E+02  0.87392088835E+02  0.13260861206E+03  0.79901878613E+02 0.  0.
          5    1    5    5  501    0  0.24614859958E+02 -0.55575363862E+01 -0.51053707585E+02  0.57143228817E+02  0.47000000000E+01 0. -1.
        -11    1    6    6    0    0  0.32646952424E+02  0.20976609977E+02 -0.10759194830E+01  0.38820088504E+02  0.00000000000E+00 0.  1.
         12    1    6    6    0    0 -0.32394753661E+01  0.30971026053E+02  0.88468008318E+02  0.93788523557E+02  0.00000000000E+00 0. -1.
         -5    1    3    3    0  503 -0.63240870770E+02 -0.48390646492E+02 -0.11496639071E+03  0.13993006609E+03  0.47000000000E+01 0.  1.
         11    1    4    4    0    0 -0.33559808173E+02  0.12524150016E+02 -0.16251961495E+01  0.35857444426E+02  0.00000000000E+00 0. -1.
        -12    1    4    4    0    0  0.42778341927E+02 -0.10523603167E+02 -0.74260920578E-01  0.44053811144E+02  0.00000000000E+00 0.  1.
</event>
<event>
12    1  0.8416569E-002  0.2354293E+03  0.7818608E-02  0.1122898E+00
         21   -1    0    0  501  502  0.00000000000E+00  0.00000000000E+00  0.34378855419E+02  0.34378855419E+02  0.00000000000E+00 0. -1.
         21   -1    0    0  502  503 -0.00000000000E+00 -0.00000000000E+00 -0.20564727378E+04  0.20564727378E+04  0.00000000000E+00 0.  1.
         -6    2    1    2    0  503  0.25856128486E+02 -0.15873304140E+03 -0.14972025545E+04  0.15155795915E+04  0.17175939948E+03 0.  0.
        -24    2    3    3    0    0  0.55688030653E+02 -0.78099415752E+02 -0.11861544121E+04  0.11928339319E+04  0.81791344887E+02 0.  0.
          6    2    1    2  501    0 -0.25856128486E+02  0.15873304140E+03 -0.52489132795E+03  0.57527200174E+03  0.17193676748E+03 0.  0.
         24    2    5    5    0    0  0.41818061408E+02  0.66755626183E+02 -0.34011410330E+03  0.35800637253E+03  0.79283640285E+02 0.  0.
          5    1    5    5  501    0 -0.67674189894E+02  0.91977415219E+02 -0.18477722465E+03  0.21726562921E+03  0.47000000000E+01 0. -1.
        -13    1    6    6    0    0 -0.48911911188E+01 -0.13564041345E+02 -0.90874076021E+02  0.92010894251E+02  0.00000000000E+00 0.  1.
         14    1    6    6    0    0  0.46709252527E+02  0.80319667529E+02 -0.24924002728E+03  0.26599547828E+03  0.00000000000E+00 0. -1.
         -5    1    3    3    0  503 -0.29831902167E+02 -0.80633625650E+02 -0.31104814235E+03  0.32274565966E+03  0.47000000000E+01 0.  1.
         13    1    4    4    0    0 -0.21573636609E+02 -0.14621621176E+02 -0.24264877980E+03  0.24404434831E+03  0.00000000000E+00 0. -1.
        -14    1    4    4    0    0  0.77261667262E+02 -0.63477794576E+02 -0.94350563231E+03  0.94878958354E+03  0.00000000000E+00 0.  1.
</event>
<event>
12    1  0.8416569E-002  0.4161254E+03  0.7818608E-02  0.1038572E+00
         21   -1    0    0  501  502  0.00000000000E+00  0.00000000000E+00  0.21686638697E+03  0.21686638697E+03  0.00000000000E+00 0. -1.
         21   -1    0    0  502  503 -0.00000000000E+00 -0.00000000000E+00 -0.10416502811E+04  0.10416502811E+04  0.00000000000E+00 0.  1.
         -6    2    1    2    0  503 -0.25001992037E+03 -0.28471409514E+03 -0.71876268372E+03  0.82909744415E+03  0.16495666045E+03 0.  0.
        -24    2    3    3    0    0 -0.24049533322E+03 -0.22406070712E+03 -0.51567902098E+03  0.61688383640E+03  0.81114790004E+02 0.  0.
          6    2    1    2  501    0  0.25001992037E+03  0.28471409514E+03 -0.10602121041E+03  0.42941922392E+03  0.17201248869E+03 0.  0.
         24    2    5    5    0    0  0.50038317872E+02  0.53517365126E+02 -0.42640020851E+02  0.11719521060E+03  0.80923447676E+02 0.  0.
          5    1    5    5  501    0  0.19998160250E+03  0.23119673001E+03 -0.63381189563E+02  0.31222401332E+03  0.47000000000E+01 0. -1.
        -11    1    6    6    0    0 -0.37515820092E+01  0.25197949403E+02  0.18107805818E+02  0.31255457975E+02  0.00000000000E+00 0.  1.
         12    1    6    6    0    0  0.53789899881E+02  0.28319415723E+02 -0.60747826669E+02  0.85939752624E+02  0.00000000000E+00 0. -1.
         -5    1    3    3    0  503 -0.95245871429E+01 -0.60653388020E+02 -0.20308366275E+03  0.21221360775E+03  0.47000000000E+01 0.  1.
         13    1    4    4    0    0 -0.20992015189E+02 -0.48928796272E+01 -0.74629235049E+02  0.77679647892E+02  0.00000000000E+00 0. -1.
        -14    1    4    4    0    0 -0.21950331803E+03 -0.21916782749E+03 -0.44104978593E+03  0.53920418851E+03  0.00000000000E+00 0.  1.
</event>
<event>
12    1  0.8416569E-002  0.2041419E+03  0.7818608E-02  0.1147009E+00
         21   -1    0    0  503  502  0.00000000000E+00  0.00000000000E+00  0.54660482715E+03  0.54660482715E+03  0.00000000000E+00 0. -1.
         21   -1    0    0  501  503 -0.00000000000E+00 -0.00000000000E+00 -0.75008459800E+02  0.75008459800E+02  0.00000000000E+00 0.  1.
          6    2    1    2  501    0 -0.99633815769E+02 -0.42745220642E+02  0.24622094187E+03  0.31984164146E+03  0.17297361725E+03 0.  0.
         24    2    3    3    0    0 -0.31750067474E+02  0.16472528349E+02  0.57899568874E+02  0.11103078301E+03  0.87727212003E+02 0.  0.
         -6    2    1    2    0  502  0.99633815769E+02  0.42745220642E+02  0.22537542548E+03  0.30177164549E+03  0.16887271088E+03 0.  0.
        -24    2    5    5    0    0  0.32064788530E+02 -0.18472565745E+01  0.19882925693E+03  0.21644373956E+03  0.79266991614E+02 0.  0.
          5    1    3    3  501    0 -0.67883748295E+02 -0.59217748991E+02  0.18832137299E+03  0.20881085845E+03  0.47000000000E+01 0. -1.
        -11    1    4    4    0    0  0.12749186638E+02 -0.63831084260E+00 -0.17597832757E+02  0.21740122318E+02  0.00000000000E+00 0.  1.
         12    1    4    4    0    0 -0.44499254112E+02  0.17110839192E+02  0.75497401631E+02  0.89290660695E+02  0.00000000000E+00 0. -1.
         -5    1    5    5    0  502  0.67569027239E+02  0.44592477217E+02  0.26546168543E+02  0.85327905932E+02  0.47000000000E+01 0.  1.
         11    1    6    6    0    0  0.49855719752E+02  0.65924898891E+01  0.18661388712E+03  0.19327130305E+03  0.00000000000E+00 0. -1.
        -12    1    6    6    0    0 -0.17790931222E+02 -0.84397464636E+01  0.12215369814E+02  0.23172436509E+02  0.00000000000E+00 0.  1.
</event>
<event>
12    1  0.8416569E-002  0.2376256E+03  0.7818608E-02  0.1121606E+00
         21   -1    0    0  501  502  0.00000000000E+00  0.00000000000E+00  0.23508793464E+03  0.23508793464E+03  0.00000000000E+00 0. -1.
         21   -1    0    0  502  503 -0.00000000000E+00 -0.00000000000E+00 -0.55677406411E+03  0.55677406411E+03  0.00000000000E+00 0. -1.
         -6    2    1    2    0  503 -0.16342088494E+03  0.14624598113E+02 -0.46021107764E+03  0.51793837731E+03  0.17188851679E+03 0.  0.
        -24    2    3    3    0    0 -0.11686867441E+03  0.61734112871E+02 -0.39752064899E+03  0.42662247218E+03  0.80713565409E+02 0.  0.
          6    2    1    2  501    0  0.16342088494E+03 -0.14624598113E+02  0.13852494817E+03  0.27392362144E+03  0.17007270390E+03 0.  0.
         24    2    5    5    0    0  0.38696352967E+02 -0.16067226693E+02  0.98444864033E+01  0.94649972251E+02  0.84297923035E+02 0.  0.
          5    1    5    5  501    0  0.12472453197E+03  0.14426285798E+01  0.12868046176E+03  0.17927364919E+03  0.47000000000E+01 0. -1.
        -11    1    6    6    0    0  0.22877088604E+02 -0.50711468995E+02  0.14553131694E+01  0.55651884128E+02  0.00000000000E+00 0.  1.
         12    1    6    6    0    0  0.15819264363E+02  0.34644242302E+02  0.83891732339E+01  0.38998088123E+02  0.00000000000E+00 0. -1.
         -5    1    3    3    0  503 -0.46552210531E+02 -0.47109514758E+02 -0.62690428645E+02  0.91315905131E+02  0.47000000000E+01 0.  1.
         11    1    4    4    0    0 -0.11323527519E+03  0.60968488047E+02 -0.40125223288E+03  0.42135820684E+03  0.00000000000E+00 0. -1.
        -12    1    4    4    0    0 -0.36333992157E+01  0.76562482398E+00  0.37315838856E+01  0.52642653359E+01  0.00000000000E+00 0.  1.
</event>
<event>
12    1  0.8416569E-002  0.1749414E+03  0.7818608E-02  0.1173346E+00
         21   -1    0    0  503  502  0.00000000000E+00  0.00000000000E+00  0.52089640525E+03  0.52089640525E+03  0.00000000000E+00 0. -1.
         21   -1    0    0  501  503 -0.00000000000E+00 -0.00000000000E+00 -0.14547049177E+03  0.14547049177E+03  0.00000000000E+00 0. -1.
          6    2    1    2  501    0  0.29067941880E+02 -0.13278390730E+02 -0.70146445482E+02  0.18848085483E+03  0.17199781370E+03 0.  0.
         24    2    3    3    0    0 -0.23769990017E+02  0.22306468825E+02 -0.86897921255E+02  0.12244426484E+03  0.79867129015E+02 0.  0.
         -6    2    1    2    0  502 -0.29067941880E+02  0.13278390730E+02  0.44557235896E+03  0.47788604219E+03  0.16976183714E+03 0.  0.
        -24    2    5    5    0    0 -0.74559442160E+02  0.38464510270E+02  0.36376449132E+03  0.38083742333E+03  0.75325353635E+02 0.  0.
          5    1    3    3  501    0  0.52837931897E+02 -0.35584859554E+02  0.16751475773E+02  0.66036589988E+02  0.47000000000E+01 0. -1.
        -13    1    4    4    0    0 -0.23586367702E+02  0.51315939921E+02 -0.49390588385E+02  0.75027146103E+02  0.00000000000E+00 0.  1.
         14    1    4    4    0    0 -0.18362231536E+00 -0.29009471096E+02 -0.37507332870E+02  0.47417118738E+02  0.00000000000E+00 0. -1.
         -5    1    5    5    0  502  0.45491500280E+02 -0.25186119540E+02  0.81807867642E+02  0.97048618864E+02  0.47000000000E+01 0.  1.
         11    1    6    6    0    0 -0.62309273586E+02  0.51196411639E+00  0.29352309054E+03  0.30006418040E+03  0.00000000000E+00 0. -1.
        -12    1    6    6    0    0 -0.12250168573E+02  0.37952546153E+02  0.70241400782E+02  0.80773242930E+02  0.00000000000E+00 0.  1.
</event>
<event>
12    1  0.8416569E-002  0.1792133E+03  0.7818608E-02  0.1169156E+00
         21   -1    0    0  503  502  0.00000000000E+00  0.00000000000E+00  0.29229721578E+03  0.29229721578E+03  0.00000000000E+00 0. -1.
         21   -1    0    0  501  503 -0.00000000000E+00 -0.00000000000E+00 -0.11029081572E+03  0.11029081572E+03  0.00000000000E+00 0. -1.
          6    2    1    2  501    0  0.27294750736E+02 -0.36953249889E+02  0.64108343158E+02  0.18807145837E+03  0.17073502187E+03 0.  0.
         24    2    3    3    0    0 -0.76285407020E+01 -0.77147374283E+02  0.93866548966E+01  0.11157468009E+03  0.79692458580E+02 0.  0.
         -6    2    1    2    0  502 -0.27294750736E+02  0.36953249889E+02  0.11789805690E+03  0.21451657313E+03  0.17322488918E+03 0.  0.
        -24    2    5    5    0    0 -0.50798298347E+02  0.50161644419E+01  0.13913173978E+03  0.16929098894E+03  0.81830122199E+02 0.  0.
          5    1    3    3  501    0  0.34923291438E+02  0.40194124394E+02  0.54721688262E+02  0.76496778278E+02  0.47000000000E+01 0. -1.
        -13    1    4    4    0    0 -0.33358664782E+02 -0.41825163691E+02  0.32032309312E+02  0.62355542446E+02  0.00000000000E+00 0.  1.
         14    1    4    4    0    0  0.25730124080E+02 -0.35322210592E+02 -0.22645654416E+02  0.49219137642E+02  0.00000000000E+00 0. -1.
         -5    1    5    5    0  502  0.23503547611E+02  0.31937085447E+02 -0.21233682883E+02  0.45225584197E+02  0.47000000000E+01 0.  1.
         13    1    6    6    0    0 -0.58951976625E+02  0.31782135610E+02  0.83691016688E+02  0.10718967285E+03  0.00000000000E+00 0. -1.
        -14    1    6    6    0    0  0.81536782781E+01 -0.26765971168E+02  0.55440723096E+02  0.62101316084E+02  0.00000000000E+00 0.  1.
</event>
<event>
12    1  0.8416569E-002  0.3172392E+03  0.7818608E-02  0.1077027E+00
         21   -1    0    0  503  502  0.00000000000E+00  0.00000000000E+00  0.20371631827E+03  0.20371631827E+03  0.00000000000E+00 0.  1.
         21   -1    0    0  501  503 -0.00000000000E+00 -0.00000000000E+00 -0.71227008099E+03  0.71227008099E+03  0.00000000000E+00 0.  1.
          6    2    1    2  501    0 -0.19038649345E+03 -0.18608142808E+03 -0.50880600312E+03  0.59960340121E+03  0.17253224383E+03 0.  0.
         24    2    3    3    0    0 -0.19779746542E+03 -0.11307559320E+03 -0.41839769942E+03  0.48306788812E+03  0.79925105878E+02 0.  0.
         -6    2    1    2    0  502  0.19038649345E+03  0.18608142808E+03  0.25224039875E+00  0.31638299805E+03  0.17095269247E+03 0.  0.
        -24    2    5    5    0    0  0.17207148090E+03  0.12097999100E+03 -0.52422012818E+02  0.23053252486E+03  0.78437394330E+02 0.  0.
          5    1    3    3  501    0  0.74109719633E+01 -0.73005834885E+02 -0.90408303705E+02  0.11653551309E+03  0.47000000000E+01 0. -1.
        -11    1    4    4    0    0 -0.12249673925E+03 -0.10754105220E+03 -0.31911844387E+03  0.35833937860E+03  0.00000000000E+00 0.  1.
         12    1    4    4    0    0 -0.75300726166E+02 -0.55345410003E+01 -0.99279255549E+02  0.12472850952E+03  0.00000000000E+00 0. -1.
         -5    1    5    5    0  502  0.18315012553E+02  0.65101437082E+02  0.52674253216E+02  0.85850473190E+02  0.47000000000E+01 0.  1.
         11    1    6    6    0    0  0.65879385427E+02  0.10535025711E+02 -0.37650518531E+02  0.76607060618E+02  0.00000000000E+00 0. -1.
        -12    1    6    6    0    0  0.10619209547E+03  0.11044496529E+03 -0.14771494286E+02  0.15392546424E+03  0.00000000000E+00 0.  1.
</event>
<event>
12    1  0.8416569E-002  0.1829000E+03  0.7818608E-02  0.1165039E+00
         21   -1    0    0  501  502  0.00000000000E+00  0.00000000000E+00  0.54785776597E+03  0.54785776597E+03  0.00000000000E+00 0. -1.
         21   -1    0    0  502  503 -0.00000000000E+00 -0.00000000000E+00 -0.76698915206E+02  0.76698915206E+02  0.00000000000E+00 0. -1.
         -6    2    1    2    0  503 -0.57679673224E+02 -0.30279902812E+02  0.94513503145E+02  0.20587665763E+03  0.17090517447E+03 0.  0.
        -24    2    3    3    0    0 -0.63485800717E+02  0.55264295376E+01 -0.28711550095E+01  0.10184941987E+03  0.79398189398E+02 0.  0.
          6    2    1    2  501    0  0.57679673224E+02  0.30279902812E+02  0.37664534762E+03  0.41868002355E+03  0.17084328204E+03 0.  0.
         24    2    5    5    0    0 -0.31950194308E+02  0.24742859004E+02  0.14745644326E+03  0.17248129104E+03  0.79833383438E+02 0.  0.
          5    1    5    5  501    0  0.89629867532E+02  0.55370438082E+01  0.22918890436E+03  0.24619873251E+03  0.47000000000E+01 0. -1.
        -11    1    6    6    0    0 -0.19445040561E+02 -0.24873253851E+02  0.90834635619E+02  0.96165063238E+02  0.00000000000E+00 0.  1.
         12    1    6    6    0    0 -0.12505153747E+02  0.49616112855E+02  0.56621807645E+02  0.76316227803E+02  0.00000000000E+00 0. -1.
         -5    1    3    3    0  503  0.58061274923E+01 -0.35806332350E+02  0.97384658155E+02  0.10402723776E+03  0.47000000000E+01 0.  1.
         11    1    4    4    0    0 -0.36913556582E+02  0.36865080303E+02  0.18729734847E+02  0.55429665097E+02  0.00000000000E+00 0. -1.
        -12    1    4    4    0    0 -0.26572244135E+02 -0.31338650766E+02 -0.21600889857E+02  0.46419754769E+02  0.00000000000E+00 0.  1.
</event>
<event>
12    1  0.8416569E-002  0.2381899E+03  0.7818608E-02  0.1123313E+00
         21   -1    0    0  503  502  0.00000000000E+00  0.00000000000E+00  0.11426625343E+03  0.11426625343E+03  0.00000000000E+00 0.  1.
         21   -1    0    0  501  503 -0.00000000000E+00 -0.00000000000E+00 -0.51474867682E+03  0.51474867682E+03  0.00000000000E+00 0. -1.
          6    2    1    2  501    0  0.14519050232E+03 -0.96425981665E+01 -0.29906197665E+03  0.38232509496E+03  0.18857664409E+03 0.  0.
         24    2    3    3    0    0  0.29282119166E+02 -0.11303515126E+02 -0.32276210725E+02  0.91405437959E+02  0.79548653996E+02 0.  0.
         -6    2    1    2    0  502 -0.14519050232E+03  0.96425981665E+01 -0.10142044674E+03  0.24668983529E+03  0.17145409344E+03 0.  0.
        -24    2    5    5    0    0 -0.39714270378E+02  0.60396327551E+02 -0.60738232397E+02  0.12268052470E+03  0.78335423734E+02 0.  0.
          5    1    3    3  501    0  0.11590838316E+03  0.16609169596E+01 -0.26678576593E+03  0.29091965700E+03  0.47000000000E+01 0. -1.
        -13    1    4    4    0    0  0.53088553319E+02  0.92411366557E+01 -0.17466605860E+02  0.56646936550E+02  0.00000000000E+00 0.  1.
         14    1    4    4    0    0 -0.23806434153E+02 -0.20544651782E+02 -0.14809604865E+02  0.34758501409E+02  0.00000000000E+00 0. -1.
         -5    1    5    5    0  502 -0.10547623194E+03 -0.50753729384E+02 -0.40682214343E+02  0.12400931060E+03  0.47000000000E+01 0.  1.
         13    1    6    6    0    0  0.17094029484E+02  0.24858907751E+02  0.28499037313E+01  0.30303351133E+02  0.00000000000E+00 0. -1.
        -14    1    6    6    0    0 -0.56808299862E+02  0.35537419799E+02 -0.63588136128E+02  0.92377173563E+02  0.00000000000E+00 0.  1.
</event>
<event>
12    1  0.8416569E-002  0.1959877E+03  0.7818608E-02  0.1153282E+00
         21   -1    0    0  501  502  0.00000000000E+00  0.00000000000E+00  0.68046192518E+03  0.68046192518E+03  0.00000000000E+00 0.  1.
         21   -1    0    0  502  503 -0.00000000000E+00 -0.00000000000E+00 -0.93840735659E+02  0.93840735659E+02  0.00000000000E+00 0.  1.
         -6    2    1    2    0  503  0.95949499766E+02 -0.10440140745E+02  0.48199109367E+02  0.20131965216E+03  0.16997395435E+03 0.  0.
        -24    2    3    3    0    0  0.16441786682E+02  0.48693534175E+02  0.89628074902E+01  0.94643294264E+02  0.78965996550E+02 0.  0.
          6    2    1    2  501    0 -0.95949499766E+02  0.10440140745E+02  0.53842208016E+03  0.57298300868E+03  0.17057517050E+03 0.  0.
         24    2    5    5    0    0 -0.41256728189E+02 -0.54232318555E+02  0.36552018446E+03  0.38039281737E+03  0.80314558203E+02 0.  0.
          5    1    5    5  501    0 -0.54692771577E+02  0.64672459300E+02  0.17290189569E+03  0.19259019131E+03  0.47000000000E+01 0. -1.
        -11    1    6    6    0    0 -0.58811400662E+02 -0.13011833287E+02  0.22341646989E+03  0.23139362064E+03  0.00000000000E+00 0.  1.
         12    1    6    6    0    0  0.17554672473E+02 -0.41220485268E+02  0.14210371457E+03  0.14899919673E+03  0.00000000000E+00 0. -1.
         -5    1    3    3    0  503  0.79507713084E+02 -0.59133674920E+02  0.39236301877E+02  0.10667635790E+03  0.47000000000E+01 0.  1.
         13    1    4    4    0    0 -0.19505682599E+02  0.52436089234E+02  0.15183039676E+02  0.57970163029E+02  0.00000000000E+00 0. -1.
        -14    1    4    4    0    0  0.35947469281E+02 -0.37425550588E+01 -0.62202321860E+01  0.36673131234E+02  0.00000000000E+00 0.  1.
</event>
<event>
12    1  0.8416569E-002  0.1988814E+03  0.7818608E-02  0.1151017E+00
         21   -1    0    0  503  502  0.00000000000E+00  0.00000000000E+00  0.26028354080E+03  0.26028354080E+03  0.00000000000E+00 0. -1.
         21   -1    0    0  501  503 -0.00000000000E+00 -0.00000000000E+00 -0.20847856726E+03  0.20847856726E+03  0.00000000000E+00 0.  1.
          6    2    1    2  501    0 -0.89957585800E+02 -0.44658775230E+02 -0.97322854672E+02  0.22141717645E+03  0.17165970563E+03 0.  0.
         24    2    3    3    0    0 -0.41888342108E+02  0.33489687379E+02 -0.13553006250E+02  0.97089738202E+02  0.79790606718E+02 0.  0.
         -6    2    1    2    0  502  0.89957585800E+02  0.44658775230E+02  0.14912782821E+03  0.24734493161E+03  0.16986357054E+03 0.  0.
        -24    2    5    5    0    0  0.12425785827E+03  0.49220543330E+02  0.14219979112E+03  0.21174428389E+03  0.82171673586E+02 0.  0.
          5    1    3    3  501    0 -0.48069243693E+02 -0.78148462608E+02 -0.83769848422E+02  0.12432743825E+03  0.47000000000E+01 0. -1.
        -13    1    4    4    0    0 -0.14098061810E+02  0.20170463066E+02 -0.46106588215E+02  0.52262992680E+02  0.00000000000E+00 0.  1.
         14    1    4    4    0    0 -0.27790280298E+02  0.13319224313E+02  0.32553581965E+02  0.44826745522E+02  0.00000000000E+00 0. -1.
         -5    1    5    5    0  502 -0.34300272472E+02 -0.45617681007E+01  0.69280370967E+01  0.35600647717E+02  0.47000000000E+01 0.  1.
         13    1    6    6    0    0  0.79955904978E+01  0.62369305431E+00  0.61692730490E+02  0.62211827298E+02  0.00000000000E+00 0. -1.
        -14    1    6    6    0    0  0.11626226777E+03  0.48596850276E+02  0.80507060625E+02  0.14953245659E+03  0.00000000000E+00 0.  1.
</event>
<event>
12    1  0.8416569E-002  0.2370685E+03  0.7818608E-02  0.1121761E+00
         21   -1    0    0  503  502  0.00000000000E+00  0.00000000000E+00  0.14018779604E+03  0.14018779604E+03  0.00000000000E+00 0.  1.
         21   -1    0    0  501  503 -0.00000000000E+00 -0.00000000000E+00 -0.56155168391E+03  0.56155168391E+03  0.00000000000E+00 0.  1.
          6    2    1    2  501    0 -0.14569077715E+03 -0.73116034592E+02 -0.39835083152E+03  0.46355660856E+03  0.17213247023E+03 0.  0.
         24    2    3    3    0    0 -0.12126319924E+03  0.96946505347E+01 -0.29341346289E+03  0.32758507673E+03  0.80135962914E+02 0.  0.
         -6    2    1    2    0  502  0.14569077715E+03  0.73116034592E+02 -0.23013056354E+02  0.23818287140E+03  0.17213286265E+03 0.  0.
        -24    2    5    5    0    0  0.49577915723E+02  0.93802512067E+02 -0.21519171551E+02  0.13974540814E+03  0.88367546947E+02 0.  0.
          5    1    3    3  501    0 -0.24427577908E+02 -0.82810685127E+02 -0.10493736862E+03  0.13597153183E+03  0.47000000000E+01 0. -1.
        -11    1    4    4    0    0 -0.82509045678E+02  0.38673220518E+02 -0.23297416735E+03  0.25016059493E+03  0.00000000000E+00 0.  1.
         12    1    4    4    0    0 -0.38754153560E+02 -0.28978569984E+02 -0.60439295548E+02  0.77424481805E+02  0.00000000000E+00 0. -1.
         -5    1    5    5    0  502  0.96112861423E+02 -0.20686477475E+02 -0.14938848031E+01  0.98437463260E+02  0.47000000000E+01 0.  1.
         11    1    6    6    0    0 -0.12778984270E+02 -0.46233122533E+01 -0.18800152835E+02  0.23197482661E+02  0.00000000000E+00 0. -1.
        -12    1    6    6    0    0  0.62356899993E+02  0.98425824320E+02 -0.27190187156E+01  0.11654792548E+03  0.00000000000E+00 0.  1.
</event>
<event>
12    1  0.8416569E-002  0.1792438E+03  0.7818608E-02  0.1168761E+00
         21   -1    0    0  503  502  0.00000000000E+00  0.00000000000E+00  0.39368624308E+02  0.39368624308E+02  0.00000000000E+00 0. -1.
         21   -1    0    0  501  503 -0.00000000000E+00 -0.00000000000E+00 -0.11847991261E+04  0.11847991261E+04  0.00000000000E+00 0. -1.
          6    2    1    2  501    0 -0.21045139996E+02  0.44739227928E+02 -0.91710055677E+03  0.93445265302E+03  0.17228996800E+03 0.  0.
         24    2    3    3    0    0 -0.68944027252E+02  0.58871075251E+02 -0.76121749960E+03  0.77069786677E+03  0.79397970640E+02 0.  0.
         -6    2    1    2    0  502  0.21045139996E+02 -0.44739227928E+02 -0.22832994504E+03  0.28971509740E+03  0.17133527783E+03 0.  0.
        -24    2    5    5    0    0  0.16446603047E+02 -0.71935254477E+02 -0.64735805193E+02  0.12374551286E+03  0.75346240057E+02 0.  0.
          5    1    3    3  501    0  0.47898887256E+02 -0.14131847323E+02 -0.15588305716E+03  0.16375478625E+03  0.47000000000E+01 0. -1.
        -13    1    4    4    0    0 -0.41610147151E+02  0.62522343043E+02 -0.32312003658E+03  0.33173333533E+03  0.00000000000E+00 0.  1.
         14    1    4    4    0    0 -0.27333880101E+02 -0.36512677914E+01 -0.43809746302E+03  0.43896453144E+03  0.00000000000E+00 0. -1.
         -5    1    5    5    0  502  0.45985369494E+01  0.27196026549E+02 -0.16359413984E+03  0.16596958454E+03  0.47000000000E+01 0.  1.
         11    1    6    6    0    0  0.45579036063E+02 -0.49207141187E+02 -0.51250356068E+02  0.84412026805E+02  0.00000000000E+00 0. -1.
        -12    1    6    6    0    0 -0.29132433017E+02 -0.22728113290E+02 -0.13485449125E+02  0.39333486056E+02  0.00000000000E+00 0.  1.
</event>
<event>
12    1  0.8416569E-002  0.2158813E+03  0.7818608E-02  0.1137188E+00
         21   -1    0    0  501  502  0.00000000000E+00  0.00000000000E+00  0.18346637439E+03  0.18346637439E+03  0.00000000000E+00 0.  1.
         21   -1    0    0  502  503 -0.00000000000E+00 -0.00000000000E+00 -0.83782591454E+03  0.83782591454E+03  0.00000000000E+00 0.  1.
         -6    2    1    2    0  503 -0.52267346572E+02 -0.11730015580E+03 -0.75411601979E+03  0.78440786315E+03  0.17353248227E+03 0.  0.
        -24    2    3    3    0    0 -0.58004548481E+02  0.24994682815E+00 -0.31166975928E+03  0.32655229034E+03  0.78318384560E+02 0.  0.
          6    2    1    2  501    0  0.52267346572E+02  0.11730015580E+03  0.99756479639E+02  0.23688442578E+03  0.17225467738E+03 0.  0.
         24    2    5    5    0    0  0.89445970147E+02  0.67240912907E+02  0.10703340264E+03  0.17393030393E+03  0.79206561593E+02 0.  0.
          5    1    5    5  501    0 -0.37178623575E+02  0.50059242890E+02 -0.72769229991E+01  0.62954121851E+02  0.47000000000E+01 0. -1.
        -11    1    6    6    0    0  0.59012880352E+02  0.38291994820E+01  0.20887721159E+02  0.62717459382E+02  0.00000000000E+00 0.  1.
         12    1    6    6    0    0  0.30433089794E+02  0.63411713425E+02  0.86145681479E+02  0.11121284454E+03  0.00000000000E+00 0. -1.
         -5    1    3    3    0  503  0.57372019097E+01 -0.11755010263E+03 -0.44244626051E+03  0.45785557281E+03  0.47000000000E+01 0.  1.
         13    1    4    4    0    0 -0.66540464871E+02 -0.21069346725E+02 -0.27103066178E+03  0.27987349011E+03  0.00000000000E+00 0. -1.
        -14    1    4    4    0    0  0.85359163898E+01  0.21319293553E+02 -0.40639097492E+02  0.46678800233E+02  0.00000000000E+00 0.  1.
</event>
<event>
12    1  0.8416569E-002  0.2008398E+03  0.7818608E-02  0.1149143E+00
         21   -1    0    0  501  502  0.00000000000E+00  0.00000000000E+00  0.17507886650E+03  0.17507886650E+03  0.00000000000E+00 0. -1.
         21   -1    0    0  502  503 -0.00000000000E+00 -0.00000000000E+00 -0.77040865675E+03  0.77040865675E+03  0.00000000000E+00 0.  1.
         -6    2    1    2    0  503  0.10446403924E+03  0.27325934171E+02 -0.69379602005E+03  0.72228079252E+03  0.16934338968E+03 0.  0.
        -24    2    3    3    0    0  0.75847860916E+02  0.66707240600E+02 -0.26888711409E+03  0.29456658733E+03  0.65317993627E+02 0.  0.
          6    2    1    2  501    0 -0.10446403924E+03 -0.27325934171E+02  0.98466229800E+02  0.22320673074E+03  0.16871930554E+03 0.  0.
         24    2    5    5    0    0 -0.97628940871E+02  0.18183658187E+02  0.16080973576E+02  0.12872254153E+03  0.80304666534E+02 0.  0.
          5    1    5    5  501    0 -0.68350983657E+01 -0.45509592358E+02  0.82385256224E+02  0.94484189203E+02  0.47000000000E+01 0. -1.
        -13    1    6    6    0    0 -0.62145203484E+02  0.97241949035E+01 -0.30215055138E+02  0.69782059582E+02  0.00000000000E+00 0.  1.
         14    1    6    6    0    0 -0.35483737387E+02  0.84594632834E+01  0.46296028714E+02  0.58940481951E+02  0.00000000000E+00 0. -1.
         -5    1    3    3    0  503  0.28616178321E+02 -0.39381306429E+02 -0.42490890596E+03  0.42771420519E+03  0.47000000000E+01 0.  1.
         13    1    4    4    0    0  0.32362506023E+02 -0.78078720545E+01 -0.61120223839E+02  0.69598681196E+02  0.00000000000E+00 0. -1.
        -14    1    4    4    0    0  0.43485354893E+02  0.74515112655E+02 -0.20776689025E+03  0.22496790613E+03  0.00000000000E+00 0.  1.
</event>
<event>
12    1  0.8416569E-002  0.2430388E+03  0.7818608E-02  0.1118752E+00
         21   -1    0    0  503  502  0.00000000000E+00  0.00000000000E+00  0.33530387101E+03  0.33530387101E+03  0.00000000000E+00 0. -1.
         21   -1    0    0  501  503 -0.00000000000E+00 -0.00000000000E+00 -0.22888536682E+03  0.22888536682E+03  0.00000000000E+00 0. -1.
          6    2    1    2  501    0 -0.29214553754E+02 -0.16124100430E+03 -0.87942221434E+02  0.25299161598E+03  0.17151901302E+03 0.  0.
         24    2    3    3    0    0 -0.50374279929E+02 -0.18150167835E+03 -0.88896363842E+02  0.22330610921E+03  0.80514766256E+02 0.  0.
         -6    2    1    2    0  502  0.29214553754E+02  0.16124100430E+03  0.19436072562E+03  0.31119762184E+03  0.17948737159E+03 0.  0.
        -24    2    5    5    0    0  0.61321549692E+01  0.15990075614E+03  0.21503160545E+03  0.27982934692E+03  0.80374230453E+02 0.  0.
          5    1    3    3  501    0  0.21159726175E+02  0.20260674046E+02  0.95414240840E+00  0.29685506773E+02  0.47000000000E+01 0. -1.
        -11    1    4    4    0    0  0.19205586741E+02 -0.15165909939E+02 -0.86889218028E+01  0.25968379781E+02  0.00000000000E+00 0.  1.
         12    1    4    4    0    0 -0.69579866671E+02 -0.16633576841E+03 -0.80207442040E+02  0.19733772943E+03  0.00000000000E+00 0. -1.
         -5    1    5    5    0  502  0.23082398785E+02  0.13402481656E+01 -0.20670879827E+02  0.31368274923E+02  0.47000000000E+01 0.  1.
         11    1    6    6    0    0  0.30407059506E+02  0.11945660293E+03  0.18985452630E+03  0.22636079698E+03  0.00000000000E+00 0. -1.
        -12    1    6    6    0    0 -0.24274904537E+02  0.40444153209E+02  0.25177079144E+02  0.53468549946E+02  0.00000000000E+00 0.  1.
</event>
<event>
12    1  0.8416569E-002  0.1832400E+03  0.7818608E-02  0.1164904E+00
         21   -1    0    0  501  502  0.00000000000E+00  0.00000000000E+00  0.52947709194E+03  0.52947709194E+03  0.00000000000E+00 0.  1.
         21   -1    0    0  502  503 -0.00000000000E+00 -0.00000000000E+00 -0.19997277172E+03  0.19997277172E+03  0.00000000000E+00 0.  1.
         -6    2    1    2    0  503  0.49391011995E+02  0.35015170364E+02 -0.13708660792E+03  0.22816750216E+03  0.17205271504E+03 0.  0.
        -24    2    3    3    0    0  0.78493281086E+02 -0.11118869442E+02 -0.43366782225E+02  0.11962816633E+03  0.78392575835E+02 0.  0.
          6    2    1    2  501    0 -0.49391011995E+02 -0.35015170364E+02  0.46659092814E+03  0.50128236149E+03  0.17294906041E+03 0.  0.
         24    2    5    5    0    0  0.11487308976E+02 -0.85833803024E+02  0.30618591642E+03  0.32228358727E+03  0.51161462022E+02 0.  0.
          5    1    5    5  501    0 -0.60878320971E+02  0.50818632660E+02  0.16040501172E+03  0.17899877423E+03  0.47000000000E+01 0. -1.
        -13    1    6    6    0    0 -0.17873247742E+02 -0.36968103864E+02  0.94087288781E+02  0.10265725302E+03  0.00000000000E+00 0.  1.
         14    1    6    6    0    0  0.29360556718E+02 -0.48865699160E+02  0.21209862764E+03  0.21962633424E+03  0.00000000000E+00 0. -1.
         -5    1    3    3    0  503 -0.29102269091E+02  0.46134039806E+02 -0.93719825694E+02  0.10853933583E+03  0.47000000000E+01 0.  1.
         11    1    4    4    0    0  0.14166741294E+01  0.72563748667E+01  0.17965843887E+02  0.19427647525E+02  0.00000000000E+00 0. -1.
        -12    1    4    4    0    0  0.77076606956E+02 -0.18375244308E+02 -0.61332626112E+02  0.10020051881E+03  0.00000000000E+00 0.  1.
</event>
<event>
12    1  0.8416569E-002  0.3015393E+03  0.7818608E-02  0.1084701E+00
         21   -1    0    0  503  502  0.00000000000E+00  0.00000000000E+00  0.11708034348E+04  0.11708034348E+04  0.00000000000E+00 0. -1.
         21   -1    0    0  501  503 -0.00000000000E+00 -0.00000000000E+00 -0.88454735002E+02  0.88454735002E+02  0.00000000000E+00 0. -1.
          6    2    1    2  501    0  0.21305736298E+03  0.12126458637E+03  0.31793479369E+03  0.43818769253E+03  0.17557727935E+03 0.  0.
         24    2    3    3    0    0  0.11605627730E+03  0.61970362593E+02  0.77408637357E+02  0.17210511611E+03  0.79490178730E+02 0.  0.
         -6    2    1    2    0  502 -0.21305736298E+03 -0.12126458637E+03  0.76441390607E+03  0.82107047723E+03  0.17242264630E+03 0.  0.
        -24    2    5    5    0    0 -0.11683865673E+03  0.40668861148E+01  0.38435852500E+03  0.40945147851E+03  0.79064696564E+02 0.  0.
          5    1    3    3  501    0  0.97001085679E+02  0.59294223777E+02  0.24052615633E+03  0.26608257642E+03  0.47000000000E+01 0. -1.
        -13    1    4    4    0    0 -0.11747080549E+01  0.10302575128E+02  0.36005640488E+02  0.37469042425E+02  0.00000000000E+00 0.  1.
         14    1    4    4    0    0  0.11723098535E+03  0.51667787465E+02  0.41402996869E+02  0.13463607369E+03  0.00000000000E+00 0. -1.
         -5    1    5    5    0  502 -0.96218706244E+02 -0.12533147248E+03  0.38005538107E+03  0.41161899872E+03  0.47000000000E+01 0.  1.
         11    1    6    6    0    0 -0.28909439464E+01 -0.21809092041E+02  0.37942144142E+02  0.43858868597E+02  0.00000000000E+00 0. -1.
        -12    1    6    6    0    0 -0.11394771279E+03  0.25875978156E+02  0.34641638086E+03  0.36559260992E+03  0.00000000000E+00 0.  1.
</event>
<event>
12    1  0.8416569E-002  0.1765981E+03  0.7818608E-02  0.1172257E+00
         21   -1    0    0  501  502  0.00000000000E+00  0.00000000000E+00  0.37019847631E+02  0.37019847631E+02  0.00000000000E+00 0. -1.
         21   -1    0    0  502  503 -0.00000000000E+00 -0.00000000000E+00 -0.83202293887E+03  0.83202293887E+03  0.00000000000E+00 0. -1.
         -6    2    1    2    0  503 -0.18402022534E+02 -0.27413447188E+02 -0.45177497690E+03  0.48506446536E+03  0.17348421913E+03 0.  0.
        -24    2    3    3    0    0  0.46464833526E+02  0.32332624249E+02 -0.21063622709E+03  0.22826242346E+03  0.67318158437E+02 0.  0.
          6    2    1    2  501    0  0.18402022534E+02  0.27413447188E+02 -0.34322811435E+03  0.38397832114E+03  0.16894875291E+03 0.  0.
         24    2    5    5    0    0  0.31180729737E+02  0.78922333688E+02 -0.19264555201E+03  0.22424836520E+03  0.77291965451E+02 0.  0.
          5    1    5    5  501    0 -0.12778707203E+02 -0.51508886500E+02 -0.15058256234E+03  0.15972995595E+03  0.47000000000E+01 0. -1.
        -11    1    6    6    0    0 -0.17895680749E+02  0.41328807238E+02 -0.42710689643E+02  0.62068741787E+02  0.00000000000E+00 0.  1.
         12    1    6    6    0    0  0.49076410486E+02  0.37593526450E+02 -0.14993486236E+03  0.16217962341E+03  0.00000000000E+00 0. -1.
         -5    1    3    3    0  503 -0.64866856060E+02 -0.59746071437E+02 -0.24113874981E+03  0.25680204190E+03  0.47000000000E+01 0.  1.
         11    1    4    4    0    0 -0.11135264351E+02  0.24267197968E+02 -0.40954183009E+02  0.48889018351E+02  0.00000000000E+00 0. -1.
        -12    1    4    4    0    0  0.57600097877E+02  0.80654262811E+01 -0.16968204408E+03  0.17937340511E+03  0.00000000000E+00 0.  1.
</event>
<event>
12    1  0.8416569E-002  0.2039984E+03  0.7818608E-02  0.1146462E+00
         21   -1    0    0  503  502  0.00000000000E+00  0.00000000000E+00  0.46622124368E+02  0.46622124368E+02  0.00000000000E+00 0. -1.
         21   -1    0    0  501  503 -0.00000000000E+00 -0.00000000000E+00 -0.93150878502E+03  0.93150878502E+03  0.00000000000E+00 0.  1.
          6    2    1    2  501    0 -0.42728622342E+02 -0.10120344751E+03 -0.54410501377E+03  0.58109003831E+03  0.17189384415E+03 0.  0.
         24    2    3    3    0    0 -0.26186267090E+02 -0.34370310231E+02 -0.47438854013E+03  0.48299419511E+03  0.79823973189E+02 0.  0.
         -6    2    1    2    0  502  0.42728622342E+02  0.10120344751E+03 -0.34078164688E+03  0.39704087107E+03  0.17158510862E+03 0.  0.
        -24    2    5    5    0    0 -0.15515300181E+02  0.42682267434E+02 -0.28065131426E+03  0.29479200835E+03  0.77940153301E+02 0.  0.
          5    1    3    3  501    0 -0.16542355252E+02 -0.66833137279E+02 -0.69716473646E+02  0.98095843202E+02  0.47000000000E+01 0. -1.
        -13    1    4    4    0    0 -0.50842887571E+02 -0.32100228286E+02 -0.24488705800E+03  0.25216085154E+03  0.00000000000E+00 0.  1.
         14    1    4    4    0    0  0.24656620481E+02 -0.22700819451E+01 -0.22950148213E+03  0.23083334357E+03  0.00000000000E+00 0. -1.
         -5    1    5    5    0  502  0.58243922523E+02  0.58521180076E+02 -0.60130332613E+02  0.10224886272E+03  0.47000000000E+01 0.  1.
         13    1    6    6    0    0 -0.13055595205E+02 -0.15657723573E+02 -0.23573172682E+02  0.31165804079E+02  0.00000000000E+00 0. -1.
        -14    1    6    6    0    0 -0.24597049768E+01  0.58339991007E+02 -0.25707814158E+03  0.26362620427E+03  0.00000000000E+00 0.  1.
</event>
<event>
12    1  0.8416569E-002  0.1841887E+03  0.7818608E-02  0.1163987E+00
         21   -1    0    0  501  502  0.00000000000E+00  0.00000000000E+00  0.73567244844E+03  0.73567244844E+03  0.00000000000E+00 0. -1.
         21   -1    0    0  502  503 -0.00000000000E+00 -0.00000000000E+00 -0.46490552759E+02  0.46490552759E+02  0.00000000000E+00 0. -1.
         -6    2    1    2    0  503  0.60647812550E+02  0.19653304226E+02  0.38836966488E+03  0.42983308717E+03  0.17280357837E+03 0.  0.
        -24    2    3    3    0    0  0.10029007293E+03  0.16072894169E+02  0.35869434875E+03  0.37996283019E+03  0.73441676496E+02 0.  0.
          6    2    1    2  501    0 -0.60647812550E+02 -0.19653304226E+02  0.30081223080E+03  0.35232991402E+03  0.17199988541E+03 0.  0.
         24    2    5    5    0    0 -0.34365034156E+02 -0.27952792036E+02  0.30977115644E+03  0.32296976609E+03  0.79931134664E+02 0.  0.
          5    1    5    5  501    0 -0.26282778394E+02  0.82994878107E+01 -0.89589256420E+01  0.29360147934E+02  0.47000000000E+01 0. -1.
        -11    1    6    6    0    0  0.24067848377E+02  0.41553518536E+01  0.72141883112E+02  0.76164162002E+02  0.00000000000E+00 0.  1.
         12    1    6    6    0    0 -0.58432882533E+02 -0.32108143890E+02  0.23762927333E+03  0.24680560409E+03  0.00000000000E+00 0. -1.
         -5    1    3    3    0  503 -0.39642260380E+02  0.35804100571E+01  0.29675316126E+02  0.49870256981E+02  0.47000000000E+01 0.  1.
         11    1    4    4    0    0  0.61751817053E+02  0.28612183394E+02  0.12090128536E+03  0.13874099880E+03  0.00000000000E+00 0. -1.
        -12    1    4    4    0    0  0.38538255876E+02 -0.12539289225E+02  0.23779306340E+03  0.24122183139E+03  0.00000000000E+00 0.  1.
</event>
<event>
12    1  0.8416569E-002  0.2294706E+03  0.7818608E-02  0.1127037E+00
         21   -1    0    0  501  502  0.00000000000E+00  0.00000000000E+00  0.23753987627E+03  0.23753987627E+03  0.00000000000E+00 0.  1.
         21   -1    0    0  502  503 -0.00000000000E+00 -0.00000000000E+00 -0.22164384772E+03  0.22164384772E+03  0.00000000000E+00 0. -1.
         -6    2    1    2    0  503 -0.32439926080E+02 -0.14696361805E+03  0.31331900183E+01  0.22949195329E+03  0.17322264838E+03 0.  0.
        -24    2    3    3    0    0 -0.88153906323E+02 -0.10359960543E+03 -0.80842837740E+01  0.15785113460E+03  0.79672050330E+02 0.  0.
          6    2    1    2  501    0  0.32439926080E+02  0.14696361805E+03  0.12762838524E+02  0.22969177070E+03  0.17304555945E+03 0.  0.
         24    2    5    5    0    0  0.55991524352E+02  0.62688458959E+02 -0.45313231186E+02  0.12456375306E+03  0.79987161276E+02 0.  0.
          5    1    5    5  501    0 -0.23551598272E+02  0.84275159088E+02  0.58076069710E+02  0.10512801764E+03  0.47000000000E+01 0. -1.
        -11    1    6    6    0    0  0.40757119685E+02  0.12396168893E+02  0.14448846894E+02  0.44984185942E+02  0.00000000000E+00 0.  1.
         12    1    6    6    0    0  0.15234404667E+02  0.50292290066E+02 -0.59762078080E+02  0.79579567114E+02  0.00000000000E+00 0. -1.
         -5    1    3    3    0  503  0.55713980243E+02 -0.43364012616E+02  0.11217473792E+02  0.71640818693E+02  0.47000000000E+01 0.  1.
         13    1    4    4    0    0  0.12536263140E+02 -0.10195315809E+02 -0.12513650482E+02  0.20437558718E+02  0.00000000000E+00 0. -1.
        -14    1    4    4    0    0 -0.10069016946E+03 -0.93404289622E+02  0.44293667085E+01  0.13741357588E+03  0.00000000000E+00 0.  1.
</event>
<event>
12    1  0.8416569E-002  0.2044439E+03  0.7818608E-02  0.1146234E+00
         21   -1    0    0  503  502  0.00000000000E+00  0.00000000000E+00  0.10249346840E+03  0.10249346840E+03  0.00000000000E+00 0. -1.
         21   -1    0    0  501  503 -0.00000000000E+00 -0.00000000000E+00 -0.41704395106E+03  0.41704395106E+03  0.00000000000E+00 0.  1.
          6    2    1    2  501    0  0.12740150677E+02  0.10818494497E+03 -0.19999798727E+03  0.28600087594E+03  0.17300581600E+03 0.  0.
         24    2    3    3    0    0  0.58379063273E+02  0.30049387406E+02 -0.15182588250E+03  0.18338159229E+03  0.79162043192E+02 0.  0.
         -6    2    1    2    0  502 -0.12740150677E+02 -0.10818494497E+03 -0.11455249539E+03  0.23353654353E+03  0.17190331353E+03 0.  0.
        -24    2    5    5    0    0 -0.51603622238E+02 -0.10999142309E+03 -0.41305554877E+02  0.15046526642E+03  0.78565899438E+02 0.  0.
          5    1    3    3  501    0 -0.45638912597E+02  0.78135557564E+02 -0.48172104768E+02  0.10261928365E+03  0.47000000000E+01 0. -1.
        -11    1    4    4    0    0  0.57568824791E+01  0.49010837797E+01 -0.11314589725E+03  0.11339822037E+03  0.00000000000E+00 0.  1.
         12    1    4    4    0    0  0.52622180794E+02  0.25148303626E+02 -0.38679985248E+02  0.69983371922E+02  0.00000000000E+00 0. -1.
         -5    1    5    5    0  502  0.38863471561E+02  0.18064781162E+01 -0.73246940518E+02  0.83071277107E+02  0.47000000000E+01 0.  1.
         11    1    6    6    0    0 -0.40081723232E+02 -0.90190767944E+02  0.49788737008E+01  0.98821598565E+02  0.00000000000E+00 0. -1.
        -12    1    6    6    0    0 -0.11521899005E+02 -0.19800655142E+02 -0.46284428577E+02  0.51643667855E+02  0.00000000000E+00 0.  1.
</event>
<event>
12    1  0.8416569E-002  0.1764086E+03  0.7818608E-02  0.1171513E+00
         21   -1    0    0  501  502  0.00000000000E+00  0.00000000000E+00  0.89140196389E+02  0.89140196389E+02  0.00000000000E+00 0.  1.
         21   -1    0    0  502  503 -0.00000000000E+00 -0.00000000000E+00 -0.54267845808E+03  0.54267845808E+03  0.00000000000E+00 0.  1.
         -6    2    1    2    0  503  0.40872085162E+02 -0.22574254045E+02 -0.41648072867E+03  0.45230101502E+03  0.17011727290E+03 0.  0.
        -24    2    3    3    0    0  0.48367032387E+02  0.47339735257E+02 -0.27219107539E+03  0.29172164468E+03  0.80206708540E+02 0.  0.
          6    2    1    2  501    0 -0.40872085162E+02  0.22574254045E+02 -0.37057533021E+02  0.17951763946E+03  0.16933162088E+03 0.  0.
         24    2    5    5    0    0 -0.38135758006E+01 -0.17738137607E+00  0.41399548605E+02  0.89692399753E+02  0.79474707450E+02 0.  0.
          5    1    5    5  501    0 -0.37058509361E+02  0.22751635421E+02 -0.78457081626E+02  0.89825239703E+02  0.47000000000E+01 0. -1.
        -13    1    6    6    0    0  0.34567963002E+02 -0.15916439874E+02  0.18644467164E+02  0.42377981077E+02  0.00000000000E+00 0.  1.
         14    1    6    6    0    0 -0.38381538802E+02  0.15739058498E+02  0.22755081441E+02  0.47314418676E+02  0.00000000000E+00 0. -1.
         -5    1    3    3    0  503 -0.74949472250E+01 -0.69913989302E+02 -0.14428965328E+03  0.16057937034E+03  0.47000000000E+01 0.  1.
         11    1    4    4    0    0  0.98225782410E+01  0.56858455004E+02 -0.10426584261E+03  0.11916682795E+03  0.00000000000E+00 0. -1.
        -12    1    4    4    0    0  0.38544454146E+02 -0.95187197472E+01 -0.16792523278E+03  0.17255481673E+03  0.00000000000E+00 0.  1.
</event>
<event>
12    1  0.8416569E-002  0.2390844E+03  0.7818608E-02  0.1120956E+00
         21   -1    0    0  503  502  0.00000000000E+00  0.00000000000E+00  0.96675588596E+02  0.96675588596E+02  0.00000000000E+00 0.  1.
         21   -1    0    0  501  503 -0.00000000000E+00 -0.00000000000E+00 -0.83650482820E+03  0.83650482820E+03  0.00000000000E+00 0. -1.
          6    2    1    2  501    0 -0.66941191720E+02  0.15126902062E+03 -0.62844695903E+03  0.67238897614E+03  0.17262072638E+03 0.  0.
         24    2    3    3    0    0 -0.16143639547E+02  0.14543342466E+03 -0.32481255368E+03  0.36444354656E+03  0.76840129462E+02 0.  0.
         -6    2    1    2    0  502  0.66941191720E+02 -0.15126902062E+03 -0.11138228057E+03  0.26079144065E+03  0.16805571500E+03 0.  0.
        -24    2    5    5    0    0  0.75996222471E+02 -0.12667205922E+03 -0.14217192348E+03  0.22008399412E+03  0.80017949395E+02 0.  0.
          5    1    3    3  501    0 -0.50797552173E+02  0.58355959580E+01 -0.30363440536E+03  0.30794542959E+03  0.47000000000E+01 0. -1.
        -11    1    4    4    0    0  0.24214983289E+02  0.40683937381E+02 -0.57276506799E+02  0.74311145918E+02  0.00000000000E+00 0.  1.
         12    1    4    4    0    0 -0.40358622836E+02  0.10474948728E+03 -0.26753604688E+03  0.29013240064E+03  0.00000000000E+00 0. -1.
         -5    1    5    5    0  502 -0.90550307510E+01 -0.24596961396E+02  0.30789642915E+02  0.40707446526E+02  0.47000000000E+01 0.  1.
         11    1    6    6    0    0 -0.12127255986E+02  0.15383779753E+01 -0.76989351697E+01  0.14446817895E+02  0.00000000000E+00 0. -1.
        -12    1    6    6    0    0  0.88123478457E+02 -0.12821043720E+03 -0.13447298831E+03  0.20563717623E+03  0.00000000000E+00 0.  1.
</event>
<event>
12    1  0.8416569E-002  0.1914229E+03  0.7818608E-02  0.1157386E+00
         21   -1    0    0  503  502  0.00000000000E+00  0.00000000000E+00  0.49768307541E+02  0.49768307541E+02  0.00000000000E+00 0.  1.
         21   -1    0    0  501  503 -0.00000000000E+00 -0.00000000000E+00 -0.11444537787E+04  0.11444537787E+04  0.00000000000E+00 0.  1.
          6    2    1    2  501    0  0.68472631731E+02  0.46273653854E+02 -0.90462865406E+03  0.92447348776E+03  0.17166384447E+03 0.  0.
         24    2    3    3    0    0  0.76220390784E+02 -0.27318927589E+02 -0.48080845480E+03  0.49421595197E+03  0.80726483829E+02 0.  0.
         -6    2    1    2    0  502 -0.68472631731E+02 -0.46273653854E+02 -0.19005681709E+03  0.26974859847E+03  0.17266429948E+03 0.  0.
        -24    2    5    5    0    0 -0.92681498740E+02  0.49629893875E+01 -0.17297720123E+03  0.21037633112E+03  0.75647849123E+02 0.  0.
          5    1    3    3  501    0 -0.77477590534E+01  0.73592581443E+02 -0.42382019925E+03  0.43025753580E+03  0.47000000000E+01 0. -1.
        -11    1    4    4    0    0  0.43102843879E+01  0.10869942335E+02 -0.23464885978E+03  0.23494003830E+03  0.00000000000E+00 0.  1.
         12    1    4    4    0    0  0.71910106397E+02 -0.38188869924E+02 -0.24615959502E+03  0.25927591367E+03  0.00000000000E+00 0. -1.
         -5    1    5    5    0  502  0.24208867009E+02 -0.51236643241E+02 -0.17079615863E+02  0.59372267352E+02  0.47000000000E+01 0.  1.
         13    1    6    6    0    0 -0.26390537927E+02 -0.58226215706E+01 -0.12487252131E+03  0.12776349241E+03  0.00000000000E+00 0. -1.
        -14    1    6    6    0    0 -0.66290960813E+02  0.10785610958E+02 -0.48104679917E+02  0.82612838707E+02  0.00000000000E+00 0.  1.
</event>
<event>
12    1  0.8416569E-002  0.2275348E+03  0.7818608E-02  0.1130324E+00
         21   -1    0    0  503  502  0.00000000000E+00  0.00000000000E+00  0.74578733956E+02  0.74578733956E+02  0.00000000000E+00 0. -1.
         21   -1    0    0  501  503 -0.00000000000E+00 -0.00000000000E+00 -0.68172066531E+03  0.68172066531E+03  0.00000000000E+00 0.  1.
          6    2    1    2  501    0  0.74448858432E+02  0.12378116953E+03 -0.24675420905E+03  0.33564820595E+03  0.17580576789E+03 0.  0.
         24    2    3    3    0    0  0.97226146405E+02  0.30390087506E+02 -0.15038646775E+03  0.19945154442E+03  0.82391431148E+02 0.  0.
         -6    2    1    2    0  502 -0.74448858432E+02 -0.12378116953E+03 -0.36038772231E+03  0.42065119332E+03  0.16187558678E+03 0.  0.
        -24    2    5    5    0    0 -0.42127951107E+02 -0.18285303185E+02 -0.12803665278E+03  0.16339037551E+03  0.90520239602E+02 0.  0.
          5    1    3    3  501    0 -0.22777287973E+02  0.93391082025E+02 -0.96367741296E+02  0.13619666153E+03  0.47000000000E+01 0. -1.
        -13    1    4    4    0    0  0.20866750044E+02 -0.21071187072E+02 -0.74309191545E+02  0.80007950418E+02  0.00000000000E+00 0.  1.
         14    1    4    4    0    0  0.76359396361E+02  0.51461274578E+02 -0.76077276205E+02  0.11944359400E+03  0.00000000000E+00 0. -1.
         -5    1    5    5    0  502 -0.32320907325E+02 -0.10549586635E+03 -0.23235106954E+03  0.25726081781E+03  0.47000000000E+01 0.  1.
         11    1    6    6    0    0 -0.55662358731E+02 -0.42092907788E+02 -0.68166103131E+02  0.97553722028E+02  0.00000000000E+00 0. -1.
        -12    1    6    6    0    0  0.13534407624E+02  0.23807604603E+02 -0.59870549645E+02  0.65836653480E+02  0.00000000000E+00 0.  1.
</event>
<event>
12    1  0.8416569E-002  0.1882222E+03  0.7818608E-02  0.1160395E+00
         21   -1    0    0  503  502  0.00000000000E+00  0.00000000000E+00  0.58384865775E+03  0.58384865775E+03  0.00000000000E+00 0. -1.
         21   -1    0    0  501  503 -0.00000000000E+00 -0.00000000000E+00 -0.85508302375E+02  0.85508302375E+02  0.00000000000E+00 0. -1.
          6    2    1    2  501    0  0.75650249068E+01 -0.74850499038E+02  0.67855742470E+02  0.20007996912E+03  0.17253337489E+03 0.  0.
         24    2    3    3    0    0 -0.16096905215E+02  0.22946716892E+02  0.33741652391E+02  0.93731280731E+02  0.82833518022E+02 0.  0.
         -6    2    1    2    0  502 -0.75650249068E+01  0.74850499038E+02  0.43048461290E+03  0.46927699100E+03  0.17100896330E+03 0.  0.
        -24    2    5    5    0    0 -0.56814572606E+02  0.69641050458E+02  0.21393405226E+03  0.24708587592E+03  0.84887453703E+02 0.  0.
          5    1    3    3  501    0  0.23661930122E+02 -0.97797215930E+02  0.34114090079E+02  0.10634868839E+03  0.47000000000E+01 0. -1.
        -13    1    4    4    0    0  0.23445901811E+02  0.22585874088E+02 -0.10676278151E+02  0.34260982694E+02  0.00000000000E+00 0.  1.
         14    1    4    4    0    0 -0.39542807026E+02  0.36084280345E+00  0.44417930542E+02  0.59470298037E+02  0.00000000000E+00 0. -1.
         -5    1    5    5    0  502  0.49249547699E+02  0.52094485805E+01  0.21655056065E+03  0.22219111508E+03  0.47000000000E+01 0.  1.
         11    1    6    6    0    0  0.12849703250E+02 -0.48770630890E+00  0.77763463068E+02  0.78819470434E+02  0.00000000000E+00 0. -1.
        -12    1    6    6    0    0 -0.69664275856E+02  0.70128756767E+02  0.13617058919E+03  0.16826640549E+03  0.00000000000E+00 0.  1.
</event>
<event>
12    1  0.8416569E-002  0.1818089E+03  0.7818608E-02  0.1166905E+00
         21   -1    0    0  503  502  0.00000000000E+00  0.00000000000E+00  0.12066851777E+03  0.12066851777E+03  0.00000000000E+00 0. -1.
         21   -1    0    0  501  503 -0.00000000000E+00 -0.00000000000E+00 -0.26901610893E+03  0.26901610893E+03  0.00000000000E+00 0. -1.
          6    2    1    2  501    0  0.49417648777E+02  0.28908575763E+02 -0.81558480594E+02  0.19926431117E+03  0.17255917879E+03 0.  0.
         24    2    3    3    0    0  0.26912292250E+02  0.33978066012E+02 -0.12197917597E+03  0.15248703657E+03  0.80589059474E+02 0.  0.
         -6    2    1    2    0  502 -0.49417648777E+02 -0.28908575763E+02 -0.66789110573E+02  0.19042031553E+03  0.16888250801E+03 0.  0.
        -24    2    5    5    0    0 -0.51909408455E+02 -0.78477420328E+02 -0.65863999884E+02  0.14055825533E+03  0.81026319631E+02 0.  0.
          5    1    3    3  501    0  0.22505356527E+02 -0.50694902493E+01  0.40420695380E+02  0.46777274598E+02  0.47000000000E+01 0. -1.
        -11    1    4    4    0    0 -0.22280808559E+02  0.88486071452E+00 -0.70586363858E+02  0.74024672719E+02  0.00000000000E+00 0.  1.
         12    1    4    4    0    0  0.49193100809E+02  0.33093205297E+02 -0.51392812117E+02  0.78462363852E+02  0.00000000000E+00 0. -1.
         -5    1    5    5    0  502  0.24917596789E+01  0.49568844565E+02 -0.92511068875E+00  0.49862060202E+02  0.47000000000E+01 0.  1.
         11    1    6    6    0    0 -0.37517221154E+02 -0.53670197765E+01 -0.52665989724E+02  0.64884923195E+02  0.00000000000E+00 0. -1.
        -12    1    6    6    0    0 -0.14392187301E+02 -0.73110400551E+02 -0.13198010160E+02  0.75673332134E+02  0.00000000000E+00 0.  1.
</event>
<event>
12    1  0.8416569E-002  0.1770596E+03  0.7818608E-02  0.1172621E+00
         21   -1    0    0  503  502  0.00000000000E+00  0.00000000000E+00  0.12280149079E+03  0.12280149079E+03  0.00000000000E+00 0.  1.
         21   -1    0    0  501  503 -0.00000000000E+00 -0.00000000000E+00 -0.49456923034E+03  0.49456923034E+03  0.00000000000E+00 0. -1.
          6    2    1    2  501    0 -0.36314575431E+02 -0.34652775338E+02 -0.40745495925E+03  0.44426303147E+03  0.16979556557E+03 0.  0.
         24    2    3    3    0    0 -0.25333254820E+00 -0.51219671637E+00 -0.82474048638E+02  0.11547636111E+03  0.80823850150E+02 0.  0.
         -6    2    1    2    0  502  0.36314575431E+02  0.34652775338E+02  0.35687219693E+02  0.17310768967E+03  0.16178112172E+03 0.  0.
        -24    2    5    5    0    0  0.29308016652E+02  0.60764708210E+02 -0.23299507580E+02  0.10805041568E+03  0.81121610383E+02 0.  0.
          5    1    3    3  501    0 -0.36061242883E+02 -0.34140578621E+02 -0.32498091061E+03  0.32878667036E+03  0.47000000000E+01 0. -1.
        -13    1    4    4    0    0 -0.13356046573E+01  0.37831108417E+02 -0.21768921643E+02  0.43667637369E+02  0.00000000000E+00 0.  1.
         14    1    4    4    0    0  0.10822721091E+01 -0.38343305134E+02 -0.60705126995E+02  0.71808723738E+02  0.00000000000E+00 0. -1.
         -5    1    5    5    0  502  0.70065587786E+01 -0.26111932872E+02  0.58986727273E+02  0.65057273987E+02  0.47000000000E+01 0.  1.
         13    1    6    6    0    0  0.12973394344E+02 -0.90022763039E+01  0.19107586063E+02  0.24788097640E+02  0.00000000000E+00 0. -1.
        -14    1    6    6    0    0  0.16334622309E+02  0.69766984514E+02 -0.42407093643E+02  0.83262318040E+02  0.00000000000E+00 0.  1.
</event>
<event>
12    1  0.8416569E-002  0.1839183E+03  0.7818608E-02  0.1164290E+00
         21   -1    0    0  501  502  0.00000000000E+00  0.00000000000E+00  0.51635774138E+02  0.51635774138E+02  0.00000000000E+00 0. -1.
         21   -1    0    0  502  503 -0.00000000000E+00 -0.00000000000E+00 -0.68833083992E+03  0.68833083992E+03  0.00000000000E+00 0. -1.
         -6    2    1    2    0  503  0.58107500716E+02  0.28007256220E+02 -0.40293693562E+03  0.44252953665E+03  0.17121135675E+03 0.  0.
        -24    2    3    3    0    0  0.79408518652E+02  0.70925919850E+02 -0.28303766345E+03  0.31332554863E+03  0.82014520380E+02 0.  0.
          6    2    1    2  501    0 -0.58107500716E+02 -0.28007256220E+02 -0.23375813016E+03  0.29743707741E+03  0.17223548868E+03 0.  0.
         24    2    5    5    0    0 -0.60848286745E+02  0.36652134759E+02 -0.19364695591E+03  0.22115244560E+03  0.79770719447E+02 0.  0.
          5    1    5    5  501    0  0.27407860286E+01 -0.64659390980E+02 -0.40111174254E+02  0.76284631807E+02  0.47000000000E+01 0. -1.
        -13    1    6    6    0    0 -0.56176318291E+02  0.24234476159E+02 -0.56227618657E+02  0.83094125372E+02  0.00000000000E+00 0.  1.
         14    1    6    6    0    0 -0.46719684537E+01  0.12417658600E+02 -0.13741933725E+03  0.13805832023E+03  0.00000000000E+00 0. -1.
         -5    1    3    3    0  503 -0.21301017936E+02 -0.42918663630E+02 -0.11989927217E+03  0.12920398802E+03  0.47000000000E+01 0.  1.
         13    1    4    4    0    0  0.41972867800E+02  0.80432750433E+02 -0.15511586602E+03  0.17969997458E+03  0.00000000000E+00 0. -1.
        -14    1    4    4    0    0  0.37435650853E+02 -0.95068305826E+01 -0.12792179743E+03  0.13362557405E+03  0.00000000000E+00 0.  1.
</event>
<event>
12    1  0.8416569E-002  0.1829334E+03  0.7818608E-02  0.1165320E+00
         21   -1    0    0  501  502  0.00000000000E+00  0.00000000000E+00  0.99095970005E+03  0.99095970005E+03  0.00000000000E+00 0.  1.
         21   -1    0    0  502  503 -0.00000000000E+00 -0.00000000000E+00 -0.39665809410E+02  0.39665809410E+02  0.00000000000E+00 0.  1.
         -6    2    1    2    0  503  0.49726688217E+02  0.30402273566E+02  0.68003663058E+03  0.70421192832E+03  0.17340005564E+03 0.  0.
        -24    2    3    3    0    0  0.23178951307E+02 -0.50548171790E+02  0.32731603552E+03  0.34131846583E+03  0.79184130687E+02 0.  0.
          6    2    1    2  501    0 -0.49726688217E+02 -0.30402273566E+02  0.27125726006E+03  0.32641358114E+03  0.17195430515E+03 0.  0.
         24    2    5    5    0    0 -0.95184918714E+00 -0.80947467603E+02  0.16152767148E+03  0.19604305467E+03  0.76080826110E+02 0.  0.
          5    1    5    5  501    0 -0.48774839030E+02  0.50545194037E+02  0.10972958858E+03  0.13037052647E+03  0.47000000000E+01 0. -1.
        -11    1    6    6    0    0 -0.14241581190E+02 -0.53181522345E+02  0.33676580613E+02  0.64538430686E+02  0.00000000000E+00 0.  1.
         12    1    6    6    0    0  0.13289732003E+02 -0.27765945258E+02  0.12785109086E+03  0.13150462398E+03  0.00000000000E+00 0. -1.
         -5    1    3    3    0  503  0.26547736910E+02  0.80950445356E+02  0.35272059506E+03  0.36289346249E+03  0.47000000000E+01 0.  1.
         11    1    4    4    0    0 -0.12538157293E+01 -0.48256115918E+01 -0.37370671424E+01  0.62309110045E+01  0.00000000000E+00 0. -1.
        -12    1    4    4    0    0  0.24432767036E+02 -0.45722560198E+02  0.33105310266E+03  0.33508755483E+03  0.00000000000E+00 0.  1.
</event>
<event>
12    1  0.8416569E-002  0.2558918E+03  0.7818608E-02  0.1109778E+00
         21   -1    0    0  501  502  0.00000000000E+00  0.00000000000E+00  0.38100275537E+04  0.38100275537E+04  0.00000000000E+00 0. -1.
         21   -1    0    0  502  503 -0.00000000000E+00 -0.00000000000E+00 -0.18914631342E+02  0.18914631342E+02  0.00000000000E+00 0.  1.
         -6    2    1    2    0  503 -0.15408068698E+03  0.10834662654E+03  0.13035402777E+04  0.13282426310E+04  0.17184697182E+03 0.  0.
        -24    2    3    3    0    0 -0.10928549690E+03  0.34566173586E+02  0.60257151423E+03  0.62196403044E+03  0.10299847189E+03 0.  0.
          6    2    1    2  501    0  0.15408068698E+03 -0.10834662654E+03  0.24875726447E+04  0.25006995540E+04  0.17320723826E+03 0.  0.
         24    2    5    5    0    0  0.36798916587E+02 -0.10672377105E+03  0.13553087680E+04  0.13623669033E+04  0.80234649438E+02 0.  0.
          5    1    5    5  501    0  0.11728177039E+03 -0.16228554935E+01  0.11322638767E+04  0.11383326507E+04  0.47000000000E+01 0. -1.
        -13    1    6    6    0    0  0.11031291669E+02 -0.48068108810E+02  0.10075365609E+04  0.10087428583E+04  0.00000000000E+00 0.  1.
         14    1    6    6    0    0  0.25767624918E+02 -0.58655662239E+02  0.34777220704E+03  0.35362404499E+03  0.00000000000E+00 0. -1.
         -5    1    3    3    0  503 -0.44795190080E+02  0.73780452957E+02  0.70096876348E+03  0.70627860060E+03  0.47000000000E+01 0.  1.
         11    1    4    4    0    0 -0.42207393301E+02 -0.36824986333E+02  0.23145185171E+03  0.23813337298E+03  0.00000000000E+00 0. -1.
        -12    1    4    4    0    0 -0.67078103599E+02  0.71391159918E+02  0.37111966253E+03  0.38383065746E+03  0.00000000000E+00 0.  1.
</event>
<event>
12    1  0.8416569E-002  0.1891424E+03  0.7818608E-02  0.1159872E+00
         21   -1    0    0  501  502  0.00000000000E+00  0.00000000000E+00  0.73138121623E+02  0.73138121623E+02  0.00000000000E+00 0.  1.
         21   -1    0    0  502  503 -0.00000000000E+00 -0.00000000000E+00 -0.48450187887E+03  0.48450187887E+03  0.00000000000E+00 0.  1.
         -6    2    1    2    0  503  0.39603872527E+02  0.59663604374E+02 -0.22729736258E+03  0.29570075343E+03  0.17506179520E+03 0.  0.
        -24    2    3    3    0    0 -0.39175746418E+02  0.61075635163E+01 -0.11443460190E+03  0.14793549831E+03  0.84956412989E+02 0.  0.
          6    2    1    2  501    0 -0.39603872527E+02 -0.59663604374E+02 -0.18406639467E+03  0.26193924706E+03  0.17205673221E+03 0.  0.
         24    2    5    5    0    0 -0.66208140842E+02  0.17122762382E+02 -0.10146632045E+03  0.14597030521E+03  0.79594025615E+02 0.  0.
          5    1    5    5  501    0  0.26604268315E+02 -0.76786366756E+02 -0.82600074221E+02  0.11596894185E+03  0.47000000000E+01 0. -1.
        -11    1    6    6    0    0 -0.60075718439E+02  0.30087905288E+02 -0.30887020844E+02  0.73948509432E+02  0.00000000000E+00 0.  1.
         12    1    6    6    0    0 -0.61324224023E+01 -0.12965142906E+02 -0.70579299602E+02  0.72021795780E+02  0.00000000000E+00 0. -1.
         -5    1    3    3    0  503  0.78779618945E+02  0.53556040858E+02 -0.11286276068E+03  0.14776525512E+03  0.47000000000E+01 0.  1.
         11    1    4    4    0    0 -0.35425554582E+02  0.43298966447E+02 -0.75420860931E+02  0.93904614777E+02  0.00000000000E+00 0. -1.
        -12    1    4    4    0    0 -0.37501918361E+01 -0.37191402930E+02 -0.39013740966E+02  0.54030883528E+02  0.00000000000E+00 0.  1.
</event>
<event>
12    1  0.8416569E-002  0.1793212E+03  0.7818608E-02  0.1168983E+00
         21   -1    0    0  503  502  0.00000000000E+00  0.00000000000E+00  0.35288496462E+03  0.35288496462E+03  0.00000000000E+00 0. -1.
         21   -1    0    0  501  503 -0.00000000000E+00 -0.00000000000E+00 -0.98614342060E+02  0.98614342060E+02  0.00000000000E+00 0. -1.
          6    2    1    2  501    0 -0.32061261270E+02  0.27798413510E+02  0.19437577521E+03  0.26445801237E+03  0.17422807481E+03 0.  0.
         24    2    3    3    0    0 -0.63993003579E+02  0.64240287757E+02  0.17293010907E+03  0.21126352994E+03  0.80656911536E+02 0.  0.
         -6    2    1    2    0  502  0.32061261270E+02 -0.27798413510E+02  0.59894847353E+02  0.18704129431E+03  0.17203597522E+03 0.  0.
        -24    2    5    5    0    0  0.14253433101E+02  0.50971158388E+02  0.24322775802E+02  0.98671466451E+02  0.79644469527E+02 0.  0.
          5    1    3    3  501    0  0.31931742309E+02 -0.36441874247E+02  0.21445666131E+02  0.53194482433E+02  0.47000000000E+01 0. -1.
        -11    1    4    4    0    0 -0.42940303822E+02  0.29192306316E+02  0.16025807400E+03  0.16845981931E+03  0.00000000000E+00 0.  1.
         12    1    4    4    0    0 -0.21052699756E+02  0.35047981441E+02  0.12672035072E+02  0.42803710622E+02  0.00000000000E+00 0. -1.
         -5    1    5    5    0  502  0.17807828168E+02 -0.78769571898E+02  0.35572071550E+02  0.88369827857E+02  0.47000000000E+01 0.  1.
         11    1    6    6    0    0 -0.24271950368E+02 -0.30191285093E+01  0.21041298100E+02  0.32264205202E+02  0.00000000000E+00 0. -1.
        -12    1    6    6    0    0  0.38525383469E+02  0.53990286897E+02  0.32814777027E+01  0.66407261249E+02  0.00000000000E+00 0.  1.
</event>
<event>
12    1  0.8416569E-002  0.2638600E+03  0.7818608E-02  0.1104931E+00
         21   -1    0    0  501  502  0.00000000000E+00  0.00000000000E+00  0.13638865565E+03  0.13638865565E+03  0.00000000000E+00 0. -1.
         21   -1    0    0  502  503 -0.00000000000E+00 -0.00000000000E+00 -0.54247554248E+03  0.54247554248E+03  0.00000000000E+00 0.  1.
         -6    2    1    2    0  503 -0.15514919511E+03  0.12458352367E+03 -0.28712129860E+03  0.38994967303E+03  0.17329102769E+03 0.  0.
        -24    2    3    3    0    0 -0.83599639656E+02  0.82339222054E+02 -0.26964042470E+03  0.30491091212E+03  0.80598129392E+02 0.  0.
          6    2    1    2  501    0  0.15514919511E+03 -0.12458352367E+03 -0.11896558824E+03  0.28891452510E+03  0.17241364364E+03 0.  0.
         24    2    5    5    0    0  0.64986397098E+02 -0.10638718340E+03 -0.12865738687E+03  0.19630535760E+03  0.80259613907E+02 0.  0.
          5    1    5    5  501    0  0.90162798013E+02 -0.18196340268E+02  0.96917986319E+01  0.92609167502E+02  0.47000000000E+01 0. -1.
        -13    1    6    6    0    0  0.10893872615E+02 -0.78317747374E+01 -0.66505035261E+02  0.67844917799E+02  0.00000000000E+00 0.  1.
         14    1    6    6    0    0  0.54092524483E+02 -0.98555408667E+02 -0.62152351608E+02  0.12846043980E+03  0.00000000000E+00 0. -1.
         -5    1    3    3    0  503 -0.71549555456E+02  0.42244301618E+02 -0.17480873901E+02  0.85038760912E+02  0.47000000000E+01 0.  1.
         11    1    4    4    0    0 -0.62784382632E+02  0.72559168052E+02 -0.12063564531E+03  0.15414172209E+03  0.00000000000E+00 0. -1.
        -12    1    4    4    0    0 -0.20815257023E+02  0.97800540019E+01 -0.14900477939E+03  0.15076919003E+03  0.00000000000E+00 0.  1.
</event>
<event>
12    1  0.8416569E-002  0.1760834E+03  0.7818608E-02  0.1171863E+00
         21   -1    0    0  503  502  0.00000000000E+00  0.00000000000E+00  0.56364624011E+02  0.56364624011E+02  0.00000000000E+00 0. -1.
         21   -1    0    0  501  503 -0.00000000000E+00 -0.00000000000E+00 -0.20606932083E+04  0.20606932083E+04  0.00000000000E+00 0. -1.
          6    2    1    2  501    0  0.31744664663E+02  0.23322419445E+02 -0.19086164156E+04  0.19166428224E+04  0.17073789148E+03 0.  0.
         24    2    3    3    0    0  0.13658064829E+02 -0.38271179004E+02 -0.66863869450E+03  0.67499563604E+03  0.83007102135E+02 0.  0.
         -6    2    1    2    0  502 -0.31744664663E+02 -0.23322419445E+02 -0.95712168656E+02  0.20041500993E+03  0.17162079708E+03 0.  0.
        -24    2    5    5    0    0 -0.54940392810E+02 -0.11408299405E+02  0.13837765827E+02  0.87706242718E+02  0.65972003086E+02 0.  0.
          5    1    3    3  501    0  0.18086599834E+02  0.61593598448E+02 -0.12399777211E+04  0.12416471863E+04  0.47000000000E+01 0. -1.
        -11    1    4    4    0    0 -0.33159208225E+02 -0.29310362584E+02 -0.28714574449E+03  0.29053624391E+03  0.00000000000E+00 0.  1.
         12    1    4    4    0    0  0.46817273054E+02 -0.89608164200E+01 -0.38149295002E+03  0.38445939213E+03  0.00000000000E+00 0. -1.
         -5    1    5    5    0  502  0.23195728147E+02 -0.11914120040E+02 -0.10954993448E+03  0.11270876721E+03  0.47000000000E+01 0.  1.
         13    1    6    6    0    0  0.45377757473E+01 -0.24095246019E+02  0.10862572176E+02  0.26817303438E+02  0.00000000000E+00 0. -1.
        -14    1    6    6    0    0 -0.59478168558E+02  0.12686946614E+02  0.29751936513E+01  0.60888939280E+02  0.00000000000E+00 0.  1.
</event>
<event>
12    1  0.8416569E-002  0.2602365E+03  0.7818608E-02  0.1107066E+00
         21   -1    0    0  503  502  0.00000000000E+00  0.00000000000E+00  0.23230564499E+03  0.23230564499E+03  0.00000000000E+00 0. -1.
         21   -1    0    0  501  503 -0.00000000000E+00 -0.00000000000E+00 -0.35736784225E+03  0.35736784225E+03  0.00000000000E+00 0.  1.
          6    2    1    2  501    0 -0.96513592431E+02 -0.16884443291E+03  0.64444907313E+02  0.26809728886E+03  0.17291528032E+03 0.  0.
         24    2    3    3    0    0  0.12453597811E+02 -0.38373444562E+02  0.32146446339E+02  0.95002494227E+02  0.79777606827E+02 0.  0.
         -6    2    1    2    0  502  0.96513592431E+02  0.16884443291E+03 -0.18950710458E+03  0.32157619838E+03  0.17226431039E+03 0.  0.
        -24    2    5    5    0    0  0.28824918808E+01  0.61956530294E+02 -0.25306156584E+02  0.10437617988E+03  0.80044143822E+02 0.  0.
          5    1    3    3  501    0 -0.10896719024E+03 -0.13047098834E+03  0.32298460974E+02  0.17309479464E+03  0.47000000000E+01 0. -1.
        -13    1    4    4    0    0  0.11207291831E+01  0.22961627156E+02  0.21980491873E+02  0.31806200316E+02  0.00000000000E+00 0.  1.
         14    1    4    4    0    0  0.11332868628E+02 -0.61335071717E+02  0.10165954466E+02  0.63196293911E+02  0.00000000000E+00 0. -1.
         -5    1    5    5    0  502  0.93631100550E+02  0.10688790261E+03 -0.16420094799E+03  0.21720001850E+03  0.47000000000E+01 0.  1.
         11    1    6    6    0    0 -0.88413552456E+01  0.16845963320E+01 -0.40199023801E+02  0.41194282879E+02  0.00000000000E+00 0. -1.
        -12    1    6    6    0    0  0.11723847126E+02  0.60271933962E+02  0.14892867217E+02  0.63181897003E+02  0.00000000000E+00 0.  1.
</event>
<event>
12    1  0.8416569E-002  0.2229054E+03  0.7818608E-02  0.1131761E+00
         21   -1    0    0  501  502  0.00000000000E+00  0.00000000000E+00  0.44689472847E+02  0.44689472847E+02  0.00000000000E+00 0. -1.
         21   -1    0    0  502  503 -0.00000000000E+00 -0.00000000000E+00 -0.14806899726E+04  0.14806899726E+04  0.00000000000E+00 0. -1.
         -6    2    1    2    0  503 -0.12955344031E+03 -0.57267462276E+02 -0.10988638670E+04  0.11212162060E+04  0.17193116725E+03 0.  0.
        -24    2    3    3    0    0 -0.10194285850E+03 -0.99762408661E+02 -0.68893596600E+03  0.70814098439E+03  0.80535730809E+02 0.  0.
          6    2    1    2  501    0  0.12955344031E+03  0.57267462276E+02 -0.33713663273E+03  0.40416323942E+03  0.17211379619E+03 0.  0.
         24    2    5    5    0    0  0.88178079315E+02  0.80693564483E+02 -0.13602448058E+03  0.19745356257E+03  0.78730077054E+02 0.  0.
          5    1    5    5  501    0  0.41375360999E+02 -0.23426102206E+02 -0.20111215215E+03  0.20670967686E+03  0.47000000000E+01 0. -1.
        -13    1    6    6    0    0  0.87620265839E+01  0.15617071790E+02 -0.76933484857E+02  0.78990044521E+02  0.00000000000E+00 0.  1.
         14    1    6    6    0    0  0.79416052731E+02  0.65076492693E+02 -0.59090995725E+02  0.11846351805E+03  0.00000000000E+00 0. -1.
         -5    1    3    3    0  503 -0.27610581813E+02  0.42494946385E+02 -0.40992790099E+03  0.41307522161E+03  0.47000000000E+01 0.  1.
         13    1    4    4    0    0 -0.40288415783E+02 -0.18693408970E+02 -0.38589023498E+03  0.38843773431E+03  0.00000000000E+00 0. -1.
        -14    1    4    4    0    0 -0.61654442718E+02 -0.81068999691E+02 -0.30304573103E+03  0.31970325008E+03  0.00000000000E+00 0.  1.
</event>
<event>
12    1  0.8416569E-002  0.2596701E+03  0.7818608E-02  0.1107364E+00
         21   -1    0    0  503  502  0.00000000000E+00  0.00000000000E+00  0.84567821020E+03  0.84567821020E+03  0.00000000000E+00 0.  1.
         21   -1    0    0  501  503 -0.00000000000E+00 -0.00000000000E+00 -0.27360141520E+03  0.27360141520E+03  0.00000000000E+00 0. -1.
          6    2    1    2  501    0  0.11866350621E+03  0.15415213208E+03 -0.18512901703E+03  0.31878652817E+03  0.17177948093E+03 0.  0.
         24    2    3    3    0    0  0.10270058915E+03  0.13769890352E+03 -0.73911817310E+02  0.20513408005E+03  0.84312721557E+02 0.  0.
         -6    2    1    2    0  502 -0.11866350621E+03 -0.15415213208E+03  0.75720581203E+03  0.80049309722E+03  0.17200188779E+03 0.  0.
        -24    2    5    5    0    0 -0.10960962685E+03 -0.51341403655E+02  0.55535728967E+03  0.57374007169E+03  0.78139238834E+02 0.  0.
          5    1    3    3  501    0  0.15962917063E+02  0.16453228554E+02 -0.11121719972E+03  0.11365244812E+03  0.47000000000E+01 0. -1.
        -11    1    4    4    0    0  0.24139154463E+02  0.34947978460E+02  0.18338241788E+02  0.46263928589E+02  0.00000000000E+00 0.  1.
         12    1    4    4    0    0  0.78561434688E+02  0.10275092506E+03 -0.92250059098E+02  0.15887015146E+03  0.00000000000E+00 0. -1.
         -5    1    5    5    0  502 -0.90538793601E+01 -0.10281072842E+03  0.20184852235E+03  0.22675302553E+03  0.47000000000E+01 0.  1.
         11    1    6    6    0    0 -0.94516629171E+02 -0.11052381808E+02  0.29840809479E+03  0.31321388758E+03  0.00000000000E+00 0. -1.
        -12    1    6    6    0    0 -0.15092997683E+02 -0.40289021847E+02  0.25694919488E+03  0.26052618411E+03  0.00000000000E+00 0.  1.
</event>
<event>
12    1  0.8416569E-002  0.1761833E+03  0.7818608E-02  0.1171642E+00
         21   -1    0    0  503  502  0.00000000000E+00  0.00000000000E+00  0.26973942688E+03  0.26973942688E+03  0.00000000000E+00 0. -1.
         21   -1    0    0  501  503 -0.00000000000E+00 -0.00000000000E+00 -0.12202536382E+03  0.12202536382E+03  0.00000000000E+00 0. -1.
          6    2    1    2  501    0  0.24905963738E+02 -0.27209007199E+02  0.26223456592E+02  0.17775424765E+03  0.17189609007E+03 0.  0.
         24    2    3    3    0    0 -0.47385938325E+02 -0.41462745341E+02  0.26398565233E+01  0.10024576846E+03  0.77959341000E+02 0.  0.
         -6    2    1    2    0  502 -0.24905963738E+02  0.27209007199E+02  0.12149060647E+03  0.21401054305E+03  0.17227857665E+03 0.  0.
        -24    2    5    5    0    0 -0.47635741163E+02  0.72461625034E+02  0.11242071867E+03  0.16235016106E+03  0.78735670883E+02 0.  0.
          5    1    3    3  501    0  0.72291902063E+02  0.14253738142E+02  0.23583600069E+02  0.77508479195E+02  0.47000000000E+01 0. -1.
        -13    1    4    4    0    0 -0.35722107755E+02 -0.62422439421E+02  0.14684801587E+02  0.73404858990E+02  0.00000000000E+00 0.  1.
         14    1    4    4    0    0 -0.11663830570E+02  0.20959694080E+02 -0.12044945064E+02  0.26840909468E+02  0.00000000000E+00 0. -1.
         -5    1    5    5    0  502  0.22729777425E+02 -0.45252617835E+02  0.90698877932E+01  0.51660381990E+02  0.47000000000E+01 0.  1.
         13    1    6    6    0    0 -0.58949802794E+02  0.53600640519E+02  0.45157306356E+02  0.91582150176E+02  0.00000000000E+00 0. -1.
        -14    1    6    6    0    0  0.11314061631E+02  0.18860984515E+02  0.67263412317E+02  0.70768010881E+02  0.00000000000E+00 0.  1.
</event>
<event>
12    1  0.8416569E-002  0.3067843E+03  0.7818608E-02  0.1081949E+00
         21   -1    0    0  501  502  0.00000000000E+00  0.00000000000E+00  0.69979049588E+03  0.69979049588E+03  0.00000000000E+00 0.  1.
         21   -1    0    0  502  503 -0.00000000000E+00 -0.00000000000E+00 -0.16637281095E+03  0.16637281095E+03  0.00000000000E+00 0. -1.
         -6    2    1    2    0  503  0.25338907853E+03  0.50873559136E+00  0.76726980263E+02  0.31623351546E+03  0.17294601144E+03 0.  0.
        -24    2    3    3    0    0  0.17148334009E+03 -0.65653438249E+02  0.36763316023E+02  0.20351631316E+03  0.79689638188E+02 0.  0.
          6    2    1    2  501    0 -0.25338907853E+03 -0.50873559136E+00  0.45669070467E+03  0.54992979136E+03  0.17219202004E+03 0.  0.
         24    2    5    5    0    0 -0.58701017434E+02 -0.33914135567E+02  0.20659870667E+03  0.23120191473E+03  0.78583215365E+02 0.  0.
          5    1    5    5  501    0 -0.19468806109E+03  0.33405399975E+02  0.25009199800E+03  0.31872787663E+03  0.47000000000E+01 0. -1.
        -11    1    6    6    0    0 -0.55462832303E+02  0.12107003795E+02  0.12874573133E+03  0.14070596520E+03  0.00000000000E+00 0.  1.
         12    1    6    6    0    0 -0.32381851308E+01 -0.46021139362E+02  0.77852975342E+02  0.90495949526E+02  0.00000000000E+00 0. -1.
         -5    1    3    3    0  503  0.81905738439E+02  0.66162173840E+02  0.39963664240E+02  0.11271720231E+03  0.47000000000E+01 0.  1.
         13    1    4    4    0    0  0.46492314153E+01 -0.27096455287E+02 -0.32147076089E+01  0.27679732421E+02  0.00000000000E+00 0. -1.
        -14    1    4    4    0    0  0.16683410867E+03 -0.38556982962E+02  0.39978023632E+02  0.17583658074E+03  0.00000000000E+00 0.  1.
</event>
<event>
12    1  0.8416569E-002  0.2476859E+03  0.7818608E-02  0.1114898E+00
         21   -1    0    0  501  502  0.00000000000E+00  0.00000000000E+00  0.17671145282E+03  0.17671145282E+03  0.00000000000E+00 0. -1.
         21   -1    0    0  502  503 -0.00000000000E+00 -0.00000000000E+00 -0.45685127866E+03  0.45685127866E+03  0.00000000000E+00 0. -1.
         -6    2    1    2    0  503  0.11259797744E+03  0.13829406656E+03 -0.29587852925E+03  0.38537725808E+03  0.17078633906E+03 0.  0.
        -24    2    3    3    0    0  0.65346965725E+02  0.16089387157E+03 -0.25821302689E+03  0.32069194784E+03  0.77538985763E+02 0.  0.
          6    2    1    2  501    0 -0.11259797744E+03 -0.13829406656E+03  0.15738703406E+02  0.24818547340E+03  0.17188591871E+03 0.  0.
         24    2    5    5    0    0 -0.98600325748E+02 -0.13349214297E+03  0.66661791102E+02  0.19494785903E+03  0.77580260859E+02 0.  0.
          5    1    5    5  501    0 -0.13997651689E+02 -0.48019235934E+01 -0.50923087696E+02  0.53237614367E+02  0.47000000000E+01 0. -1.
        -13    1    6    6    0    0  0.12282102489E+02 -0.19293217021E+02  0.15978489180E+02  0.27899648404E+02  0.00000000000E+00 0.  1.
         14    1    6    6    0    0 -0.11088242824E+03 -0.11419892595E+03  0.50683301923E+02  0.16704821062E+03  0.00000000000E+00 0. -1.
         -5    1    3    3    0  503  0.47251011712E+02 -0.22599805008E+02 -0.37665502355E+02  0.64685310248E+02  0.47000000000E+01 0.  1.
         11    1    4    4    0    0  0.82151616689E+02  0.12478677683E+03 -0.21623865879E+03  0.26283033567E+03  0.00000000000E+00 0. -1.
        -12    1    4    4    0    0 -0.16804650964E+02  0.36107094735E+02 -0.41974368106E+02  0.57861612164E+02  0.00000000000E+00 0.  1.
</event>
<event>
12    1  0.8416569E-002  0.1930665E+03  0.7818608E-02  0.1156466E+00
         21   -1    0    0  503  502  0.00000000000E+00  0.00000000000E+00  0.14828291256E+03  0.14828291256E+03  0.00000000000E+00 0. -1.
         21   -1    0    0  501  503 -0.00000000000E+00 -0.00000000000E+00 -0.40727229077E+03  0.40727229077E+03  0.00000000000E+00 0. -1.
          6    2    1    2  501    0 -0.23525028897E+02 -0.86043685704E+02 -0.30302963122E+03  0.35752937113E+03  0.16746149105E+03 0.  0.
         24    2    3    3    0    0 -0.38319816917E+02 -0.12154425895E+03 -0.25400045928E+03  0.29503836253E+03  0.79309437005E+02 0.  0.
         -6    2    1    2    0  502  0.23525028897E+02  0.86043685704E+02  0.44040253019E+02  0.19802583220E+03  0.17122424915E+03 0.  0.
        -24    2    5    5    0    0  0.33717200143E+02  0.94810353539E+02 -0.22182950370E+02  0.13028856412E+03  0.79731887786E+02 0.  0.
          5    1    3    3  501    0  0.14794788021E+02  0.35500573250E+02 -0.49029171944E+02  0.62491008595E+02  0.47000000000E+01 0. -1.
        -11    1    4    4    0    0 -0.17087082904E+02 -0.28882742979E+01 -0.44368096039E+01  0.17888426707E+02  0.00000000000E+00 0.  1.
         12    1    4    4    0    0 -0.21232734013E+02 -0.11865598466E+03 -0.24956364968E+03  0.27714993583E+03  0.00000000000E+00 0. -1.
         -5    1    5    5    0  502 -0.10192171246E+02 -0.87666678349E+01  0.66223203389E+02  0.67737268079E+02  0.47000000000E+01 0.  1.
         13    1    6    6    0    0  0.40147128040E+02  0.19779532984E+02  0.13790549843E+02  0.46831624784E+02  0.00000000000E+00 0. -1.
        -14    1    6    6    0    0 -0.64299278967E+01  0.75030820555E+02 -0.35973500213E+02  0.83456939337E+02  0.00000000000E+00 0.  1.
</event>
<event>
12    1  0.8416569E-002  0.1820774E+03  0.7818608E-02  0.1166134E+00
         21   -1    0    0  503  502  0.00000000000E+00  0.00000000000E+00  0.12469315677E+04  0.12469315677E+04  0.00000000000E+00 0.  1.
         21   -1    0    0  501  503 -0.00000000000E+00 -0.00000000000E+00 -0.36414260121E+02  0.36414260121E+02  0.00000000000E+00 0.  1.
          6    2    1    2  501    0 -0.26520845841E+02  0.52464267347E+02  0.27021044592E+03  0.32583105327E+03  0.17232624750E+03 0.  0.
         24    2    3    3    0    0  0.29709366764E+02  0.50130230261E+02  0.24468294970E+03  0.26385502885E+03  0.79712257026E+02 0.  0.
         -6    2    1    2    0  502  0.26520845841E+02 -0.52464267347E+02  0.94030686169E+03  0.95751477459E+03  0.17088503385E+03 0.  0.
        -24    2    5    5    0    0 -0.11614718421E+02 -0.31050353790E+02  0.21511703232E+03  0.23099205947E+03  0.77349646346E+02 0.  0.
          5    1    3    3  501    0 -0.56230212605E+02  0.23340370857E+01  0.25527496228E+02  0.61976024416E+02  0.47000000000E+01 0. -1.
        -11    1    4    4    0    0  0.70001448717E+00  0.53114103999E+02  0.76323581837E+02  0.92988640211E+02  0.00000000000E+00 0.  1.
         12    1    4    4    0    0  0.29009352276E+02 -0.29838737377E+01  0.16835936786E+03  0.17086638864E+03  0.00000000000E+00 0. -1.
         -5    1    5    5    0  502  0.38135564263E+02 -0.21413913557E+02  0.72518982937E+03  0.72652271512E+03  0.47000000000E+01 0.  1.
         11    1    6    6    0    0 -0.93005498751E+01 -0.29646203785E+02  0.22170398274E+03  0.22387061796E+03  0.00000000000E+00 0. -1.
        -12    1    6    6    0    0 -0.23141685464E+01 -0.14041500052E+01 -0.65869504177E+01  0.71214415046E+01  0.00000000000E+00 0.  1.
</event>
