<event>
12    1  0.1598254E-001  0.2161682E+03  0.7818608E-02  0.1136992E+00
         21   -1    0    0  501  502  0.00000000000E+00  0.00000000000E+00  0.61296858407E+02  0.61296858407E+02  0.00000000000E+00 0. -1.
         21   -1    0    0  502  503 -0.00000000000E+00 -0.00000000000E+00 -0.77924737621E+03  0.77924737621E+03  0.00000000000E+00 0. -1.
         -6    2    1    2    0  503  0.81927868990E+01 -0.13031128997E+03 -0.28913987712E+03  0.36032840955E+03  0.17084068642E+03 0.  0.
        -24    2    3    3    0    0  0.41850468792E+02 -0.14952149818E+03 -0.21922196231E+03  0.28025046963E+03  0.79836813638E+02 0.  0.
          6    2    1    2  501    0 -0.81927868990E+01  0.13031128997E+03 -0.42881064068E+03  0.48021582507E+03  0.17228035011E+03 0.  0.
         24    2    5    5    0    0 -0.44511767115E+02  0.42362879462E+02 -0.32040929122E+03  0.33590042811E+03  0.79944185126E+02 0.  0.
          5    1    5    5  501    0  0.36318980216E+02  0.87948410507E+02 -0.10840134946E+03  0.14431539696E+03  0.47000000000E+01 0. -1.
        -11    1    6    6    0    0  0.14247183378E+02 -0.51021798337E+00 -0.10863924659E+02  0.17923934155E+02  0.00000000000E+00 0.  1.
         12    1    6    6    0    0 -0.58758950493E+02  0.42873097445E+02 -0.30954536656E+03  0.31797649395E+03  0.00000000000E+00 0. -1.
         -5    1    3    3    0  503 -0.33657681893E+02  0.19210208214E+02 -0.69917914812E+02  0.80077939920E+02  0.47000000000E+01 0.  1.
         11    1    4    4    0    0  0.34685718521E+02 -0.99971635408E+02 -0.81059945381E+02  0.13329719315E+03  0.00000000000E+00 0. -1.
        -12    1    4    4    0    0  0.71647502716E+01 -0.49549862774E+02 -0.13816201693E+03  0.14695327648E+03  0.00000000000E+00 0.  1.
</event>
<event>
12    1  0.1598254E-001  0.1722108E+03  0.7818608E-02  0.1175950E+00
         21   -1    0    0  503  502  0.00000000000E+00  0.00000000000E+00  0.80113660061E+02  0.80113660061E+02  0.00000000000E+00 0.  1.
         21   -1    0    0  501  503 -0.00000000000E+00 -0.00000000000E+00 -0.39171616785E+03  0.39171616785E+03  0.00000000000E+00 0.  1.
          6    2    1    2  501    0 -0.10721005476E+02  0.33649548518E+01 -0.95841271585E+02  0.19576918593E+03  0.17033426532E+03 0.  0.
         24    2    3    3    0    0  0.33327639770E+02  0.55054090332E+02 -0.59084202776E+02  0.11840496951E+03  0.79919392843E+02 0.  0.
         -6    2    1    2    0  502  0.10721005476E+02 -0.33649548518E+01 -0.21576123620E+03  0.27606064198E+03  0.17184383644E+03 0.  0.
        -24    2    5    5    0    0 -0.29918883612E+02 -0.54095492401E+02 -0.16342883670E+03  0.19247859808E+03  0.80731432283E+02 0.  0.
          5    1    3    3  501    0 -0.44048645246E+02 -0.51689135480E+02 -0.36757068809E+02  0.77364216419E+02  0.47000000000E+01 0. -1.
        -13    1    4    4    0    0 -0.66180317642E+01 -0.17544067883E+02 -0.48356637558E+01  0.19364304952E+02  0.00000000000E+00 0.  1.
         14    1    4    4    0    0  0.39945671534E+02  0.72598158215E+02 -0.54248539020E+02  0.99040664559E+02  0.00000000000E+00 0. -1.
         -5    1    5    5    0  502  0.40639889088E+02  0.50730537549E+02 -0.52332399504E+02  0.83582043903E+02  0.47000000000E+01 0.  1.
         11    1    6    6    0    0 -0.11071722724E+02 -0.73404848724E+02 -0.11139083664E+03  0.13386102251E+03  0.00000000000E+00 0. -1.
        -12    1    6    6    0    0 -0.18847160887E+02  0.19309356323E+02 -0.52038000064E+02  0.58617575571E+02  0.00000000000E+00 0.  1.
</event>
<event>
12    1  0.1598254E-001  0.2067044E+03  0.7818608E-02  0.1144836E+00
         21   -1    0    0  503  502  0.00000000000E+00  0.00000000000E+00  0.35775779101E+03  0.35775779101E+03  0.00000000000E+00 0. -1.
         21   -1    0    0  501  503 -0.00000000000E+00 -0.00000000000E+00 -0.13591504676E+03  0.13591504676E+03  0.00000000000E+00 0. -1.
          6    2    1    2  501    0  0.56447428812E+02 -0.93700522467E+02  0.21140084863E+02  0.20778263720E+03  0.17538706053E+03 0.  0.
         24    2    3    3    0    0  0.25872681671E+02 -0.30369667315E+01  0.61280451603E+02  0.10391717353E+03  0.79780112693E+02 0.  0.
         -6    2    1    2    0  502 -0.56447428812E+02  0.93700522467E+02  0.20070265939E+03  0.28589020058E+03  0.17171356723E+03 0.  0.
        -24    2    5    5    0    0 -0.60810733796E+02  0.72343573643E+02  0.22720770916E+03  0.25125257138E+03  0.50724486496E+02 0.  0.
          5    1    3    3  501    0  0.30574747141E+02 -0.90663555735E+02 -0.40140366740E+02  0.10386546367E+03  0.47000000000E+01 0. -1.
        -11    1    4    4    0    0 -0.19398887374E+02  0.19289445227E+02  0.41492968583E+02  0.49699758253E+02  0.00000000000E+00 0.  1.
         12    1    4    4    0    0  0.45271569045E+02 -0.22326411958E+02  0.19787483020E+02  0.54217415274E+02  0.00000000000E+00 0. -1.
         -5    1    5    5    0  502  0.43633049842E+01  0.21356948824E+02 -0.26505049768E+02  0.34637629201E+02  0.47000000000E+01 0.  1.
         13    1    6    6    0    0 -0.35881214908E+01  0.10356380656E+02  0.25153314566E+01  0.11245271382E+02  0.00000000000E+00 0. -1.
        -14    1    6    6    0    0 -0.57222612305E+02  0.61987192987E+02  0.22469237770E+03  0.24000729999E+03  0.00000000000E+00 0.  1.
</event>
<event>
12    1  0.1598254E-001  0.2627933E+03  0.7818608E-02  0.1106077E+00
         21   -1    0    0  501  502  0.00000000000E+00  0.00000000000E+00  0.63457027780E+03  0.63457027780E+03  0.00000000000E+00 0. -1.
         21   -1    0    0  502  503 -0.00000000000E+00 -0.00000000000E+00 -0.18233123135E+03  0.18233123135E+03  0.00000000000E+00 0. -1.
         -6    2    1    2    0  503  0.13421156496E+03  0.14659388385E+03 -0.35092043905E+02  0.26512595032E+03  0.17192384081E+03 0.  0.
        -24    2    3    3    0    0  0.13306968492E+03  0.11940952000E+03 -0.80725355829E+02  0.21178944608E+03  0.79824882619E+02 0.  0.
          6    2    1    2  501    0 -0.13421156496E+03 -0.14659388385E+03  0.48733109036E+03  0.55177555882E+03  0.16571712264E+03 0.  0.
         24    2    5    5    0    0 -0.12857756834E+03 -0.76424228526E+02  0.42464888545E+03  0.45740039653E+03  0.80719223532E+02 0.  0.
          5    1    5    5  501    0 -0.56339966202E+01 -0.70169655321E+02  0.62682204905E+02  0.94375162291E+02  0.47000000000E+01 0.  1.
        -11    1    6    6    0    0 -0.11456941433E+03 -0.33662697358E+02  0.35438890014E+03  0.37396633597E+03  0.00000000000E+00 0.  1.
         12    1    6    6    0    0 -0.14008154003E+02 -0.42761531168E+02  0.70259985310E+02  0.83434060564E+02  0.00000000000E+00 0. -1.
         -5    1    3    3    0  503  0.11418800387E+01  0.27184363846E+02  0.45633311924E+02  0.53336504244E+02  0.47000000000E+01 0.  1.
         13    1    4    4    0    0  0.74431095570E+02  0.55354241906E+02 -0.83639287139E+02  0.12489840046E+03  0.00000000000E+00 0. -1.
        -14    1    4    4    0    0  0.58638589346E+02  0.64055278095E+02  0.29139313101E+01  0.86891045615E+02  0.00000000000E+00 0.  1.
</event>
<event>
12    1  0.1598254E-001  0.1706638E+03  0.7818608E-02  0.1177327E+00
         21   -1    0    0  503  502  0.00000000000E+00  0.00000000000E+00  0.52307053744E+02  0.52307053744E+02  0.00000000000E+00 0. -1.
         21   -1    0    0  501  503 -0.00000000000E+00 -0.00000000000E+00 -0.23752216013E+04  0.23752216013E+04  0.00000000000E+00 0. -1.
          6    2    1    2  501    0  0.11641453038E+02 -0.36868875653E+00 -0.22246020739E+04  0.22311388385E+04  0.17026588049E+03 0.  0.
         24    2    3    3    0    0  0.69732924926E+02  0.81595903015E+01 -0.16919391443E+04  0.16952291098E+04  0.78831511696E+02 0.  0.
         -6    2    1    2    0  502 -0.11641453038E+02  0.36868875653E+00 -0.98312473587E+02  0.19638981648E+03  0.16961119714E+03 0.  0.
        -24    2    5    5    0    0 -0.38392816309E+02  0.54559026700E+02 -0.85381914201E+02  0.13440983964E+03  0.79531364763E+02 0.  0.
          5    1    3    3  501    0 -0.58091471888E+02 -0.85282790580E+01 -0.53266292966E+03  0.53590972867E+03  0.47000000000E+01 0. -1.
        -13    1    4    4    0    0  0.16509313537E+02  0.32482834386E+02 -0.32467184211E+03  0.32671011160E+03  0.00000000000E+00 0.  1.
         14    1    4    4    0    0  0.53223611390E+02 -0.24323244084E+02 -0.13672673022E+04  0.13685189982E+04  0.00000000000E+00 0. -1.
         -5    1    5    5    0  502  0.26751363272E+02 -0.54190337944E+02 -0.12930559386E+02  0.61979976843E+02  0.47000000000E+01 0.  1.
         13    1    6    6    0    0  0.15000396785E+02  0.37338038042E+02 -0.61370217618E+02  0.73385588497E+02  0.00000000000E+00 0. -1.
        -14    1    6    6    0    0 -0.53393213095E+02  0.17220988658E+02 -0.24011696583E+02  0.61024251144E+02  0.00000000000E+00 0.  1.
</event>
<event>
12    1  0.1598254E-001  0.1817094E+03  0.7818608E-02  0.1167060E+00
         21   -1    0    0  503  502  0.00000000000E+00  0.00000000000E+00  0.21610109868E+03  0.21610109868E+03  0.00000000000E+00 0.  1.
         21   -1    0    0  501  503 -0.00000000000E+00 -0.00000000000E+00 -0.16324415161E+03  0.16324415161E+03  0.00000000000E+00 0. -1.
          6    2    1    2  501    0 -0.37545775490E+02 -0.29657784962E+02 -0.28011090706E+02  0.18385574241E+03  0.17529701466E+03 0.  0.
         24    2    3    3    0    0 -0.60318276421E+02  0.30486081015E+02 -0.55989266562E+02  0.11356534664E+03  0.72073534535E+02 0.  0.
         -6    2    1    2    0  502  0.37545775490E+02  0.29657784962E+02  0.80868037777E+02  0.19548950788E+03  0.17142706523E+03 0.  0.
        -24    2    5    5    0    0  0.41852425865E+02 -0.99373320672E+01  0.11118303008E+03  0.14521616218E+03  0.82919789313E+02 0.  0.
          5    1    3    3  501    0  0.22772500930E+02 -0.60143865977E+02  0.27978175857E+02  0.70290395770E+02  0.47000000000E+01 0. -1.
        -13    1    4    4    0    0 -0.29927295425E+02  0.48441892861E+02 -0.13861432639E+02  0.58603748260E+02  0.00000000000E+00 0.  1.
         14    1    4    4    0    0 -0.30390980996E+02 -0.17955811846E+02 -0.42127833924E+02  0.54961598376E+02  0.00000000000E+00 0. -1.
         -5    1    5    5    0  502 -0.43066503745E+01  0.39595117029E+02 -0.30314992304E+02  0.50273345705E+02  0.47000000000E+01 0.  1.
         11    1    6    6    0    0 -0.83597769570E+01 -0.34803648959E+02  0.30738634950E+02  0.47180965761E+02  0.00000000000E+00 0. -1.
        -12    1    6    6    0    0  0.50212202822E+02  0.24866316892E+02  0.80444395132E+02  0.98035196415E+02  0.00000000000E+00 0.  1.
</event>
<event>
12    1  0.1598254E-001  0.2050697E+03  0.7818608E-02  0.1145596E+00
         21   -1    0    0  503  502  0.00000000000E+00  0.00000000000E+00  0.26703798655E+03  0.26703798655E+03  0.00000000000E+00 0. -1.
         21   -1    0    0  501  503 -0.00000000000E+00 -0.00000000000E+00 -0.30920321773E+03  0.30920321773E+03  0.00000000000E+00 0. -1.
          6    2    1    2  501    0  0.81407133857E+01 -0.11137039174E+03 -0.22306270900E+03  0.30278648010E+03  0.17161889470E+03 0.  0.
         24    2    3    3    0    0  0.27122361568E+02 -0.33747894615E+02 -0.38330606055E+02  0.10145691227E+03  0.83365021431E+02 0.  0.
         -6    2    1    2    0  502 -0.81407133857E+01  0.11137039174E+03  0.18089747782E+03  0.27345472418E+03  0.17199986431E+03 0.  0.
        -24    2    5    5    0    0  0.40647904049E+02  0.55198800588E+02  0.40075195088E+02  0.11411677466E+03  0.81960095818E+02 0.  0.
          5    1    3    3  501    0 -0.18981648182E+02 -0.77622497123E+02 -0.18473210294E+03  0.20132956783E+03  0.47000000000E+01 0. -1.
        -11    1    4    4    0    0  0.48956532429E+02 -0.76081424935E+00 -0.37864859086E+02  0.61895625527E+02  0.00000000000E+00 0.  1.
         12    1    4    4    0    0 -0.21834170861E+02 -0.32987080366E+02 -0.46574696877E+00  0.39561286740E+02  0.00000000000E+00 0. -1.
         -5    1    5    5    0  502 -0.48788617435E+02  0.56171591150E+02  0.14082228273E+03  0.15933794952E+03  0.47000000000E+01 0.  1.
         11    1    6    6    0    0 -0.13802080404E+02  0.43341958626E+02  0.36421150461E+02  0.58271116361E+02  0.00000000000E+00 0. -1.
        -12    1    6    6    0    0  0.54449984453E+02  0.11856841962E+02  0.36540446271E+01  0.55845658295E+02  0.00000000000E+00 0.  1.
</event>
<event>
12    1  0.1598254E-001  0.1874377E+03  0.7818608E-02  0.1162101E+00
         21   -1    0    0  501  502  0.00000000000E+00  0.00000000000E+00  0.14035260614E+03  0.14035260614E+03  0.00000000000E+00 0. -1.
         21   -1    0    0  502  503 -0.00000000000E+00 -0.00000000000E+00 -0.28636169312E+03  0.28636169312E+03  0.00000000000E+00 0. -1.
         -6    2    1    2    0  503 -0.54631474311E+02 -0.18856103712E+02 -0.15518984482E+03  0.23905186696E+03  0.17239998993E+03 0.  0.
        -24    2    3    3    0    0  0.25654883950E+01  0.40046078971E+02 -0.39105963976E+02  0.96789724913E+02  0.78922140485E+02 0.  0.
          6    2    1    2  501    0  0.54631474311E+02  0.18856103712E+02  0.91807578469E+01  0.18766243230E+03  0.17830522020E+03 0.  0.
         24    2    5    5    0    0 -0.27416510042E+02  0.27063618354E+02 -0.41052997919E+02  0.90994158025E+02  0.71487647152E+02 0.  0.
          5    1    5    5  501    0  0.82047984354E+02 -0.82075146422E+01  0.50233755766E+02  0.96668274276E+02  0.47000000000E+01 0. -1.
        -13    1    6    6    0    0 -0.40421006497E+02  0.40913220023E+02 -0.16275596423E+02  0.59771601767E+02  0.00000000000E+00 0.  1.
         14    1    6    6    0    0  0.13004496455E+02 -0.13849601669E+02 -0.24777401496E+02  0.31222556258E+02  0.00000000000E+00 0. -1.
         -5    1    3    3    0  503 -0.57196962706E+02 -0.58902182683E+02 -0.11608388084E+03  0.14226214205E+03  0.47000000000E+01 0.  1.
         11    1    4    4    0    0  0.39912665279E+02  0.21368924363E+02 -0.29202847927E+02  0.53874466171E+02  0.00000000000E+00 0. -1.
        -12    1    4    4    0    0 -0.37347176884E+02  0.18677154608E+02 -0.99031160486E+01  0.42915258743E+02  0.00000000000E+00 0.  1.
</event>
<event>
12    1  0.1598254E-001  0.1812551E+03  0.7818608E-02  0.1166844E+00
         21   -1    0    0  501  502  0.00000000000E+00  0.00000000000E+00  0.58930474524E+03  0.58930474524E+03  0.00000000000E+00 0. -1.
         21   -1    0    0  502  503 -0.00000000000E+00 -0.00000000000E+00 -0.10314307697E+03  0.10314307697E+03  0.00000000000E+00 0. -1.
         -6    2    1    2    0  503  0.48706103505E+02 -0.27587941339E+02  0.79760915978E+01  0.18143052362E+03  0.17239500525E+03 0.  0.
        -24    2    3    3    0    0  0.64154483929E+00 -0.20371109168E+02 -0.55297118575E+02  0.10150634960E+03  0.82646076849E+02 0.  0.
          6    2    1    2  501    0 -0.48706103505E+02  0.27587941339E+02  0.47818557667E+03  0.51101729859E+03  0.17130048073E+03 0.  0.
         24    2    5    5    0    0 -0.44324896323E+02 -0.49434918630E+02  0.28979852915E+03  0.30739145149E+03  0.78088471227E+02 0.  0.
          5    1    5    5  501    0 -0.43812071822E+01  0.77022859968E+02  0.18838704752E+03  0.20362584710E+03  0.47000000000E+01 0. -1.
        -13    1    6    6    0    0  0.11955980887E+02 -0.97268310309E+01  0.81343365575E+01  0.17427683498E+02  0.00000000000E+00 0.  1.
         14    1    6    6    0    0 -0.56280877209E+02 -0.39708087599E+02  0.28166419259E+03  0.28996376799E+03  0.00000000000E+00 0. -1.
         -5    1    3    3    0  503  0.48064558665E+02 -0.72168321708E+01  0.63273210172E+02  0.79924174014E+02  0.47000000000E+01 0.  1.
         13    1    4    4    0    0  0.20564883704E+02  0.23275268716E+02 -0.41013580435E+02  0.51446733188E+02  0.00000000000E+00 0. -1.
        -14    1    4    4    0    0 -0.19923338865E+02 -0.43646377883E+02 -0.14283538139E+02  0.50059616415E+02  0.00000000000E+00 0.  1.
</event>
<event>
12    1  0.1598254E-001  0.2308150E+03  0.7818608E-02  0.1126184E+00
         21   -1    0    0  503  502  0.00000000000E+00  0.00000000000E+00  0.32517653123E+03  0.32517653123E+03  0.00000000000E+00 0. -1.
         21   -1    0    0  501  503 -0.00000000000E+00 -0.00000000000E+00 -0.16696598793E+03  0.16696598793E+03  0.00000000000E+00 0. -1.
          6    2    1    2  501    0 -0.12667028186E+03 -0.86266074494E+02  0.11534878666E+03  0.25803279354E+03  0.17259311703E+03 0.  0.
         24    2    3    3    0    0 -0.48906224654E+02 -0.88465546253E+02  0.12873137463E+02  0.12928717247E+03  0.79570620283E+02 0.  0.
         -6    2    1    2    0  502  0.12667028186E+03  0.86266074494E+02  0.42861756639E+02  0.23410972562E+03  0.17170625362E+03 0.  0.
        -24    2    5    5    0    0  0.13306463517E+03  0.10363106235E+03  0.71536521850E+02  0.19966030302E+03  0.79379899398E+02 0.  0.
          5    1    3    3  501    0 -0.77764057206E+02  0.21994717595E+01  0.10247564919E+03  0.12874562108E+03  0.47000000000E+01 0. -1.
        -13    1    4    4    0    0 -0.52483698937E+02 -0.10196191698E+03  0.11844393781E+02  0.11528686323E+03  0.00000000000E+00 0.  1.
         14    1    4    4    0    0  0.35774742831E+01  0.13496370731E+02  0.10287436812E+01  0.14000309236E+02  0.00000000000E+00 0. -1.
         -5    1    5    5    0  502 -0.63943533065E+01 -0.17364987853E+02 -0.28674765211E+02  0.34449422597E+02  0.47000000000E+01 0.  1.
         11    1    6    6    0    0  0.11250340784E+03  0.43368937602E+02  0.60985042414E+02  0.13511867718E+03  0.00000000000E+00 0. -1.
        -12    1    6    6    0    0  0.20561227327E+02  0.60262124745E+02  0.10551479436E+02  0.64541625841E+02  0.00000000000E+00 0.  1.
</event>
<event>
12    1  0.1598254E-001  0.2448398E+03  0.7818608E-02  0.1117563E+00
         21   -1    0    0  503  502  0.00000000000E+00  0.00000000000E+00  0.20725657928E+03  0.20725657928E+03  0.00000000000E+00 0.  1.
         21   -1    0    0  501  503 -0.00000000000E+00 -0.00000000000E+00 -0.46320228171E+03  0.46320228171E+03  0.00000000000E+00 0. -1.
          6    2    1    2  501    0  0.11503534669E+03 -0.12038243286E+03 -0.33645110507E+03  0.41272325150E+03  0.17151115153E+03 0.  0.
         24    2    3    3    0    0  0.12218495252E+01 -0.13143613070E+02 -0.77944510373E+02  0.11056199305E+03  0.77293985081E+02 0.  0.
         -6    2    1    2    0  502 -0.11503534669E+03  0.12038243286E+03  0.80505402636E+02  0.25773560949E+03  0.17950337996E+03 0.  0.
        -24    2    5    5    0    0 -0.12826097551E+03  0.71872943277E+02  0.60583431313E+01  0.16777704955E+03  0.80596755647E+02 0.  0.
          5    1    3    3  501    0  0.11381349716E+03 -0.10723881979E+03 -0.25850659469E+03  0.30216125845E+03  0.47000000000E+01 0. -1.
        -13    1    4    4    0    0  0.85557334078E+01 -0.49441298619E+01 -0.92103310992E+02  0.92631878367E+02  0.00000000000E+00 0.  1.
         14    1    4    4    0    0 -0.73338838826E+01 -0.81994832084E+01  0.14158800618E+02  0.17930114686E+02  0.00000000000E+00 0. -1.
         -5    1    5    5    0  502  0.13225628824E+02  0.48509489587E+02  0.74447059504E+02  0.89958559941E+02  0.47000000000E+01 0.  1.
         11    1    6    6    0    0 -0.10362297709E+03  0.16574747792E+02 -0.92074830672E+01  0.10534335000E+03  0.00000000000E+00 0. -1.
        -12    1    6    6    0    0 -0.24637998421E+02  0.55298195485E+02  0.15265826198E+02  0.62433699551E+02  0.00000000000E+00 0.  1.
</event>
<event>
12    1  0.1598254E-001  0.3170915E+03  0.7818608E-02  0.1077095E+00
         21   -1    0    0  501  502  0.00000000000E+00  0.00000000000E+00  0.12554235443E+03  0.12554235443E+03  0.00000000000E+00 0.  1.
         21   -1    0    0  502  503 -0.00000000000E+00 -0.00000000000E+00 -0.96223920985E+03  0.96223920985E+03  0.00000000000E+00 0. -1.
         -6    2    1    2    0  503 -0.21035055676E+03  0.16183727998E+03 -0.64207401026E+03  0.71572635689E+03  0.17194918250E+03 0.  0.
        -24    2    3    3    0    0 -0.21310607008E+03  0.11338248032E+03 -0.44312966338E+03  0.51089373346E+03  0.79866916610E+02 0.  0.
          6    2    1    2  501    0  0.21035055676E+03 -0.16183727998E+03 -0.19462284516E+03  0.37205520740E+03  0.17351761748E+03 0.  0.
         24    2    5    5    0    0  0.20941985619E+03 -0.17710171325E+03 -0.14621098841E+03  0.32106827770E+03  0.80532557481E+02 0.  0.
          5    1    5    5  501    0  0.93070057698E+00  0.15264433263E+02 -0.48411856751E+02  0.50986929702E+02  0.47000000000E+01 0. -1.
        -13    1    6    6    0    0  0.12596201994E+03 -0.90881487403E+02 -0.38981546781E+02  0.16014192520E+03  0.00000000000E+00 0.  1.
         14    1    6    6    0    0  0.83457836251E+02 -0.86220225844E+02 -0.10722944162E+03  0.16092635250E+03  0.00000000000E+00 0. -1.
         -5    1    3    3    0  503  0.27555133179E+01  0.48454799660E+02 -0.19894434688E+03  0.20483262343E+03  0.47000000000E+01 0.  1.
         11    1    4    4    0    0 -0.20986062906E+02  0.42909007568E+02 -0.11011556021E+03  0.12002930628E+03  0.00000000000E+00 0. -1.
        -12    1    4    4    0    0 -0.19212000717E+03  0.70473472755E+02 -0.33301410317E+03  0.39086442717E+03  0.00000000000E+00 0.  1.
</event>
<event>
12    1  0.1598254E-001  0.2178969E+03  0.7818608E-02  0.1135514E+00
         21   -1    0    0  503  502  0.00000000000E+00  0.00000000000E+00  0.17432773191E+03  0.17432773191E+03  0.00000000000E+00 0. -1.
         21   -1    0    0  501  503 -0.00000000000E+00 -0.00000000000E+00 -0.27878120263E+03  0.27878120263E+03  0.00000000000E+00 0. -1.
          6    2    1    2  501    0 -0.13186899433E+03 -0.18951734808E+02 -0.87593239650E+02  0.23484385840E+03  0.17242523679E+03 0.  0.
         24    2    3    3    0    0 -0.32061412811E+02 -0.65561700917E+02 -0.45643625131E+02  0.11687817514E+03  0.79062611208E+02 0.  0.
         -6    2    1    2    0  502  0.13186899433E+03  0.18951734808E+02 -0.16860231078E+02  0.21826507613E+03  0.17206619700E+03 0.  0.
        -24    2    5    5    0    0  0.14102919651E+03 -0.10635343657E+02 -0.50337294842E+02  0.17241632136E+03  0.84800942314E+02 0.  0.
          5    1    3    3  501    0 -0.99807581519E+02  0.46609966109E+02 -0.41949614519E+02  0.11796568326E+03  0.47000000000E+01 0. -1.
        -11    1    4    4    0    0 -0.31993600161E+02 -0.44734869365E+00  0.74602641599E+01  0.32854925254E+02  0.00000000000E+00 0.  1.
         12    1    4    4    0    0 -0.67812650137E-01 -0.65114352223E+02 -0.53103889291E+02  0.84023249888E+02  0.00000000000E+00 0. -1.
         -5    1    5    5    0  502 -0.91602021767E+01  0.29587078465E+02  0.33477063764E+02  0.45848754773E+02  0.47000000000E+01 0.  1.
         13    1    6    6    0    0  0.12959593252E+03 -0.10583023366E+01 -0.70345591846E+02  0.14746093727E+03  0.00000000000E+00 0. -1.
        -14    1    6    6    0    0  0.11433263985E+02 -0.95770413205E+01  0.20008297004E+02  0.24955384085E+02  0.00000000000E+00 0.  1.
</event>
<event>
12    1  0.1598254E-001  0.1729009E+03  0.7818608E-02  0.1174947E+00
         21   -1    0    0  501  502  0.00000000000E+00  0.00000000000E+00  0.13350782210E+04  0.13350782210E+04  0.00000000000E+00 0. -1.
         21   -1    0    0  502  503 -0.00000000000E+00 -0.00000000000E+00 -0.28960583587E+02  0.28960583587E+02  0.00000000000E+00 0. -1.
         -6    2    1    2    0  503  0.77493477658E+01 -0.97993296639E+01  0.32762081096E+03  0.37044585528E+03  0.17244899728E+03 0.  0.
        -24    2    3    3    0    0 -0.19795026001E+02 -0.67495709639E+02  0.22520362726E+03  0.24961980549E+03  0.81522142327E+02 0.  0.
          6    2    1    2  501    0 -0.77493477658E+01  0.97993296639E+01  0.97849682646E+03  0.99359294932E+03  0.17208959961E+03 0.  0.
         24    2    5    5    0    0  0.28369354418E+02  0.28214089593E+02  0.27239065642E+03  0.28630822773E+03  0.78580382015E+02 0.  0.
          5    1    5    5  501    0 -0.36118702184E+02 -0.18414759929E+02  0.70610617004E+03  0.70728472159E+03  0.47000000000E+01 0. -1.
        -11    1    6    6    0    0 -0.21193504059E+02 -0.75168847759E+01  0.12065990382E+03  0.12273744563E+03  0.00000000000E+00 0.  1.
         12    1    6    6    0    0  0.49562858478E+02  0.35730974369E+02  0.15173075260E+03  0.16357078210E+03  0.00000000000E+00 0. -1.
         -5    1    3    3    0  503  0.27544373767E+02  0.57696379975E+02  0.10241718371E+03  0.12082604979E+03  0.47000000000E+01 0.  1.
         11    1    4    4    0    0 -0.27941341741E+02 -0.57835948672E+02  0.74412835322E+02  0.98300486254E+02  0.00000000000E+00 0. -1.
        -12    1    4    4    0    0  0.81463157392E+01 -0.96597609672E+01  0.15079079193E+03  0.15131931924E+03  0.00000000000E+00 0.  1.
</event>
<event>
12    1  0.1598254E-001  0.2271995E+03  0.7818608E-02  0.1128911E+00
         21   -1    0    0  501  502  0.00000000000E+00  0.00000000000E+00  0.53998493965E+03  0.53998493965E+03  0.00000000000E+00 0. -1.
         21   -1    0    0  502  503 -0.00000000000E+00 -0.00000000000E+00 -0.13182720565E+03  0.13182720565E+03  0.00000000000E+00 0.  1.
         -6    2    1    2    0  503  0.59509967563E+02 -0.13517231860E+03  0.26879168460E+02  0.22878399343E+03  0.17264597881E+03 0.  0.
        -24    2    3    3    0    0  0.10688246260E+03 -0.83461978821E+02  0.19540307255E+02  0.15811531996E+03  0.78923178337E+02 0.  0.
          6    2    1    2  501    0 -0.59509967563E+02  0.13517231860E+03  0.38127856553E+03  0.44302815187E+03  0.17055089227E+03 0.  0.
         24    2    5    5    0    0 -0.89014421679E+02  0.13584339099E+03  0.24710405122E+03  0.30556596272E+03  0.77026951815E+02 0.  0.
          5    1    5    5  501    0  0.29504454116E+02 -0.67107238572E+00  0.13417451432E+03  0.13746218914E+03  0.47000000000E+01 0. -1.
        -11    1    6    6    0    0 -0.47521783171E+02  0.35707883487E+02  0.39501760452E+02  0.71370595469E+02  0.00000000000E+00 0.  1.
         12    1    6    6    0    0 -0.41492638508E+02  0.10013550750E+03  0.20760229076E+03  0.23419536725E+03  0.00000000000E+00 0. -1.
         -5    1    3    3    0  503 -0.47372495037E+02 -0.51710339783E+02  0.73388612058E+01  0.70668673472E+02  0.47000000000E+01 0.  1.
         11    1    4    4    0    0  0.51832073983E+02 -0.42456186850E+02 -0.30051397498E+02  0.73431452299E+02  0.00000000000E+00 0. -1.
        -12    1    4    4    0    0  0.55050388617E+02 -0.41005791970E+02  0.49591704752E+02  0.84683867662E+02  0.00000000000E+00 0.  1.
</event>
<event>
12    1  0.1598254E-001  0.1900930E+03  0.7818608E-02  0.1158486E+00
         21   -1    0    0  503  502  0.00000000000E+00  0.00000000000E+00  0.27386664691E+03  0.27386664691E+03  0.00000000000E+00 0.  1.
         21   -1    0    0  501  503 -0.00000000000E+00 -0.00000000000E+00 -0.21394617003E+03  0.21394617003E+03  0.00000000000E+00 0.  1.
          6    2    1    2  501    0  0.71706899313E+02 -0.41957560515E+02 -0.12136988106E+03  0.22513136421E+03  0.17044402843E+03 0.  0.
         24    2    3    3    0    0  0.56377580240E+02 -0.90541680593E+02 -0.63629268563E+02  0.14798557315E+03  0.80466257299E+02 0.  0.
         -6    2    1    2    0  502 -0.71706899313E+02  0.41957560515E+02  0.18129035794E+03  0.26268145272E+03  0.17097671020E+03 0.  0.
        -24    2    5    5    0    0  0.28497867303E+02  0.21695443597E+02  0.67073538094E+02  0.10932200381E+03  0.78546930504E+02 0.  0.
          5    1    3    3  501    0  0.15329319073E+02  0.48584120078E+02 -0.57740612500E+02  0.77145791064E+02  0.47000000000E+01 0. -1.
        -11    1    4    4    0    0  0.37112321778E+02 -0.19899014127E+02 -0.61746260923E+02  0.74738851536E+02  0.00000000000E+00 0.  1.
         12    1    4    4    0    0  0.19265258462E+02 -0.70642666466E+02 -0.18830076403E+01  0.73246721611E+02  0.00000000000E+00 0. -1.
         -5    1    5    5    0  502 -0.10020476662E+03  0.20262116918E+02  0.11421681985E+03  0.15335944891E+03  0.47000000000E+01 0.  1.
         13    1    6    6    0    0  0.22357782355E+02 -0.21006826808E+02  0.57438260400E+02  0.65117670122E+02  0.00000000000E+00 0. -1.
        -14    1    6    6    0    0  0.61400849476E+01  0.42702270404E+02  0.96352776947E+01  0.44204333691E+02  0.00000000000E+00 0.  1.
</event>
<event>
12    1  0.1598254E-001  0.1921785E+03  0.7818608E-02  0.1157273E+00
         21   -1    0    0  503  502  0.00000000000E+00  0.00000000000E+00  0.37861228272E+03  0.37861228272E+03  0.00000000000E+00 0.  1.
         21   -1    0    0  501  503 -0.00000000000E+00 -0.00000000000E+00 -0.14612843819E+03  0.14612843819E+03  0.00000000000E+00 0.  1.
          6    2    1    2  501    0  0.76457544247E+02  0.17617662775E+02 -0.37003725423E+02  0.19570859833E+03  0.17543215683E+03 0.  0.
         24    2    3    3    0    0 -0.78133470439E+01 -0.37574302163E+02 -0.14131746601E+02  0.92301860018E+02  0.82746906442E+02 0.  0.
         -6    2    1    2    0  502 -0.76457544247E+02 -0.17617662775E+02  0.26948756995E+03  0.32903212259E+03  0.17170454049E+03 0.  0.
        -24    2    5    5    0    0 -0.43663228698E+02  0.56304045667E+02  0.17139546415E+03  0.20181562472E+03  0.79224479476E+02 0.  0.
          5    1    3    3  501    0  0.84270891291E+02  0.55191964938E+02 -0.22871978822E+02  0.10340673831E+03  0.47000000000E+01 0. -1.
        -13    1    4    4    0    0  0.34965108307E+02 -0.15942762554E+02  0.83973985271E+01  0.39335057884E+02  0.00000000000E+00 0.  1.
         14    1    4    4    0    0 -0.42778455351E+02 -0.21631539609E+02 -0.22529145128E+02  0.52966802134E+02  0.00000000000E+00 0. -1.
         -5    1    5    5    0  502 -0.32794315550E+02 -0.73921708442E+02  0.98092105795E+02  0.12721649787E+03  0.47000000000E+01 0.  1.
         13    1    6    6    0    0 -0.29401664053E+02  0.38031151616E+01  0.96684002338E+01  0.31183320816E+02  0.00000000000E+00 0. -1.
        -14    1    6    6    0    0 -0.14261564645E+02  0.52500930506E+02  0.16172706392E+03  0.17063230390E+03  0.00000000000E+00 0.  1.
</event>
<event>
12    1  0.1598254E-001  0.1803925E+03  0.7818608E-02  0.1167516E+00
         21   -1    0    0  501  502  0.00000000000E+00  0.00000000000E+00  0.60289438402E+02  0.60289438402E+02  0.00000000000E+00 0.  1.
         21   -1    0    0  502  503 -0.00000000000E+00 -0.00000000000E+00 -0.55367742327E+03  0.55367742327E+03  0.00000000000E+00 0.  1.
         -6    2    1    2    0  503  0.25618528759E+02 -0.51987891486E+02 -0.29758391445E+03  0.34799088760E+03  0.17082863295E+03 0.  0.
        -24    2    3    3    0    0  0.77599341586E+01 -0.11293496006E+02 -0.29188245458E+03  0.30294025087E+03  0.79935403142E+02 0.  0.
          6    2    1    2  501    0 -0.25618528759E+02  0.51987891486E+02 -0.19580407042E+03  0.26597597407E+03  0.17042574604E+03 0.  0.
         24    2    5    5    0    0 -0.80402618684E+02  0.17503661009E+02 -0.13336862434E+03  0.17591636277E+03  0.79927576545E+02 0.  0.
          5    1    5    5  501    0  0.54784089925E+02  0.34484230477E+02 -0.62435446078E+02  0.90059611300E+02  0.47000000000E+01 0. -1.
        -11    1    6    6    0    0 -0.58761515815E+01  0.24110716410E+02 -0.80671369866E+02  0.84402166555E+02  0.00000000000E+00 0.  1.
         12    1    6    6    0    0 -0.74526467103E+02 -0.66070554011E+01 -0.52697254474E+02  0.91514196215E+02  0.00000000000E+00 0. -1.
         -5    1    3    3    0  503  0.17858594600E+02 -0.40694395480E+02 -0.57014598629E+01  0.45050636723E+02  0.47000000000E+01 0.  1.
         11    1    4    4    0    0  0.27866307911E+02  0.26118469597E+02 -0.15394017691E+03  0.15860732530E+03  0.00000000000E+00 0. -1.
        -12    1    4    4    0    0 -0.20106373753E+02 -0.37411965603E+02 -0.13794227767E+03  0.14433292557E+03  0.00000000000E+00 0.  1.
</event>
<event>
12    1  0.1598254E-001  0.1902353E+03  0.7818608E-02  0.1158897E+00
         21   -1    0    0  503  502  0.00000000000E+00  0.00000000000E+00  0.36789294234E+03  0.36789294234E+03  0.00000000000E+00 0.  1.
         21   -1    0    0  501  503 -0.00000000000E+00 -0.00000000000E+00 -0.18852576576E+03  0.18852576576E+03  0.00000000000E+00 0.  1.
          6    2    1    2  501    0  0.41016004759E+02 -0.63766470255E+02  0.28328616413E+03  0.33965007426E+03  0.17135532319E+03 0.  0.
         24    2    3    3    0    0  0.81376668457E+02 -0.68475176007E+02  0.26068659774E+03  0.29291694378E+03  0.80819687036E+02 0.  0.
         -6    2    1    2    0  502 -0.41016004759E+02  0.63766470255E+02 -0.10391898755E+03  0.21676863384E+03  0.17447352024E+03 0.  0.
        -24    2    5    5    0    0 -0.23775989797E+02 -0.34267051454E+02 -0.43414781712E+02  0.10018974030E+03  0.80085031583E+02 0.  0.
          5    1    3    3  501    0 -0.40360663698E+02  0.47087057525E+01  0.22599566392E+02  0.46733130487E+02  0.47000000000E+01 0. -1.
        -11    1    4    4    0    0  0.21851028965E+02 -0.49329768568E+02  0.19458579584E+03  0.20192703008E+03  0.00000000000E+00 0.  1.
         12    1    4    4    0    0  0.59525639492E+02 -0.19145407439E+02  0.66100801896E+02  0.90989913695E+02  0.00000000000E+00 0. -1.
         -5    1    5    5    0  502 -0.17240014962E+02  0.98033521708E+02 -0.60504205840E+02  0.11657889354E+03  0.47000000000E+01 0.  1.
         11    1    6    6    0    0 -0.50130556638E+02 -0.60636467174E+01 -0.32592614860E+02  0.60100907345E+02  0.00000000000E+00 0. -1.
        -12    1    6    6    0    0  0.26354566841E+02 -0.28203404736E+02 -0.10822166852E+02  0.40088832952E+02  0.00000000000E+00 0.  1.
</event>
<event>
12    1  0.1598254E-001  0.2058541E+03  0.7818608E-02  0.1145487E+00
         21   -1    0    0  503  502  0.00000000000E+00  0.00000000000E+00  0.19189158648E+03  0.19189158648E+03  0.00000000000E+00 0.  1.
         21   -1    0    0  501  503 -0.00000000000E+00 -0.00000000000E+00 -0.26317222687E+03  0.26317222687E+03  0.00000000000E+00 0.  1.
          6    2    1    2  501    0  0.39550619483E+02 -0.98304895932E+02 -0.12998052770E+03  0.24100405317E+03  0.17308931798E+03 0.  0.
         24    2    3    3    0    0  0.43289763924E+02 -0.12880879725E+03 -0.67596493038E+02  0.17130235321E+03  0.79432363903E+02 0.  0.
         -6    2    1    2    0  502 -0.39550619483E+02  0.98304895932E+02  0.58699887300E+02  0.21405976018E+03  0.17648739359E+03 0.  0.
        -24    2    5    5    0    0 -0.21728769203E+02 -0.19216842218E+02  0.88313486781E+01  0.85071627281E+02  0.79484354516E+02 0.  0.
          5    1    3    3  501    0 -0.37391444404E+01  0.30503901320E+02 -0.62384034658E+02  0.69701699958E+02  0.47000000000E+01 0. -1.
        -11    1    4    4    0    0  0.60994423031E+02 -0.63854488950E+02 -0.50956982573E+02  0.10195258443E+03  0.00000000000E+00 0.  1.
         12    1    4    4    0    0 -0.17704659107E+02 -0.64954308302E+02 -0.16639510465E+02  0.69349768778E+02  0.00000000000E+00 0. -1.
         -5    1    5    5    0  502 -0.17821850280E+02  0.11752173815E+03  0.49868538622E+02  0.12898813290E+03  0.47000000000E+01 0.  1.
         11    1    6    6    0    0 -0.15305625320E+02  0.46984148680E+00  0.42706263390E+02  0.45368577784E+02  0.00000000000E+00 0. -1.
        -12    1    6    6    0    0 -0.64231438831E+01 -0.19686683705E+02 -0.33874914712E+02  0.39703049497E+02  0.00000000000E+00 0.  1.
</event>
<event>
12    1  0.1598254E-001  0.1735532E+03  0.7818608E-02  0.1174442E+00
         21   -1    0    0  503  502  0.00000000000E+00  0.00000000000E+00  0.10497657656E+04  0.10497657656E+04  0.00000000000E+00 0.  1.
         21   -1    0    0  501  503 -0.00000000000E+00 -0.00000000000E+00 -0.29192849541E+02  0.29192849541E+02  0.00000000000E+00 0.  1.
          6    2    1    2  501    0 -0.27608979469E+02 -0.12932884985E+02  0.59295582144E+03  0.61783276488E+03  0.17085433538E+03 0.  0.
         24    2    3    3    0    0 -0.81144884415E+02 -0.28153815089E+02  0.39767807436E+03  0.41472378345E+03  0.80441507713E+02 0.  0.
         -6    2    1    2    0  502  0.27608979469E+02  0.12932884985E+02  0.42761709465E+03  0.46112585029E+03  0.16985627722E+03 0.  0.
        -24    2    5    5    0    0 -0.38573712922E+02  0.41783947068E+02  0.21107010004E+03  0.23281197986E+03  0.80106187507E+02 0.  0.
          5    1    3    3  501    0  0.53535904946E+02  0.15220930104E+02  0.19527774708E+03  0.20310898143E+03  0.47000000000E+01 0. -1.
        -11    1    4    4    0    0  0.73800914813E+01 -0.67140696318E+01  0.15811417609E+03  0.15842865007E+03  0.00000000000E+00 0.  1.
         12    1    4    4    0    0 -0.88524975896E+02 -0.21439745457E+02  0.23956389827E+03  0.25629513339E+03  0.00000000000E+00 0. -1.
         -5    1    5    5    0  502  0.66182692391E+02 -0.28851062083E+02  0.21654699461E+03  0.22831387043E+03  0.47000000000E+01 0.  1.
         13    1    6    6    0    0 -0.16655038551E+02 -0.26355641233E+01  0.16272585316E+03  0.16359718761E+03  0.00000000000E+00 0. -1.
        -14    1    6    6    0    0 -0.21918674370E+02  0.44419511191E+02  0.48344246882E+02  0.69214792257E+02  0.00000000000E+00 0.  1.
</event>
<event>
12    1  0.1598254E-001  0.2068948E+03  0.7818608E-02  0.1144118E+00
         21   -1    0    0  501  502  0.00000000000E+00  0.00000000000E+00  0.12493563071E+04  0.12493563071E+04  0.00000000000E+00 0.  1.
         21   -1    0    0  502  503 -0.00000000000E+00 -0.00000000000E+00 -0.35865967258E+02  0.35865967258E+02  0.00000000000E+00 0. -1.
         -6    2    1    2    0  503 -0.59093227701E+01  0.11488407268E+03  0.46895473600E+03  0.51256611096E+03  0.17196570425E+03 0.  0.
        -24    2    3    3    0    0  0.61248463147E+02  0.66171620318E+02  0.32186556654E+03  0.34362711310E+03  0.79700014828E+02 0.  0.
          6    2    1    2  501    0  0.59093227701E+01 -0.11488407268E+03  0.74453560383E+03  0.77265616338E+03  0.17155468863E+03 0.  0.
         24    2    5    5    0    0 -0.30300636709E+02 -0.35164989600E+02  0.19242946777E+03  0.21363061044E+03  0.80338238533E+02 0.  0.
          5    1    5    5  501    0  0.36209959479E+02 -0.79719083082E+02  0.55210613606E+03  0.55902555295E+03  0.47000000000E+01 0. -1.
        -11    1    6    6    0    0 -0.14932431283E+02 -0.54130026898E+02  0.17458678698E+03  0.18339461144E+03  0.00000000000E+00 0.  1.
         12    1    6    6    0    0 -0.15368205426E+02  0.18965037298E+02  0.17842680789E+02  0.30235998999E+02  0.00000000000E+00 0. -1.
         -5    1    3    3    0  503 -0.67157785917E+02  0.48712452364E+02  0.14708916946E+03  0.16893899786E+03  0.47000000000E+01 0.  1.
         11    1    4    4    0    0  0.53617176730E+02  0.49996750599E+02  0.11759504567E+03  0.13857514740E+03  0.00000000000E+00 0. -1.
        -12    1    4    4    0    0  0.76312864164E+01  0.16174869720E+02  0.20427052087E+03  0.20505196570E+03  0.00000000000E+00 0.  1.
</event>
<event>
12    1  0.1598254E-001  0.3385128E+03  0.7818608E-02  0.1067460E+00
         21   -1    0    0  503  502  0.00000000000E+00  0.00000000000E+00  0.16174136681E+03  0.16174136681E+03  0.00000000000E+00 0.  1.
         21   -1    0    0  501  503 -0.00000000000E+00 -0.00000000000E+00 -0.96283765505E+03  0.96283765505E+03  0.00000000000E+00 0.  1.
          6    2    1    2  501    0  0.24429063740E+03  0.15835056647E+03 -0.11133770067E+03  0.35635232177E+03  0.17273701461E+03 0.  0.
         24    2    3    3    0    0  0.25986345545E+03  0.15393421586E+03 -0.83564615090E+02  0.32386461491E+03  0.81734237659E+02 0.  0.
         -6    2    1    2    0  502 -0.24429063740E+03 -0.15835056647E+03 -0.68975858757E+03  0.76822670009E+03  0.17219911782E+03 0.  0.
        -24    2    5    5    0    0 -0.70719817568E+02 -0.94395786993E+02 -0.39501505787E+03  0.42021393938E+03  0.81430962816E+02 0.  0.
          5    1    3    3  501    0 -0.15572818043E+02  0.44163506116E+01 -0.27773085581E+02  0.32487706862E+02  0.47000000000E+01 0. -1.
        -13    1    4    4    0    0  0.10456633715E+03  0.10043957873E+03 -0.63872712057E+02  0.15843595295E+03  0.00000000000E+00 0.  1.
         14    1    4    4    0    0  0.15529711830E+03  0.53494637128E+02 -0.19691903033E+02  0.16542866196E+03  0.00000000000E+00 0. -1.
         -5    1    5    5    0  502 -0.17357081984E+03 -0.63954779481E+02 -0.29474352970E+03  0.34801276071E+03  0.47000000000E+01 0.  1.
         13    1    6    6    0    0 -0.84111139981E+02 -0.87183676942E+02 -0.29276955885E+03  0.31684332403E+03  0.00000000000E+00 0. -1.
        -14    1    6    6    0    0  0.13391322413E+02 -0.72121100505E+01 -0.10224549903E+03  0.10337061535E+03  0.00000000000E+00 0.  1.
</event>
<event>
12    1  0.1598254E-001  0.2036562E+03  0.7818608E-02  0.1146826E+00
         21   -1    0    0  501  502  0.00000000000E+00  0.00000000000E+00  0.43663272070E+02  0.43663272070E+02  0.00000000000E+00 0. -1.
         21   -1    0    0  502  503 -0.00000000000E+00 -0.00000000000E+00 -0.10689721900E+04  0.10689721900E+04  0.00000000000E+00 0. -1.
         -6    2    1    2    0  503  0.10751306750E+03 -0.14834044870E+02 -0.69996612851E+03  0.72880768639E+03  0.17154869311E+03 0.  0.
        -24    2    3    3    0    0 -0.31301447914E+01  0.52551523475E+01 -0.40539632712E+03  0.41346825948E+03  0.81070371440E+02 0.  0.
          6    2    1    2  501    0 -0.10751306750E+03  0.14834044870E+02 -0.32534278944E+03  0.38382777570E+03  0.17232736924E+03 0.  0.
         24    2    5    5    0    0 -0.17197431548E+02  0.57989531947E+02 -0.18861624700E+03  0.21431214937E+03  0.81823415167E+02 0.  0.
          5    1    5    5  501    0 -0.90315635949E+02 -0.43155487078E+02 -0.13672654244E+03  0.16951562633E+03  0.47000000000E+01 0. -1.
        -11    1    6    6    0    0 -0.17414896799E+02  0.73758971374E+02 -0.18211269582E+03  0.19725287949E+03  0.00000000000E+00 0.  1.
         12    1    6    6    0    0  0.21746525166E+00 -0.15769439427E+02 -0.65035511786E+01  0.17059269882E+02  0.00000000000E+00 0. -1.
         -5    1    3    3    0  503  0.11064321229E+03 -0.20089197217E+02 -0.29456980140E+03  0.31533942691E+03  0.47000000000E+01 0.  1.
         13    1    4    4    0    0  0.23050509361E+02  0.32191099941E+02 -0.14235299628E+03  0.14775644977E+03  0.00000000000E+00 0. -1.
        -14    1    4    4    0    0 -0.26180654152E+02 -0.26935947594E+02 -0.26304333084E+03  0.26571180971E+03  0.00000000000E+00 0.  1.
</event>
<event>
12    1  0.1598254E-001  0.1766471E+03  0.7818608E-02  0.1171240E+00
         21   -1    0    0  503  502  0.00000000000E+00  0.00000000000E+00  0.30684805649E+02  0.30684805649E+02  0.00000000000E+00 0. -1.
         21   -1    0    0  501  503 -0.00000000000E+00 -0.00000000000E+00 -0.13460836720E+04  0.13460836720E+04  0.00000000000E+00 0. -1.
          6    2    1    2  501    0  0.43763365754E+00 -0.36335106470E+02 -0.10007756005E+04  0.10162460323E+04  0.17286921079E+03 0.  0.
         24    2    3    3    0    0  0.16343146716E+02 -0.89305003983E+02 -0.71093273472E+03  0.72113626924E+03  0.79810295883E+02 0.  0.
         -6    2    1    2    0  502 -0.43763365754E+00  0.36335106470E+02 -0.31462326586E+03  0.36052244540E+03  0.17224460146E+03 0.  0.
        -24    2    5    5    0    0  0.63799354127E+02  0.38193937530E+02 -0.17343345664E+03  0.20532419129E+03  0.80930372506E+02 0.  0.
          5    1    3    3  501    0 -0.15905513058E+02  0.52969897513E+02 -0.28984286579E+03  0.29510976303E+03  0.47000000000E+01 0. -1.
        -11    1    4    4    0    0  0.32061579193E+02 -0.29448025802E+02 -0.13400528559E+03  0.14089906902E+03  0.00000000000E+00 0.  1.
         12    1    4    4    0    0 -0.15718432477E+02 -0.59856978181E+02 -0.57692744913E+03  0.58023720022E+03  0.00000000000E+00 0. -1.
         -5    1    5    5    0  502 -0.64236987784E+02 -0.18588310598E+01 -0.14118980921E+03  0.15519825411E+03  0.47000000000E+01 0.  1.
         11    1    6    6    0    0  0.52250011955E+02  0.61051824728E+02 -0.15197675588E+03  0.17191370911E+03  0.00000000000E+00 0. -1.
        -12    1    6    6    0    0  0.11549342171E+02 -0.22857887198E+02 -0.21456700761E+02  0.33410482177E+02  0.00000000000E+00 0.  1.
</event>
<event>
12    1  0.1598254E-001  0.1938777E+03  0.7818608E-02  0.1155406E+00
         21   -1    0    0  501  502  0.00000000000E+00  0.00000000000E+00  0.10850001916E+04  0.10850001916E+04  0.00000000000E+00 0.  1.
         21   -1    0    0  502  503 -0.00000000000E+00 -0.00000000000E+00 -0.38523816096E+02  0.38523816096E+02  0.00000000000E+00 0.  1.
         -6    2    1    2    0  503  0.86845832700E+02  0.89741283951E+01  0.33992531797E+03  0.39132821872E+03  0.17310638154E+03 0.  0.
        -24    2    3    3    0    0  0.10491166262E+03 -0.35056503385E+02  0.29816459785E+03  0.32783712886E+03  0.79621857989E+02 0.  0.
          6    2    1    2  501    0 -0.86845832700E+02 -0.89741283951E+01  0.70655105756E+03  0.73219578900E+03  0.17109512809E+03 0.  0.
         24    2    5    5    0    0  0.64398332533E+01 -0.26094711640E+02  0.20675951306E+03  0.22346304208E+03  0.80397944656E+02 0.  0.
          5    1    5    5  501    0 -0.93285665953E+02  0.17120583245E+02  0.49979154450E+03  0.50873274693E+03  0.47000000000E+01 0. -1.
        -11    1    6    6    0    0 -0.21487292424E+02 -0.16267088122E+02  0.18440886768E+03  0.18636778791E+03  0.00000000000E+00 0.  1.
         12    1    6    6    0    0  0.27927125677E+02 -0.98276235182E+01  0.22350645378E+02  0.37095254163E+02  0.00000000000E+00 0. -1.
         -5    1    3    3    0  503 -0.18065829923E+02  0.44030631780E+02  0.41760720125E+02  0.63491089856E+02  0.47000000000E+01 0.  1.
         13    1    4    4    0    0  0.52822671429E+02 -0.58463322213E+02  0.16047271978E+03  0.17877272849E+03  0.00000000000E+00 0. -1.
        -14    1    4    4    0    0  0.52088991195E+02  0.23406818828E+02  0.13769187807E+03  0.14906440037E+03  0.00000000000E+00 0.  1.
</event>
<event>
12    1  0.1598254E-001  0.1755985E+03  0.7818608E-02  0.1172207E+00
         21   -1    0    0  501  502  0.00000000000E+00  0.00000000000E+00  0.72065967104E+03  0.72065967104E+03  0.00000000000E+00 0. -1.
         21   -1    0    0  502  503 -0.00000000000E+00 -0.00000000000E+00 -0.60097959153E+02  0.60097959153E+02  0.00000000000E+00 0. -1.
         -6    2    1    2    0  503 -0.32976530085E+02  0.17877791067E+02  0.54003841256E+03  0.56777708997E+03  0.17123746641E+03 0.  0.
        -24    2    3    3    0    0  0.37358700697E+02  0.32571038328E+00  0.39979442007E+03  0.40983536763E+03  0.82058952198E+02 0.  0.
          6    2    1    2  501    0  0.32976530085E+02 -0.17877791067E+02  0.12052329932E+03  0.21298054022E+03  0.17154526482E+03 0.  0.
         24    2    5    5    0    0  0.15038775163E+00  0.45744693673E+02  0.10401315179E+03  0.13935954351E+03  0.80683003209E+02 0.  0.
          5    1    5    5  501    0  0.32826142334E+02 -0.63622484740E+02  0.16510147533E+02  0.73620996710E+02  0.47000000000E+01 0. -1.
        -11    1    6    6    0    0 -0.39764048295E+02  0.16735936661E+02  0.53781982313E+02  0.68947608619E+02  0.00000000000E+00 0.  1.
         12    1    6    6    0    0  0.39914436047E+02  0.29008757012E+02  0.50231169478E+02  0.70411934894E+02  0.00000000000E+00 0. -1.
         -5    1    3    3    0  503 -0.70335230782E+02  0.17552080684E+02  0.14024399249E+03  0.15794172234E+03  0.47000000000E+01 0.  1.
         13    1    4    4    0    0  0.33029093615E+02 -0.49995290941E+01  0.50957691880E+02  0.60931130614E+02  0.00000000000E+00 0. -1.
        -14    1    4    4    0    0  0.43296070819E+01  0.53252394774E+01  0.34883672819E+03  0.34890423702E+03  0.00000000000E+00 0.  1.
</event>
<event>
12    1  0.1598254E-001  0.1734594E+03  0.7818608E-02  0.1174293E+00
         21   -1    0    0  503  502  0.00000000000E+00  0.00000000000E+00  0.10288558168E+03  0.10288558168E+03  0.00000000000E+00 0. -1.
         21   -1    0    0  501  503 -0.00000000000E+00 -0.00000000000E+00 -0.42003313792E+03  0.42003313792E+03  0.00000000000E+00 0. -1.
          6    2    1    2  501    0 -0.18751248532E+01  0.10301684770E+02 -0.30268858605E+03  0.34885775957E+03  0.17312341113E+03 0.  0.
         24    2    3    3    0    0  0.32265883713E+02  0.54492779377E+02 -0.12004902674E+03  0.15781389044E+03  0.80516488602E+02 0.  0.
         -6    2    1    2    0  502  0.18751248532E+01 -0.10301684770E+02 -0.14458970191E+02  0.17406096003E+03  0.17314304833E+03 0.  0.
        -24    2    5    5    0    0 -0.24882500426E+02  0.56775130329E+02  0.61073451786E+01  0.98825775695E+02  0.76724702835E+02 0.  0.
          5    1    3    3  501    0 -0.34141008566E+02 -0.44191094608E+02 -0.18263955931E+03  0.19104386913E+03  0.47000000000E+01 0. -1.
        -11    1    4    4    0    0 -0.20864879227E+01 -0.10436804733E+02 -0.65394253873E+02  0.66254726356E+02  0.00000000000E+00 0.  1.
         12    1    4    4    0    0  0.34352371636E+02  0.64929584110E+02 -0.54654772871E+02  0.91559164082E+02  0.00000000000E+00 0. -1.
         -5    1    5    5    0  502  0.26757625279E+02 -0.67076815098E+02 -0.20566315370E+02  0.75235184337E+02  0.47000000000E+01 0.  1.
         13    1    6    6    0    0 -0.30471458192E+02 -0.88063873855E+01  0.89123093062E+01  0.32946797724E+02  0.00000000000E+00 0. -1.
        -14    1    6    6    0    0  0.55889577660E+01  0.65581517714E+02 -0.28049641276E+01  0.65878977970E+02  0.00000000000E+00 0.  1.
</event>
<event>
12    1  0.1598254E-001  0.1889266E+03  0.7818608E-02  0.1159887E+00
         21   -1    0    0  501  502  0.00000000000E+00  0.00000000000E+00  0.51061708728E+03  0.51061708728E+03  0.00000000000E+00 0. -1.
         21   -1    0    0  502  503 -0.00000000000E+00 -0.00000000000E+00 -0.11562756474E+03  0.11562756474E+03  0.00000000000E+00 0. -1.
         -6    2    1    2    0  503 -0.57684440308E+02  0.50898049162E+02 -0.35847943202E+00  0.18892690151E+03  0.17255474361E+03 0.  0.
        -24    2    3    3    0    0 -0.58244408158E+02 -0.32746179355E+02  0.48327275746E+01  0.10498817887E+03  0.80835877566E+02 0.  0.
          6    2    1    2  501    0  0.57684440308E+02 -0.50898049162E+02  0.39534800197E+03  0.43731775052E+03  0.17037800971E+03 0.  0.
         24    2    5    5    0    0 -0.12013725486E+02 -0.59654400480E+01  0.27837379616E+03  0.29385406695E+03  0.93157534328E+02 0.  0.
          5    1    5    5  501    0  0.69698165794E+02 -0.44932609114E+02  0.11697420582E+03  0.14346368357E+03  0.47000000000E+01 0. -1.
        -11    1    6    6    0    0 -0.16552986007E+02  0.94995590117E+00  0.12721244293E+01  0.16628952538E+02  0.00000000000E+00 0.  1.
         12    1    6    6    0    0  0.45392605211E+01 -0.69153959491E+01  0.27710167173E+03  0.27722511441E+03  0.00000000000E+00 0. -1.
         -5    1    3    3    0  503  0.55996784999E+00  0.83644228518E+02 -0.51912070066E+01  0.83938722641E+02  0.47000000000E+01 0.  1.
         13    1    4    4    0    0 -0.60243927502E+01 -0.19127503334E+02 -0.33325453120E+02  0.38893965052E+02  0.00000000000E+00 0. -1.
        -14    1    4    4    0    0 -0.52220015408E+02 -0.13618676022E+02  0.38158180695E+02  0.66094213814E+02  0.00000000000E+00 0.  1.
</event>
<event>
12    1  0.1598254E-001  0.2230593E+03  0.7818608E-02  0.1131821E+00
         21   -1    0    0  503  502  0.00000000000E+00  0.00000000000E+00  0.37973410283E+03  0.37973410283E+03  0.00000000000E+00 0.  1.
         21   -1    0    0  501  503 -0.00000000000E+00 -0.00000000000E+00 -0.26368696990E+03  0.26368696990E+03  0.00000000000E+00 0.  1.
          6    2    1    2  501    0  0.95530800729E+02  0.10261375535E+03 -0.17077636007E+03  0.28007112879E+03  0.17210332752E+03 0.  0.
         24    2    3    3    0    0  0.24827612972E+02  0.88233138887E+02 -0.16955281110E+03  0.20775702255E+03  0.77545647869E+02 0.  0.
         -6    2    1    2    0  502 -0.95530800729E+02 -0.10261375535E+03  0.28682349301E+03  0.36334994395E+03  0.17349279221E+03 0.  0.
        -24    2    5    5    0    0 -0.78352343269E+02 -0.12167907218E+03  0.29321516735E+03  0.33648864823E+03  0.79401446604E+02 0.  0.
          5    1    3    3  501    0  0.70703187756E+02  0.14380616463E+02 -0.12235489767E+01  0.72314106237E+02  0.47000000000E+01 0. -1.
        -11    1    4    4    0    0  0.44531798636E+02  0.74778893836E+02 -0.15983394314E+03  0.18199410274E+03  0.00000000000E+00 0.  1.
         12    1    4    4    0    0 -0.19704185664E+02  0.13454245051E+02 -0.97188679571E+01  0.25762919806E+02  0.00000000000E+00 0. -1.
         -5    1    5    5    0  502 -0.17178457459E+02  0.19065316830E+02 -0.63916743421E+01  0.26861295713E+02  0.47000000000E+01 0.  1.
         13    1    6    6    0    0 -0.43657107492E+02 -0.39965879152E+02  0.49667665919E+02  0.77266367643E+02  0.00000000000E+00 0. -1.
        -14    1    6    6    0    0 -0.34695235778E+02 -0.81713193027E+02  0.24354750143E+03  0.25922228059E+03  0.00000000000E+00 0.  1.
</event>
<event>
12    1  0.1598254E-001  0.2923159E+03  0.7818608E-02  0.1089174E+00
         21   -1    0    0  501  502  0.00000000000E+00  0.00000000000E+00  0.53453744668E+02  0.53453744668E+02  0.00000000000E+00 0. -1.
         21   -1    0    0  502  503 -0.00000000000E+00 -0.00000000000E+00 -0.16676834499E+04  0.16676834499E+04  0.00000000000E+00 0.  1.
         -6    2    1    2    0  503 -0.21768709391E+03  0.90405137655E+02 -0.63069593373E+03  0.69514453301E+03  0.17288088725E+03 0.  0.
        -24    2    3    3    0    0 -0.16187859114E+03  0.92748570761E+02 -0.31649781233E+03  0.37598527786E+03  0.79919261167E+02 0.  0.
          6    2    1    2  501    0  0.21768709391E+03 -0.90405137655E+02 -0.98353377153E+03  0.10259926616E+04  0.17251522287E+03 0.  0.
         24    2    5    5    0    0  0.51866407370E+02 -0.43147876810E+02 -0.53793706188E+03  0.54817651866E+03  0.81051524257E+02 0.  0.
          5    1    5    5  501    0  0.16582068654E+03 -0.47257260844E+02 -0.44559670965E+03  0.47781614293E+03  0.47000000000E+01 0. -1.
        -11    1    6    6    0    0  0.14770175228E+02 -0.55413620072E+02 -0.20225432255E+03  0.21022758705E+03  0.00000000000E+00 0.  1.
         12    1    6    6    0    0  0.37096232142E+02  0.12265743262E+02 -0.33568273933E+03  0.33794893162E+03  0.00000000000E+00 0. -1.
         -5    1    3    3    0  503 -0.55808502773E+02 -0.23434331064E+01 -0.31419812140E+03  0.31915925515E+03  0.47000000000E+01 0.  1.
         11    1    4    4    0    0 -0.10962063182E+03  0.54505862142E+02 -0.26940235186E+03  0.29591417525E+03  0.00000000000E+00 0. -1.
        -12    1    4    4    0    0 -0.52257959320E+02  0.38242708619E+02 -0.47095460474E+02  0.80071102603E+02  0.00000000000E+00 0.  1.
</event>
<event>
12    1  0.1598254E-001  0.2626432E+03  0.7818608E-02  0.1107025E+00
         21   -1    0    0  501  502  0.00000000000E+00  0.00000000000E+00  0.35609725340E+03  0.35609725340E+03  0.00000000000E+00 0. -1.
         21   -1    0    0  502  503 -0.00000000000E+00 -0.00000000000E+00 -0.27746570836E+03  0.27746570836E+03  0.00000000000E+00 0. -1.
         -6    2    1    2    0  503 -0.12054099307E+03 -0.14135001308E+03 -0.14138547938E+03  0.29828055000E+03  0.18566495501E+03 0.  0.
        -24    2    3    3    0    0 -0.10325081877E+03 -0.17808686043E+03 -0.12887311816E+03  0.25553484538E+03  0.79461406881E+02 0.  0.
          6    2    1    2  501    0  0.12054099307E+03  0.14135001308E+03  0.22001702442E+03  0.33528241176E+03  0.17174646254E+03 0.  0.
         24    2    5    5    0    0  0.12063380981E+03  0.16782265005E+03  0.17212751383E+03  0.28036152004E+03  0.79105897157E+02 0.  0.
          5    1    5    5  501    0 -0.92816739212E-01 -0.26472636967E+02  0.47889510590E+02  0.54920891721E+02  0.47000000000E+01 0. -1.
        -13    1    6    6    0    0  0.12212613969E+03  0.13233090260E+03  0.11688059540E+03  0.21467961096E+03  0.00000000000E+00 0.  1.
         14    1    6    6    0    0 -0.14923298799E+01  0.35491747441E+02  0.55246918429E+02  0.65681909083E+02  0.00000000000E+00 0. -1.
         -5    1    3    3    0  503 -0.17290174305E+02  0.36736847346E+02 -0.12512361221E+02  0.42745704624E+02  0.47000000000E+01 0.  1.
         11    1    4    4    0    0 -0.47920863633E+01 -0.25855188116E+02 -0.52679289364E+02  0.58877520091E+02  0.00000000000E+00 0. -1.
        -12    1    4    4    0    0 -0.98458732403E+02 -0.15223167231E+03 -0.76193828801E+02  0.19665732528E+03  0.00000000000E+00 0.  1.
</event>
<event>
12    1  0.1598254E-001  0.2328763E+03  0.7818608E-02  0.1124679E+00
         21   -1    0    0  503  502  0.00000000000E+00  0.00000000000E+00  0.43146947098E+02  0.43146947098E+02  0.00000000000E+00 0. -1.
         21   -1    0    0  501  503 -0.00000000000E+00 -0.00000000000E+00 -0.12574974282E+04  0.12574974282E+04  0.00000000000E+00 0.  1.
          6    2    1    2  501    0  0.11512846886E+03  0.10752949118E+03 -0.63392714085E+03  0.67534804442E+03  0.17150570071E+03 0.  0.
         24    2    3    3    0    0  0.13368835468E+03  0.13078231108E+03 -0.51841579072E+03  0.55597415697E+03  0.73319452272E+02 0.  0.
         -6    2    1    2    0  502 -0.11512846886E+03 -0.10752949118E+03 -0.58042334030E+03  0.62529633093E+03  0.17113471796E+03 0.  0.
        -24    2    5    5    0    0 -0.19293677641E+01 -0.48248203696E+02 -0.14986410138E+03  0.17615085811E+03  0.78982683609E+02 0.  0.
          5    1    3    3  501    0 -0.18559885819E+02 -0.23252819904E+02 -0.11551135013E+03  0.11937388745E+03  0.47000000000E+01 0. -1.
        -11    1    4    4    0    0  0.14996123881E+02  0.58851841012E+02 -0.18891988645E+03  0.19844179604E+03  0.00000000000E+00 0.  1.
         12    1    4    4    0    0  0.11869223080E+03  0.71930470072E+02 -0.32949590427E+03  0.35753236093E+03  0.00000000000E+00 0. -1.
         -5    1    5    5    0  502 -0.11319910110E+03 -0.59281287484E+02 -0.43055923892E+03  0.44914547282E+03  0.47000000000E+01 0.  1.
         11    1    6    6    0    0 -0.43563435126E+01 -0.48841765302E+02 -0.32652185607E+02  0.58912316128E+02  0.00000000000E+00 0. -1.
        -12    1    6    6    0    0  0.24269757485E+01  0.59356160635E+00 -0.11721191577E+03  0.11723854198E+03  0.00000000000E+00 0.  1.
</event>
<event>
12    1  0.1598254E-001  0.2300533E+03  0.7818608E-02  0.1126638E+00
         21   -1    0    0  503  502  0.00000000000E+00  0.00000000000E+00  0.15872156583E+03  0.15872156583E+03  0.00000000000E+00 0. -1.
         21   -1    0    0  501  503 -0.00000000000E+00 -0.00000000000E+00 -0.49073910780E+03  0.49073910780E+03  0.00000000000E+00 0. -1.
          6    2    1    2  501    0 -0.47280891430E+01 -0.15292324064E+03 -0.35007939255E+03  0.41890344487E+03  0.17180408227E+03 0.  0.
         24    2    3    3    0    0 -0.20150903012E+02 -0.93367848511E+01 -0.15424032439E+03  0.17553137562E+03  0.80795740714E+02 0.  0.
         -6    2    1    2    0  502  0.47280891430E+01  0.15292324064E+03  0.18061850579E+02  0.23055722875E+03  0.17152997677E+03 0.  0.
        -24    2    5    5    0    0  0.64315928226E+02  0.12095721059E+03 -0.39486680987E+01  0.15928949008E+03  0.81181058460E+02 0.  0.
          5    1    3    3  501    0  0.15422813869E+02 -0.14358645578E+03 -0.19583906816E+03  0.24337206925E+03  0.47000000000E+01 0. -1.
        -11    1    4    4    0    0  0.12683576882E+02  0.17955094118E+02 -0.11647039396E+03  0.11852683745E+03  0.00000000000E+00 0.  1.
         12    1    4    4    0    0 -0.32834479894E+02 -0.27291878969E+02 -0.37769930427E+02  0.57004538170E+02  0.00000000000E+00 0. -1.
         -5    1    5    5    0  502 -0.59587839083E+02  0.31966030050E+02  0.22010518677E+02  0.71267738677E+02  0.47000000000E+01 0.  1.
         11    1    6    6    0    0  0.19839206607E+02  0.10509760252E+03  0.15784680562E+02  0.10811223943E+03  0.00000000000E+00 0. -1.
        -12    1    6    6    0    0  0.44476721619E+02  0.15859608061E+02 -0.19733348660E+02  0.51177250641E+02  0.00000000000E+00 0.  1.
</event>
<event>
12    1  0.1598254E-001  0.1866664E+03  0.7818608E-02  0.1161775E+00
         21   -1    0    0  503  502  0.00000000000E+00  0.00000000000E+00  0.93591693901E+02  0.93591693901E+02  0.00000000000E+00 0.  1.
         21   -1    0    0  501  503 -0.00000000000E+00 -0.00000000000E+00 -0.13927171611E+04  0.13927171611E+04  0.00000000000E+00 0.  1.
          6    2    1    2  501    0  0.11981124407E+02  0.69408837025E+02 -0.12858616534E+04  0.12991718394E+04  0.17159878374E+03 0.  0.
         24    2    3    3    0    0  0.73460398390E+02  0.39112121912E+02 -0.74390635695E+03  0.75287958663E+03  0.80652438526E+02 0.  0.
         -6    2    1    2    0  502 -0.11981124407E+02 -0.69408837025E+02 -0.13263813757E+02  0.18713701557E+03  0.17286757892E+03 0.  0.
        -24    2    5    5    0    0 -0.35893027012E+02 -0.19114732694E+02 -0.65745652847E+02  0.11047079451E+03  0.78915291154E+02 0.  0.
          5    1    3    3  501    0 -0.61479273983E+02  0.30296715113E+02 -0.54195529645E+03  0.54629225276E+03  0.47000000000E+01 0. -1.
        -11    1    4    4    0    0 -0.10393703190E+02  0.16113547349E+02 -0.50067985993E+02  0.53614165065E+02  0.00000000000E+00 0.  1.
         12    1    4    4    0    0  0.83854101580E+02  0.22998574563E+02 -0.69383837095E+03  0.69926542156E+03  0.00000000000E+00 0. -1.
         -5    1    5    5    0  502  0.23911902605E+02 -0.50294104331E+02  0.52481839091E+02  0.76666221056E+02  0.47000000000E+01 0.  1.
         11    1    6    6    0    0 -0.88644338968E+00 -0.11175064588E+02 -0.72994690626E+02  0.73850475354E+02  0.00000000000E+00 0. -1.
        -12    1    6    6    0    0 -0.35006583622E+02 -0.79396681058E+01  0.72490377791E+01  0.36620319158E+02  0.00000000000E+00 0.  1.
</event>
<event>
12    1  0.1598254E-001  0.2206624E+03  0.7818608E-02  0.1134335E+00
         21   -1    0    0  503  502  0.00000000000E+00  0.00000000000E+00  0.81853138501E+02  0.81853138501E+02  0.00000000000E+00 0.  1.
         21   -1    0    0  501  503 -0.00000000000E+00 -0.00000000000E+00 -0.63503006782E+03  0.63503006782E+03  0.00000000000E+00 0.  1.
          6    2    1    2  501    0  0.12940700233E+03 -0.84453891058E+01 -0.17534553895E+03  0.28184739686E+03  0.17853403103E+03 0.  0.
         24    2    3    3    0    0  0.11305341518E+03 -0.34720832054E+02 -0.19723842254E+03  0.24364756614E+03  0.80464466040E+02 0.  0.
         -6    2    1    2    0  502 -0.12940700233E+03  0.84453891058E+01 -0.37783139037E+03  0.43503580946E+03  0.17228493583E+03 0.  0.
        -24    2    5    5    0    0 -0.10769093464E+03 -0.24421446364E+01 -0.38634677612E+03  0.40886850579E+03  0.79412355046E+02 0.  0.
          5    1    3    3  501    0  0.16353587153E+02  0.26275442948E+02  0.21892883596E+02  0.38199830720E+02  0.47000000000E+01 0. -1.
        -11    1    4    4    0    0  0.11611933051E+02  0.15528947031E+02 -0.41637212006E+01  0.19832341246E+02  0.00000000000E+00 0.  1.
         12    1    4    4    0    0  0.10144148213E+03 -0.50249779085E+02 -0.19307470134E+03  0.22381522489E+03  0.00000000000E+00 0. -1.
         -5    1    5    5    0  502 -0.21716067698E+02  0.10887533742E+02  0.85153857466E+01  0.26167303676E+02  0.47000000000E+01 0.  1.
         13    1    6    6    0    0 -0.19270950934E+02  0.16669253290E+02 -0.22655067252E+02  0.34095243471E+02  0.00000000000E+00 0. -1.
        -14    1    6    6    0    0 -0.88419983703E+02 -0.19111397927E+02 -0.36369170887E+03  0.37477326232E+03  0.00000000000E+00 0.  1.
</event>
<event>
12    1  0.1598254E-001  0.1752238E+03  0.7818608E-02  0.1172556E+00
         21   -1    0    0  503  502  0.00000000000E+00  0.00000000000E+00  0.43617695241E+03  0.43617695241E+03  0.00000000000E+00 0. -1.
         21   -1    0    0  501  503 -0.00000000000E+00 -0.00000000000E+00 -0.19284980282E+03  0.19284980282E+03  0.00000000000E+00 0. -1.
          6    2    1    2  501    0  0.33677823734E+02 -0.12360628486E+02 -0.12901548481E+03  0.21759682704E+03  0.17151210707E+03 0.  0.
         24    2    3    3    0    0  0.30637750841E+02 -0.16059675171E+02  0.19156646344E+01  0.86493887014E+02  0.79252367640E+02 0.  0.
         -6    2    1    2    0  502 -0.33677823734E+02  0.12360628486E+02  0.37234263440E+03  0.41142992818E+03  0.17131423603E+03 0.  0.
        -24    2    5    5    0    0 -0.71903536835E+02  0.50318059011E+02  0.22245431363E+03  0.25208573979E+03  0.79745049232E+02 0.  0.
          5    1    3    3  501    0  0.30400728921E+01  0.36990466851E+01 -0.13093114944E+03  0.13110294003E+03  0.47000000000E+01 0. -1.
        -13    1    4    4    0    0 -0.34637734607E+01  0.28007088492E+02 -0.91862894479E+01  0.29677982516E+02  0.00000000000E+00 0.  1.
         14    1    4    4    0    0  0.34101524302E+02 -0.44066763663E+02  0.11101954082E+02  0.56815904498E+02  0.00000000000E+00 0. -1.
         -5    1    5    5    0  502  0.38225713102E+02 -0.37957430525E+02  0.14988832077E+03  0.15934418840E+03  0.47000000000E+01 0.  1.
         13    1    6    6    0    0 -0.86462645174E+02  0.31660891713E+02  0.19624862882E+03  0.21677574908E+03  0.00000000000E+00 0. -1.
        -14    1    6    6    0    0  0.14559108338E+02  0.18657167298E+02  0.26205684809E+02  0.35309990704E+02  0.00000000000E+00 0.  1.
</event>
<event>
12    1  0.1598254E-001  0.1810172E+03  0.7818608E-02  0.1166840E+00
         21   -1    0    0  501  502  0.00000000000E+00  0.00000000000E+00  0.51110271465E+03  0.51110271465E+03  0.00000000000E+00 0. -1.
         21   -1    0    0  502  503 -0.00000000000E+00 -0.00000000000E+00 -0.12046373962E+03  0.12046373962E+03  0.00000000000E+00 0. -1.
         -6    2    1    2    0  503 -0.13365860065E+02  0.51445747803E+02 -0.20734260090E+02  0.18212772627E+03  0.17296036526E+03 0.  0.
        -24    2    3    3    0    0 -0.35558422665E+02  0.96011855230E+02 -0.85674690232E+01  0.13066153765E+03  0.80723962543E+02 0.  0.
          6    2    1    2  501    0  0.13365860065E+02 -0.51445747803E+02  0.41137323512E+03  0.44943872801E+03  0.17303733839E+03 0.  0.
         24    2    5    5    0    0 -0.51960180612E+02 -0.63603256347E+02  0.24733253844E+03  0.27238863122E+03  0.79227187634E+02 0.  0.
          5    1    5    5  501    0  0.65326040676E+02  0.12157508544E+02  0.16404069668E+03  0.17705009679E+03  0.47000000000E+01 0. -1.
        -11    1    6    6    0    0 -0.22416416125E+02  0.43389274821E+01  0.14072433421E+03  0.14256458271E+03  0.00000000000E+00 0.  1.
         12    1    6    6    0    0 -0.29543764487E+02 -0.67942183829E+02  0.10660820423E+03  0.12982404851E+03  0.00000000000E+00 0. -1.
         -5    1    3    3    0  503  0.22192562600E+02 -0.44566107428E+02 -0.12166791067E+02  0.51466188618E+02  0.47000000000E+01 0.  1.
         13    1    4    4    0    0 -0.28053011084E+02  0.61681957765E+02 -0.43971678879E+02  0.80778362747E+02  0.00000000000E+00 0. -1.
        -14    1    4    4    0    0 -0.75054115808E+01  0.34329897465E+02  0.35404209856E+02  0.49883174904E+02  0.00000000000E+00 0.  1.
</event>
<event>
12    1  0.1598254E-001  0.1851249E+03  0.7818608E-02  0.1165645E+00
         21   -1    0    0  503  502  0.00000000000E+00  0.00000000000E+00  0.52800756883E+02  0.52800756883E+02  0.00000000000E+00 0.  1.
         21   -1    0    0  501  503 -0.00000000000E+00 -0.00000000000E+00 -0.98959871480E+03  0.98959871480E+03  0.00000000000E+00 0.  1.
          6    2    1    2  501    0  0.24225246155E+02  0.23229303211E+02 -0.78195210653E+03  0.80105229094E+03  0.17061422227E+03 0.  0.
         24    2    3    3    0    0  0.10346420749E+02  0.65263923089E+02 -0.69956843174E+03  0.70741100232E+03  0.81657255888E+02 0.  0.
         -6    2    1    2    0  502 -0.24225246155E+02 -0.23229303211E+02 -0.15484585139E+03  0.24134718074E+03  0.18205702645E+03 0.  0.
        -24    2    5    5    0    0  0.45231815854E+02 -0.52420671206E+02 -0.69191007876E+02  0.12717511040E+03  0.81192790317E+02 0.  0.
          5    1    3    3  501    0  0.13878825407E+02 -0.42034619878E+02 -0.82383674793E+02  0.93641288625E+02  0.47000000000E+01 0. -1.
        -13    1    4    4    0    0 -0.18135305621E+02  0.18758394824E+02 -0.49534729228E+03  0.49603397732E+03  0.00000000000E+00 0.  1.
         14    1    4    4    0    0  0.28481726370E+02  0.46505528265E+02 -0.20422113945E+03  0.21137702499E+03  0.00000000000E+00 0. -1.
         -5    1    5    5    0  502 -0.69457062010E+02  0.29191367995E+02 -0.85654843509E+02  0.11417207034E+03  0.47000000000E+01 0.  1.
         11    1    6    6    0    0  0.94064312869E+01 -0.63337642736E+02 -0.23763035036E+02  0.68299485877E+02  0.00000000000E+00 0. -1.
        -12    1    6    6    0    0  0.35825384567E+02  0.10916971530E+02 -0.45427972840E+02  0.58875624524E+02  0.00000000000E+00 0.  1.
</event>
<event>
12    1  0.1598254E-001  0.2038199E+03  0.7818608E-02  0.1147042E+00
         21   -1    0    0  503  502  0.00000000000E+00  0.00000000000E+00  0.17948385945E+03  0.17948385945E+03  0.00000000000E+00 0. -1.
         21   -1    0    0  501  503 -0.00000000000E+00 -0.00000000000E+00 -0.12158155691E+04  0.12158155691E+04  0.00000000000E+00 0. -1.
          6    2    1    2  501    0  0.10497346766E+03  0.12197489349E+02 -0.11473163341E+04  0.11652799274E+04  0.17428233146E+03 0.  0.
         24    2    3    3    0    0  0.55096815767E+02  0.73921257515E+02 -0.60955490750E+03  0.62167442164E+03  0.80136694725E+02 0.  0.
         -6    2    1    2    0  502 -0.10497346766E+03 -0.12197489349E+02  0.11098462438E+03  0.23001950121E+03  0.17153185252E+03 0.  0.
        -24    2    5    5    0    0 -0.62827325762E+02  0.36067199913E+02  0.64479862079E+01  0.10731751986E+03  0.78913609547E+02 0.  0.
          5    1    3    3  501    0  0.49876651890E+02 -0.61723768166E+02 -0.53776142656E+03  0.54360550573E+03  0.47000000000E+01 0. -1.
        -11    1    4    4    0    0  0.27660963562E+02  0.32234060813E+02 -0.49375426410E+03  0.49557788177E+03  0.00000000000E+00 0.  1.
         12    1    4    4    0    0  0.27435852205E+02  0.41687196702E+02 -0.11580064340E+03  0.12609653987E+03  0.00000000000E+00 0. -1.
         -5    1    5    5    0  502 -0.42146141895E+02 -0.48264689262E+02  0.10453663817E+03  0.12270198135E+03  0.47000000000E+01 0.  1.
         13    1    6    6    0    0 -0.61282438138E+02  0.60111489661E+01  0.30570421017E+02  0.68747521972E+02  0.00000000000E+00 0. -1.
        -14    1    6    6    0    0 -0.15448876237E+01  0.30056050947E+02 -0.24122434809E+02  0.38569997893E+02  0.00000000000E+00 0.  1.
</event>
<event>
12    1  0.1598254E-001  0.2907687E+03  0.7818608E-02  0.1090082E+00
         21   -1    0    0  503  502  0.00000000000E+00  0.00000000000E+00  0.19840482646E+03  0.19840482646E+03  0.00000000000E+00 0. -1.
         21   -1    0    0  501  503 -0.00000000000E+00 -0.00000000000E+00 -0.42939654557E+03  0.42939654557E+03  0.00000000000E+00 0.  1.
          6    2    1    2  501    0  0.28328559748E+02  0.23156464267E+03 -0.82234773300E+02  0.30118991079E+03  0.17183746212E+03 0.  0.
         24    2    3    3    0    0  0.35739308678E+02  0.48796613479E+02  0.10049131998E+01  0.10016750630E+03  0.79838034776E+02 0.  0.
         -6    2    1    2    0  502 -0.28328559748E+02 -0.23156464267E+03 -0.14875694581E+03  0.32661146124E+03  0.17355611961E+03 0.  0.
        -24    2    5    5    0    0 -0.41060995799E+01 -0.26823692647E+02 -0.41694196187E+02  0.94253748756E+02  0.80056184132E+02 0.  0.
          5    1    3    3  501    0 -0.74107489299E+01  0.18276802920E+03 -0.83239686500E+02  0.20102240448E+03  0.47000000000E+01 0. -1.
        -11    1    4    4    0    0  0.67172505454E+01  0.64500200756E+02 -0.94918220096E+01  0.65540003337E+02  0.00000000000E+00 0.  1.
         12    1    4    4    0    0  0.29022058133E+02 -0.15703587277E+02  0.10496735209E+02  0.34627502966E+02  0.00000000000E+00 0. -1.
         -5    1    5    5    0  502 -0.24222460169E+02 -0.20474095003E+03 -0.10706274962E+03  0.23235771249E+03  0.47000000000E+01 0.  1.
         11    1    6    6    0    0  0.30851249664E+02 -0.33334892046E+02 -0.36601104067E+02  0.58332284822E+02  0.00000000000E+00 0. -1.
        -12    1    6    6    0    0 -0.34957349244E+02  0.65111993996E+01 -0.50930921203E+01  0.35921463934E+02  0.00000000000E+00 0.  1.
</event>
<event>
12    1  0.1598254E-001  0.2529039E+03  0.7818608E-02  0.1111669E+00
         21   -1    0    0  503  502  0.00000000000E+00  0.00000000000E+00  0.45401103645E+02  0.45401103645E+02  0.00000000000E+00 0. -1.
         21   -1    0    0  501  503 -0.00000000000E+00 -0.00000000000E+00 -0.14196844165E+04  0.14196844165E+04  0.00000000000E+00 0.  1.
          6    2    1    2  501    0  0.64772597372E+02 -0.17244067406E+03 -0.76692537240E+03  0.80717665869E+03  0.17154695005E+03 0.  0.
         24    2    3    3    0    0  0.90356683512E+02 -0.80824149909E+02 -0.33981673849E+03  0.36957866039E+03  0.80100543028E+02 0.  0.
         -6    2    1    2    0  502 -0.64772597372E+02  0.17244067406E+03 -0.60735794048E+03  0.65790886147E+03  0.17328914191E+03 0.  0.
        -24    2    5    5    0    0 -0.23553351986E+01  0.17010743422E+03 -0.42182993486E+03  0.46209239257E+03  0.81527900425E+02 0.  0.
          5    1    3    3  501    0 -0.25584086140E+02 -0.91616524146E+02 -0.42710863391E+03  0.43759799830E+03  0.47000000000E+01 0. -1.
        -13    1    4    4    0    0 -0.86375670311E+01  0.63958048123E+01 -0.50021432489E+02  0.51163049085E+02  0.00000000000E+00 0.  1.
         14    1    4    4    0    0  0.98994250543E+02 -0.87219954721E+02 -0.28979530600E+03  0.31841561131E+03  0.00000000000E+00 0. -1.
         -5    1    5    5    0  502 -0.62417262173E+02  0.23332398398E+01 -0.18552800561E+03  0.19581646890E+03  0.47000000000E+01 0.  1.
         13    1    6    6    0    0 -0.32280815920E+02  0.12834803940E+03 -0.25168020460E+03  0.28435575549E+03  0.00000000000E+00 0. -1.
        -14    1    6    6    0    0  0.29925480722E+02  0.41759394815E+02 -0.17014973027E+03  0.17773663708E+03  0.00000000000E+00 0.  1.
</event>
<event>
12    1  0.1598254E-001  0.1911609E+03  0.7818608E-02  0.1160278E+00
         21   -1    0    0  501  502  0.00000000000E+00  0.00000000000E+00  0.21783659730E+03  0.21783659730E+03  0.00000000000E+00 0.  1.
         21   -1    0    0  502  503 -0.00000000000E+00 -0.00000000000E+00 -0.34330856668E+03  0.34330856668E+03  0.00000000000E+00 0.  1.
         -6    2    1    2    0  503 -0.70779990584E+02 -0.40538638393E+02 -0.27027396304E+03  0.33104456380E+03  0.17288522161E+03 0.  0.
        -24    2    3    3    0    0 -0.73301454821E+02  0.35546815870E+02 -0.18622550356E+03  0.21754748157E+03  0.77526054754E+02 0.  0.
          6    2    1    2  501    0  0.70779990584E+02  0.40538638393E+02  0.14480199366E+03  0.23010060018E+03  0.15913981452E+03 0.  0.
         24    2    5    5    0    0  0.82281144238E+02  0.78683019456E+02  0.10408457719E+03  0.17294057616E+03  0.78189765475E+02 0.  0.
          5    1    5    5  501    0 -0.11501153654E+02 -0.38144381063E+02  0.40717416474E+02  0.57160024024E+02  0.47000000000E+01 0. -1.
        -13    1    6    6    0    0  0.67869323299E+02  0.64446386294E+02  0.11630170663E+03  0.14928385283E+03  0.00000000000E+00 0.  1.
         14    1    6    6    0    0  0.14411820939E+02  0.14236633162E+02 -0.12217129443E+02  0.23656723323E+02  0.00000000000E+00 0. -1.
         -5    1    3    3    0  503  0.25214642368E+01 -0.76085454263E+02 -0.84048459487E+02  0.11349708223E+03  0.47000000000E+01 0.  1.
         13    1    4    4    0    0 -0.10489998927E+02  0.16446063997E+02  0.60671917489E+00  0.19516178075E+02  0.00000000000E+00 0. -1.
        -14    1    4    4    0    0 -0.62811455894E+02  0.19100751872E+02 -0.18683222273E+03  0.19803130350E+03  0.00000000000E+00 0.  1.
</event>
<event>
12    1  0.1598254E-001  0.2212205E+03  0.7818608E-02  0.1132984E+00
         21   -1    0    0  501  502  0.00000000000E+00  0.00000000000E+00  0.31743380220E+03  0.31743380220E+03  0.00000000000E+00 0.  1.
         21   -1    0    0  502  503 -0.00000000000E+00 -0.00000000000E+00 -0.23991213418E+03  0.23991213418E+03  0.00000000000E+00 0.  1.
         -6    2    1    2    0  503 -0.13658565306E+03  0.36629697329E+02 -0.12786115970E+03  0.25551320535E+03  0.17012097637E+03 0.  0.
        -24    2    3    3    0    0 -0.80578400932E+02  0.27449046626E+02 -0.18374318286E+01  0.11721943606E+03  0.80564825929E+02 0.  0.
          6    2    1    2  501    0  0.13658565306E+03 -0.36629697329E+02  0.20538282771E+03  0.30183273103E+03  0.17006915139E+03 0.  0.
         24    2    5    5    0    0  0.16419675073E+03 -0.21468217834E+02  0.15045239467E+03  0.23833717490E+03  0.82141515398E+02 0.  0.
          5    1    5    5  501    0 -0.27611097661E+02 -0.15161479495E+02  0.54930433037E+02  0.63495556129E+02  0.47000000000E+01 0. -1.
        -13    1    6    6    0    0  0.10760973911E+03  0.20133895207E+02  0.11801464347E+03  0.16097417731E+03  0.00000000000E+00 0.  1.
         14    1    6    6    0    0  0.56587011613E+02 -0.41602113042E+02  0.32437751198E+02  0.77362997587E+02  0.00000000000E+00 0. -1.
         -5    1    3    3    0  503 -0.56007252132E+02  0.91806507032E+01 -0.12602372787E+03  0.13829376929E+03  0.47000000000E+01 0.  1.
         13    1    4    4    0    0 -0.23480001458E+02  0.39692318344E+02  0.25547806236E+02  0.52720783448E+02  0.00000000000E+00 0. -1.
        -14    1    4    4    0    0 -0.57098399474E+02 -0.12243271718E+02 -0.27385238064E+02  0.64498652611E+02  0.00000000000E+00 0.  1.
</event>
<event>
12    1  0.1598254E-001  0.1757671E+03  0.7818608E-02  0.1172027E+00
         21   -1    0    0  501  502  0.00000000000E+00  0.00000000000E+00  0.84774310597E+02  0.84774310597E+02  0.00000000000E+00 0. -1.
         21   -1    0    0  502  503 -0.00000000000E+00 -0.00000000000E+00 -0.36844963162E+03  0.36844963162E+03  0.00000000000E+00 0. -1.
         -6    2    1    2    0  503  0.24248014955E+02 -0.25670759796E+02 -0.16711890405E+03  0.24253412177E+03  0.17218338478E+03 0.  0.
        -24    2    3    3    0    0  0.22760198204E+01 -0.77562904888E+02 -0.14293613842E+03  0.18103241899E+03  0.79503538130E+02 0.  0.
          6    2    1    2  501    0 -0.24248014955E+02  0.25670759796E+02 -0.11655641697E+03  0.21068982044E+03  0.17192395983E+03 0.  0.
         24    2    5    5    0    0  0.11326564975E+02  0.45809609102E+02 -0.47194546486E+01  0.91523046006E+02  0.78277604318E+02 0.  0.
          5    1    5    5  501    0 -0.35574579930E+02 -0.20138849306E+02 -0.11183696232E+03  0.11916677444E+03  0.47000000000E+01 0. -1.
        -11    1    6    6    0    0  0.19013954719E+02  0.55639918081E+02 -0.27987228320E+02  0.65120011572E+02  0.00000000000E+00 0.  1.
         12    1    6    6    0    0 -0.76873897439E+01 -0.98303089788E+01  0.23267773671E+02  0.26403034434E+02  0.00000000000E+00 0. -1.
         -5    1    3    3    0  503  0.21971995134E+02  0.51892145091E+02 -0.24182765630E+02  0.61501702788E+02  0.47000000000E+01 0.  1.
         11    1    4    4    0    0  0.30639311981E+02 -0.32463388914E+02 -0.10920218204E+03  0.11797353780E+03  0.00000000000E+00 0. -1.
        -12    1    4    4    0    0 -0.28363292160E+02 -0.45099515974E+02 -0.33733956385E+02  0.63058881188E+02  0.00000000000E+00 0.  1.
</event>
<event>
12    1  0.1598254E-001  0.2020185E+03  0.7818608E-02  0.1148071E+00
         21   -1    0    0  501  502  0.00000000000E+00  0.00000000000E+00  0.72725836929E+03  0.72725836929E+03  0.00000000000E+00 0.  1.
         21   -1    0    0  502  503 -0.00000000000E+00 -0.00000000000E+00 -0.11501853642E+03  0.11501853642E+03  0.00000000000E+00 0.  1.
         -6    2    1    2    0  503  0.10537627402E+03 -0.76970885238E+01  0.47073884610E+01  0.20207329287E+03  0.17218609667E+03 0.  0.
        -24    2    3    3    0    0  0.60498811240E+02  0.48289393835E+02  0.45242581276E+02  0.11952836735E+03  0.79045352307E+02 0.  0.
          6    2    1    2  501    0 -0.10537627402E+03  0.76970885238E+01  0.60753244441E+03  0.64020361284E+03  0.17205112783E+03 0.  0.
         24    2    5    5    0    0 -0.64649881120E+02  0.20388480600E+02  0.57963709434E+03  0.58901815526E+03  0.79799303442E+02 0.  0.
          5    1    5    5  501    0 -0.40726392903E+02 -0.12691392076E+02  0.27895350071E+02  0.51185457576E+02  0.47000000000E+01 0. -1.
        -13    1    6    6    0    0 -0.39644402234E+02 -0.17054721467E+01  0.91399357829E+02  0.99641506789E+02  0.00000000000E+00 0.  1.
         14    1    6    6    0    0 -0.25005478886E+02  0.22093952747E+02  0.48823773651E+03  0.48937664848E+03  0.00000000000E+00 0. -1.
         -5    1    3    3    0  503  0.44877462783E+02 -0.55986482359E+02 -0.40535192815E+02  0.82544925521E+02  0.47000000000E+01 0.  1.
         11    1    4    4    0    0 -0.44943734658E+01 -0.14594749937E+02  0.20880989027E+02  0.25869322011E+02  0.00000000000E+00 0. -1.
        -12    1    4    4    0    0  0.64993184706E+02  0.62884143772E+02  0.24361592249E+02  0.93659045335E+02  0.00000000000E+00 0.  1.
</event>
<event>
12    1  0.1598254E-001  0.1881592E+03  0.7818608E-02  0.1160219E+00
         21   -1    0    0  503  502  0.00000000000E+00  0.00000000000E+00  0.72581411878E+03  0.72581411878E+03  0.00000000000E+00 0. -1.
         21   -1    0    0  501  503 -0.00000000000E+00 -0.00000000000E+00 -0.27669547180E+03  0.27669547180E+03  0.00000000000E+00 0. -1.
          6    2    1    2  501    0  0.70192074302E+02 -0.31763370426E+02 -0.23043089575E+03  0.29749331829E+03  0.17166256936E+03 0.  0.
         24    2    3    3    0    0  0.17033348267E+02 -0.61549279315E+02 -0.64988596836E+02  0.12112355107E+03  0.79805690065E+02 0.  0.
         -6    2    1    2    0  502 -0.70192074302E+02  0.31763370426E+02  0.67954954272E+03  0.70501627229E+03  0.17124404859E+03 0.  0.
        -24    2    5    5    0    0 -0.43688630309E+02  0.65847384202E+02  0.62697661231E+03  0.63682422326E+03  0.78745441258E+02 0.  0.
          5    1    3    3  501    0  0.53158726035E+02  0.29785908889E+02 -0.16544229891E+03  0.17636976723E+03  0.47000000000E+01 0. -1.
        -11    1    4    4    0    0  0.39081920812E+02 -0.64241382975E+02 -0.32854229907E+02  0.82059443354E+02  0.00000000000E+00 0.  1.
         12    1    4    4    0    0 -0.22048572545E+02  0.26921036592E+01 -0.32134366929E+02  0.39064107712E+02  0.00000000000E+00 0. -1.
         -5    1    5    5    0  502 -0.26503443993E+02 -0.34084013776E+02  0.52572930414E+02  0.68192049030E+02  0.47000000000E+01 0.  1.
         11    1    6    6    0    0  0.22751282234E+02  0.21614779145E+02  0.15479596099E+03  0.15794495579E+03  0.00000000000E+00 0. -1.
        -12    1    6    6    0    0 -0.66439912542E+02  0.44232605057E+02  0.47218065132E+03  0.47887926747E+03  0.00000000000E+00 0.  1.
</event>
<event>
12    1  0.1598254E-001  0.1808582E+03  0.7818608E-02  0.1167051E+00
         21   -1    0    0  501  502  0.00000000000E+00  0.00000000000E+00  0.57554335137E+02  0.57554335137E+02  0.00000000000E+00 0.  1.
         21   -1    0    0  502  503 -0.00000000000E+00 -0.00000000000E+00 -0.73059255189E+03  0.73059255189E+03  0.00000000000E+00 0.  1.
         -6    2    1    2    0  503  0.36847794254E+02  0.42150079489E+02 -0.52302854757E+03  0.55341533676E+03  0.17197466164E+03 0.  0.
        -24    2    3    3    0    0 -0.39438224145E+02  0.19266822445E+02 -0.15596832615E+03  0.17778453903E+03  0.73175402866E+02 0.  0.
          6    2    1    2  501    0 -0.36847794254E+02 -0.42150079489E+02 -0.15000966919E+03  0.23473155027E+03  0.17164384842E+03 0.  0.
         24    2    5    5    0    0 -0.45975959753E+01 -0.64249516791E+02 -0.47188958121E+02  0.12462864821E+03  0.95688891148E+02 0.  0.
          5    1    5    5  501    0 -0.32250198279E+02  0.22099437302E+02 -0.10282071106E+03  0.11010290206E+03  0.47000000000E+01 0. -1.
        -11    1    6    6    0    0  0.10620488192E+02 -0.52645640071E+02 -0.74155893380E+02  0.91561207456E+02  0.00000000000E+00 0.  1.
         12    1    6    6    0    0 -0.15218084167E+02 -0.11603876720E+02  0.26966935259E+02  0.33067440752E+02  0.00000000000E+00 0. -1.
         -5    1    3    3    0  503  0.76286018400E+02  0.22883257044E+02 -0.36706022141E+03  0.37563079773E+03  0.47000000000E+01 0.  1.
         11    1    4    4    0    0 -0.47503789208E+02 -0.14558743152E+02 -0.10394956856E+03  0.11521319280E+03  0.00000000000E+00 0. -1.
        -12    1    4    4    0    0  0.80655650623E+01  0.33825565596E+02 -0.52018757594E+02  0.62571346233E+02  0.00000000000E+00 0.  1.
</event>
<event>
12    1  0.1598254E-001  0.2209805E+03  0.7818608E-02  0.1133369E+00
         21   -1    0    0  503  502  0.00000000000E+00  0.00000000000E+00  0.77824964701E+02  0.77824964701E+02  0.00000000000E+00 0. -1.
         21   -1    0    0  501  503 -0.00000000000E+00 -0.00000000000E+00 -0.93900623955E+03  0.93900623955E+03  0.00000000000E+00 0. -1.
          6    2    1    2  501    0  0.87153699857E+02  0.10821558641E+03 -0.72572652606E+03  0.75862465490E+03  0.17183130055E+03 0.  0.
         24    2    3    3    0    0  0.25276019353E+02 -0.58084084970E+01 -0.19652093211E+03  0.21372928015E+03  0.79919419854E+02 0.  0.
         -6    2    1    2    0  502 -0.87153699857E+02 -0.10821558641E+03 -0.13545474879E+03  0.25820654935E+03  0.17034157631E+03 0.  0.
        -24    2    5    5    0    0 -0.11511271199E+03 -0.60397795037E+02 -0.13590828900E+03  0.20261389489E+03  0.75382340611E+02 0.  0.
          5    1    3    3  501    0  0.61877680504E+02  0.11402399490E+03 -0.52920559395E+03  0.54489537475E+03  0.47000000000E+01 0. -1.
        -13    1    4    4    0    0  0.38424701968E+02  0.27865221098E+02 -0.12184493926E+03  0.13076359391E+03  0.00000000000E+00 0.  1.
         14    1    4    4    0    0 -0.13148682615E+02 -0.33673629595E+02 -0.74675992850E+02  0.82965686237E+02  0.00000000000E+00 0. -1.
         -5    1    5    5    0  502  0.27959012137E+02 -0.47817791369E+02  0.45354021573E+00  0.55592654459E+02  0.47000000000E+01 0.  1.
         13    1    6    6    0    0 -0.66399110688E+01  0.12251913401E+02  0.30462035897E+00  0.13938816110E+02  0.00000000000E+00 0. -1.
        -14    1    6    6    0    0 -0.10847280093E+03 -0.72649708438E+02 -0.13621290936E+03  0.18867507878E+03  0.00000000000E+00 0.  1.
</event>
<event>
12    1  0.1598254E-001  0.1763607E+03  0.7818608E-02  0.1171671E+00
         21   -1    0    0  503  502  0.00000000000E+00  0.00000000000E+00  0.14827702896E+03  0.14827702896E+03  0.00000000000E+00 0.  1.
         21   -1    0    0  501  503 -0.00000000000E+00 -0.00000000000E+00 -0.21969966743E+03  0.21969966743E+03  0.00000000000E+00 0.  1.
          6    2    1    2  501    0 -0.55789854184E+01  0.35650805965E+02  0.62368257329E+01  0.17527465578E+03  0.17140653990E+03 0.  0.
         24    2    3    3    0    0  0.58056880711E+02 -0.60233901109E+01  0.48366075647E+01  0.99049248683E+02  0.79877895976E+02 0.  0.
         -6    2    1    2    0  502  0.55789854184E+01 -0.35650805965E+02 -0.77659464203E+02  0.19270204060E+03  0.17262960067E+03 0.  0.
        -24    2    5    5    0    0  0.66771942539E+01 -0.30965233412E+02  0.25626833382E+02  0.89196920337E+02  0.79346867645E+02 0.  0.
          5    1    3    3  501    0 -0.63635866129E+02  0.41674196076E+02  0.14002181683E+01  0.76225407100E+02  0.47000000000E+01 0. -1.
        -11    1    4    4    0    0  0.29006946478E+02  0.27365331121E+02  0.28354909248E+02  0.48931228983E+02  0.00000000000E+00 0.  1.
         12    1    4    4    0    0  0.29049934233E+02 -0.33388721232E+02 -0.23518301684E+02  0.50118019699E+02  0.00000000000E+00 0. -1.
         -5    1    5    5    0  502 -0.10982088355E+01 -0.46855725532E+01 -0.10328629758E+03  0.10350512027E+03  0.47000000000E+01 0.  1.
         13    1    6    6    0    0  0.33993951857E+02  0.74319762586E+01 -0.14903786242E+01  0.34828784969E+02  0.00000000000E+00 0. -1.
        -14    1    6    6    0    0 -0.27316757603E+02 -0.38397209671E+02  0.27117212006E+02  0.54368135368E+02  0.00000000000E+00 0.  1.
</event>
<event>
12    1  0.1598254E-001  0.1760893E+03  0.7818608E-02  0.1171669E+00
         21   -1    0    0  503  502  0.00000000000E+00  0.00000000000E+00  0.14878287200E+04  0.14878287200E+04  0.00000000000E+00 0. -1.
         21   -1    0    0  501  503 -0.00000000000E+00 -0.00000000000E+00 -0.23193378553E+02  0.23193378553E+02  0.00000000000E+00 0. -1.
          6    2    1    2  501    0 -0.26794439865E+02 -0.20715813255E+02  0.49085449829E+03  0.52144815856E+03  0.17269324438E+03 0.  0.
         24    2    3    3    0    0 -0.32172095630E+02 -0.53640161801E+02  0.16365896157E+03  0.19252272452E+03  0.79802462755E+02 0.  0.
         -6    2    1    2    0  502  0.26794439865E+02  0.20715813255E+02  0.97378084312E+03  0.98957393995E+03  0.17280151988E+03 0.  0.
        -24    2    5    5    0    0 -0.16534687973E+02 -0.46081047579E+02  0.59932256977E+03  0.60671584298E+03  0.80744737494E+02 0.  0.
          5    1    3    3  501    0  0.53776557652E+01  0.32924348547E+02  0.32719553672E+03  0.32892543404E+03  0.47000000000E+01 0. -1.
        -13    1    4    4    0    0 -0.30745764938E+00 -0.29149645831E+00  0.11119785806E+03  0.11119866517E+03  0.00000000000E+00 0.  1.
         14    1    4    4    0    0 -0.31864637981E+02 -0.53348665343E+02  0.52461103511E+02  0.81324059350E+02  0.00000000000E+00 0. -1.
         -5    1    5    5    0  502  0.43329127837E+02  0.66796860834E+02  0.37445827335E+03  0.38285809698E+03  0.47000000000E+01 0.  1.
         11    1    6    6    0    0  0.63496617126E+01 -0.59686291206E+02  0.50971396564E+03  0.51323590904E+03  0.00000000000E+00 0. -1.
        -12    1    6    6    0    0 -0.22884349685E+02  0.13605243626E+02  0.89608604134E+02  0.93479933940E+02  0.00000000000E+00 0.  1.
</event>
<event>
12    1  0.1598254E-001  0.2119008E+03  0.7818608E-02  0.1140399E+00
         21   -1    0    0  503  502  0.00000000000E+00  0.00000000000E+00  0.36102426987E+03  0.36102426987E+03  0.00000000000E+00 0.  1.
         21   -1    0    0  501  503 -0.00000000000E+00 -0.00000000000E+00 -0.14040716677E+03  0.14040716677E+03  0.00000000000E+00 0. -1.
          6    2    1    2  501    0 -0.35642649180E+02 -0.11796554158E+03  0.23414769126E+02  0.21319049951E+03  0.17238233734E+03 0.  0.
         24    2    3    3    0    0 -0.74607353975E+02 -0.93281512101E+02 -0.24986921307E+02  0.14616540594E+03  0.80450493417E+02 0.  0.
         -6    2    1    2    0  502  0.35642649180E+02  0.11796554158E+03  0.19720233398E+03  0.28824093713E+03  0.17031679268E+03 0.  0.
        -24    2    5    5    0    0  0.31723353446E+02  0.15303885377E+03  0.16572540484E+03  0.24071846691E+03  0.77802368757E+02 0.  0.
          5    1    3    3  501    0  0.38964704794E+02 -0.24684029476E+02  0.48401690433E+02  0.67025093567E+02  0.47000000000E+01 0. -1.
        -13    1    4    4    0    0  0.13278928346E+01 -0.32942960881E+02  0.20726185871E+02  0.38943250400E+02  0.00000000000E+00 0.  1.
         14    1    4    4    0    0 -0.75935246809E+02 -0.60338551219E+02 -0.45713107178E+02  0.10722215554E+03  0.00000000000E+00 0. -1.
         -5    1    5    5    0  502  0.39192957346E+01 -0.35073312197E+02  0.31476929140E+02  0.47522470217E+02  0.47000000000E+01 0.  1.
         13    1    6    6    0    0  0.54380421714E+02  0.73023502222E+02  0.94502334299E+02  0.13122634389E+03  0.00000000000E+00 0. -1.
        -14    1    6    6    0    0 -0.22657068268E+02  0.80015351551E+02  0.71223070540E+02  0.10949212302E+03  0.00000000000E+00 0.  1.
</event>
<event>
12    1  0.1598254E-001  0.2916150E+03  0.7818608E-02  0.1089680E+00
         21   -1    0    0  503  502  0.00000000000E+00  0.00000000000E+00  0.79641326455E+02  0.79641326455E+02  0.00000000000E+00 0. -1.
         21   -1    0    0  501  503 -0.00000000000E+00 -0.00000000000E+00 -0.11212707268E+04  0.11212707268E+04  0.00000000000E+00 0.  1.
          6    2    1    2  501    0  0.20663999207E+03 -0.11316103603E+03 -0.65663087312E+03  0.71793878318E+03  0.16960685852E+03 0.  0.
         24    2    3    3    0    0  0.12333902785E+03 -0.13453995007E+03 -0.49817126692E+03  0.53758456115E+03  0.86654689702E+02 0.  0.
         -6    2    1    2    0  502 -0.20663999207E+03  0.11316103603E+03 -0.38499852725E+03  0.48297327010E+03  0.17185402889E+03 0.  0.
        -24    2    5    5    0    0 -0.19534708040E+03  0.13119242270E+03 -0.26653715553E+03  0.36252474438E+03  0.70782776257E+02 0.  0.
          5    1    3    3  501    0  0.83300964222E+02  0.21378914039E+02 -0.15845960620E+03  0.18035422203E+03  0.47000000000E+01 0. -1.
        -11    1    4    4    0    0  0.66802299595E+02 -0.31683997166E+02 -0.28283396409E+03  0.29233794511E+03  0.00000000000E+00 0.  1.
         12    1    4    4    0    0  0.56536728258E+02 -0.10285595291E+03 -0.21533730283E+03  0.24524661604E+03  0.00000000000E+00 0. -1.
         -5    1    5    5    0  502 -0.11292911676E+02 -0.18031386666E+02 -0.11846137172E+03  0.12044852572E+03  0.47000000000E+01 0.  1.
         13    1    6    6    0    0 -0.43370090157E+01  0.33922812789E+01  0.45402986410E+01  0.71366330456E+01  0.00000000000E+00 0. -1.
        -14    1    6    6    0    0 -0.19101007138E+03  0.12780014142E+03 -0.27107745417E+03  0.35538811134E+03  0.00000000000E+00 0.  1.
</event>
<event>
12    1  0.1598254E-001  0.2905536E+03  0.7818608E-02  0.1090161E+00
         21   -1    0    0  501  502  0.00000000000E+00  0.00000000000E+00  0.47311055649E+03  0.47311055649E+03  0.00000000000E+00 0. -1.
         21   -1    0    0  502  503 -0.00000000000E+00 -0.00000000000E+00 -0.17808362052E+03  0.17808362052E+03  0.00000000000E+00 0.  1.
         -6    2    1    2    0  503  0.16586105512E+03 -0.16444378056E+03  0.13930934454E+03  0.32222425703E+03  0.17282861964E+03 0.  0.
        -24    2    3    3    0    0  0.86273714528E+02 -0.69412516712E+02  0.14434506106E+03  0.19807702857E+03  0.78343865758E+02 0.  0.
          6    2    1    2  501    0 -0.16586105512E+03  0.16444378056E+03  0.15571759143E+03  0.32896991998E+03  0.17152723806E+03 0.  0.
         24    2    5    5    0    0 -0.77233499770E+02  0.16149981907E+03  0.76357915497E+02  0.20987517349E+03  0.78548406363E+02 0.  0.
          5    1    5    5  501    0 -0.88627555353E+02  0.29439614947E+01  0.79359675935E+02  0.11909474649E+03  0.47000000000E+01 0. -1.
        -13    1    6    6    0    0 -0.44345620176E+02  0.96279922642E+02  0.85601702201E+02  0.13624980350E+03  0.00000000000E+00 0.  1.
         14    1    6    6    0    0 -0.32887879594E+02  0.65219896428E+02 -0.92437867042E+01  0.73625369995E+02  0.00000000000E+00 0. -1.
         -5    1    3    3    0  503  0.79587340595E+02 -0.95031263853E+02 -0.50357165141E+01  0.12414722846E+03  0.47000000000E+01 0.  1.
         11    1    4    4    0    0 -0.12864595001E+02 -0.53651354648E+01  0.36047142666E+01  0.14397098598E+02  0.00000000000E+00 0. -1.
        -12    1    4    4    0    0  0.99138309529E+02 -0.64047381247E+02  0.14074034679E+03  0.18367992998E+03  0.00000000000E+00 0.  1.
</event>
<event>
12    1  0.1598254E-001  0.1818715E+03  0.7818608E-02  0.1167315E+00
         21   -1    0    0  501  502  0.00000000000E+00  0.00000000000E+00  0.15966883918E+03  0.15966883918E+03  0.00000000000E+00 0.  1.
         21   -1    0    0  502  503 -0.00000000000E+00 -0.00000000000E+00 -0.20275805654E+03  0.20275805654E+03  0.00000000000E+00 0.  1.
         -6    2    1    2    0  503 -0.62554892625E+02  0.81417474697E+01 -0.45921680640E+01  0.17652569673E+03  0.16480543364E+03 0.  0.
        -24    2    3    3    0    0 -0.87646291316E+02 -0.30092462083E+02 -0.29768594176E+02  0.12411028392E+03  0.77004965556E+02 0.  0.
          6    2    1    2  501    0  0.62554892625E+02 -0.81417474697E+01 -0.38497049297E+02  0.18590119899E+03  0.17058086158E+03 0.  0.
         24    2    5    5    0    0  0.63447631608E+02 -0.56674109514E+02  0.65230515681E+01  0.11953037234E+03  0.83710232727E+02 0.  0.
          5    1    5    5  501    0 -0.89273898260E+00  0.48532362044E+02 -0.45020100865E+02  0.66370826651E+02  0.47000000000E+01 0. -1.
        -11    1    6    6    0    0  0.47567236273E+02  0.67394327270E+01 -0.15608020907E+02  0.50514079590E+02  0.00000000000E+00 0.  1.
         12    1    6    6    0    0  0.15880395334E+02 -0.63413542241E+02  0.22131072475E+02  0.69016292746E+02  0.00000000000E+00 0. -1.
         -5    1    3    3    0  503  0.25091398691E+02  0.38234209553E+02  0.25176426112E+02  0.52415412811E+02  0.47000000000E+01 0.  1.
         13    1    4    4    0    0 -0.29739409781E+01  0.20824972545E+02 -0.41889649621E+00  0.21040420165E+02  0.00000000000E+00 0. -1.
        -14    1    4    4    0    0 -0.84672350338E+02 -0.50917434629E+02 -0.29349697680E+02  0.10306986376E+03  0.00000000000E+00 0.  1.
</event>
<event>
12    1  0.1598254E-001  0.1764498E+03  0.7818608E-02  0.1171353E+00
         21   -1    0    0  503  502  0.00000000000E+00  0.00000000000E+00  0.29125778784E+03  0.29125778784E+03  0.00000000000E+00 0. -1.
         21   -1    0    0  501  503 -0.00000000000E+00 -0.00000000000E+00 -0.18245125239E+03  0.18245125239E+03  0.00000000000E+00 0. -1.
          6    2    1    2  501    0  0.12766210813E+02 -0.33194126692E+02 -0.98209064386E+02  0.20169806065E+03  0.17254640291E+03 0.  0.
         24    2    3    3    0    0  0.20819665577E+02  0.39185654453E+02 -0.17347670379E+02  0.92774482423E+02  0.79606462875E+02 0.  0.
         -6    2    1    2    0  502 -0.12766210813E+02  0.33194126692E+02  0.20701559984E+03  0.27201097958E+03  0.17282849375E+03 0.  0.
        -24    2    5    5    0    0  0.58910952275E+02  0.61283345523E+01  0.12955988840E+03  0.16296213710E+03  0.79138086047E+02 0.  0.
          5    1    3    3  501    0 -0.80534547642E+01 -0.72379781146E+02 -0.80861394007E+02  0.10892357822E+03  0.47000000000E+01 0. -1.
        -13    1    4    4    0    0 -0.13733799326E+02 -0.27482172105E+01  0.21725107174E+02  0.25848601964E+02  0.00000000000E+00 0.  1.
         14    1    4    4    0    0  0.34553464903E+02  0.41933871664E+02 -0.39072777552E+02  0.66925880459E+02  0.00000000000E+00 0. -1.
         -5    1    5    5    0  502 -0.71677163088E+02  0.27065792140E+02  0.77455711437E+02  0.10904884248E+03  0.47000000000E+01 0.  1.
         13    1    6    6    0    0  0.92119839439E+00 -0.90533593545E+01  0.91510317971E+02  0.91961677982E+02  0.00000000000E+00 0. -1.
        -14    1    6    6    0    0  0.57989753881E+02  0.15181693907E+02  0.38049570430E+02  0.71000459118E+02  0.00000000000E+00 0.  1.
</event>
<event>
12    1  0.1598254E-001  0.2490340E+03  0.7818608E-02  0.1114175E+00
         21   -1    0    0  501  502  0.00000000000E+00  0.00000000000E+00  0.51453699513E+03  0.51453699513E+03  0.00000000000E+00 0. -1.
         21   -1    0    0  502  503 -0.00000000000E+00 -0.00000000000E+00 -0.11989935061E+03  0.11989935061E+03  0.00000000000E+00 0.  1.
         -6    2    1    2    0  503  0.12055629309E+03 -0.13883168734E+03  0.20923321651E+03  0.32526368925E+03  0.16795794545E+03 0.  0.
        -24    2    3    3    0    0  0.27056976357E+02 -0.10628749747E+03  0.64573816177E+02  0.14990782642E+03  0.79205218251E+02 0.  0.
          6    2    1    2  501    0 -0.12055629309E+03  0.13883168734E+03  0.18540442801E+03  0.30917265650E+03  0.16554417050E+03 0.  0.
         24    2    5    5    0    0 -0.10254979637E+03  0.28732249973E+02  0.12387377967E+03  0.18168057550E+03  0.79505441945E+02 0.  0.
          5    1    5    5  501    0 -0.18006496716E+02  0.11009943736E+03  0.61530648339E+02  0.12749208100E+03  0.47000000000E+01 0. -1.
        -13    1    6    6    0    0 -0.10349515205E+03  0.47609409598E+02  0.10841260537E+03  0.15726155087E+03  0.00000000000E+00 0.  1.
         14    1    6    6    0    0  0.94535567720E+00 -0.18877159625E+02  0.15461174302E+02  0.24419024625E+02  0.00000000000E+00 0. -1.
         -5    1    3    3    0  503  0.93499316730E+02 -0.32544189868E+02  0.14465940033E+03  0.17535586283E+03  0.47000000000E+01 0.  1.
         11    1    4    4    0    0  0.19174409717E+02 -0.87898185327E+02  0.83223854388E+02  0.12255594197E+03  0.00000000000E+00 0. -1.
        -12    1    4    4    0    0  0.78825666392E+01 -0.18389312142E+02 -0.18650038211E+02  0.27351884453E+02  0.00000000000E+00 0.  1.
</event>
<event>
12    1  0.1598254E-001  0.4792837E+03  0.7818608E-02  0.1019571E+00
         21   -1    0    0  501  502  0.00000000000E+00  0.00000000000E+00  0.24469852161E+03  0.24469852161E+03  0.00000000000E+00 0. -1.
         21   -1    0    0  502  503 -0.00000000000E+00 -0.00000000000E+00 -0.12297598104E+04  0.12297598104E+04  0.00000000000E+00 0.  1.
         -6    2    1    2    0  503  0.21182537052E+03 -0.39039666009E+03 -0.85394242166E+03  0.97756291761E+03  0.17068116055E+03 0.  0.
        -24    2    3    3    0    0  0.13027489705E+03 -0.21145923993E+03 -0.34825659281E+03  0.43496792357E+03  0.78916925598E+02 0.  0.
          6    2    1    2  501    0 -0.21182537052E+03  0.39039666009E+03 -0.13111886715E+03  0.49689541441E+03  0.18009263097E+03 0.  0.
         24    2    5    5    0    0 -0.18439616878E+03  0.39727602021E+03 -0.10322304137E+03  0.45689599192E+03  0.79175550941E+02 0.  0.
          5    1    5    5  501    0 -0.27429201736E+02 -0.68793601185E+01 -0.27895825776E+02  0.39999422486E+02  0.47000000000E+01 0. -1.
        -11    1    6    6    0    0 -0.16506994875E+02  0.11590352238E+03 -0.35258315886E+02  0.12226715102E+03  0.00000000000E+00 0.  1.
         12    1    6    6    0    0 -0.16788917391E+03  0.28137249783E+03 -0.67964725486E+02  0.33462884090E+03  0.00000000000E+00 0. -1.
         -5    1    3    3    0  503  0.81550473474E+02 -0.17893742016E+03 -0.50568582885E+03  0.54259499404E+03  0.47000000000E+01 0.  1.
         11    1    4    4    0    0  0.73930024500E+02 -0.49116456393E+02 -0.11766894130E+03  0.14739082250E+03  0.00000000000E+00 0. -1.
        -12    1    4    4    0    0  0.56344872545E+02 -0.16234278354E+03 -0.23058765151E+03  0.28757710107E+03  0.00000000000E+00 0.  1.
</event>
<event>
12    1  0.1598254E-001  0.1864818E+03  0.7818608E-02  0.1161909E+00
         21   -1    0    0  503  502  0.00000000000E+00  0.00000000000E+00  0.11502552586E+02  0.11502552586E+02  0.00000000000E+00 0. -1.
         21   -1    0    0  501  503 -0.00000000000E+00 -0.00000000000E+00 -0.32002445642E+04  0.32002445642E+04  0.00000000000E+00 0. -1.
          6    2    1    2  501    0  0.29372777426E+02 -0.64905676868E+02 -0.19932695600E+04  0.20019737739E+04  0.17233672149E+03 0.  0.
         24    2    3    3    0    0 -0.10186346390E+02  0.24664816866E+02 -0.70776844736E+03  0.71274028137E+03  0.79689514806E+02 0.  0.
         -6    2    1    2    0  502 -0.29372777426E+02  0.64905676868E+02 -0.11954724516E+04  0.12097733429E+04  0.17123566122E+03 0.  0.
        -24    2    5    5    0    0 -0.10660572390E+02  0.43654119330E+02 -0.29441619531E+03  0.30826003609E+03  0.79523731391E+02 0.  0.
          5    1    3    3  501    0  0.39559123816E+02 -0.89570493734E+02 -0.12855011126E+04  0.12892334925E+04  0.47000000000E+01 0. -1.
        -11    1    4    4    0    0  0.32266811456E+02 -0.73372875016E+00 -0.20252078627E+03  0.20507645977E+03  0.00000000000E+00 0.  1.
         12    1    4    4    0    0 -0.42453157846E+02  0.25398545616E+02 -0.50524766109E+03  0.50766382161E+03  0.00000000000E+00 0. -1.
         -5    1    5    5    0  502 -0.18712205036E+02  0.21251557538E+02 -0.90105625632E+03  0.90151330682E+03  0.47000000000E+01 0.  1.
         13    1    6    6    0    0  0.27271165033E+02  0.28133469454E+02 -0.21851998349E+03  0.22200493627E+03  0.00000000000E+00 0. -1.
        -14    1    6    6    0    0 -0.37931737423E+02  0.15520649876E+02 -0.75896211820E+02  0.86255099821E+02  0.00000000000E+00 0.  1.
</event>
<event>
12    1  0.1598254E-001  0.2178864E+03  0.7818608E-02  0.1136069E+00
         21   -1    0    0  503  502  0.00000000000E+00  0.00000000000E+00  0.20151215284E+03  0.20151215284E+03  0.00000000000E+00 0.  1.
         21   -1    0    0  501  503 -0.00000000000E+00 -0.00000000000E+00 -0.52397280573E+03  0.52397280573E+03  0.00000000000E+00 0.  1.
          6    2    1    2  501    0 -0.41199579871E+02  0.12044881515E+03 -0.43243996402E+03  0.48423012874E+03  0.17683091541E+03 0.  0.
         24    2    3    3    0    0  0.26227635133E+01  0.11366940793E+02 -0.89406484802E+02  0.12158248852E+03  0.81564059233E+02 0.  0.
         -6    2    1    2    0  502  0.41199579871E+02 -0.12044881515E+03  0.10997931113E+03  0.24125482983E+03  0.17292519073E+03 0.  0.
        -24    2    5    5    0    0  0.39624905989E+02 -0.15034523027E+03  0.11710763147E+03  0.21012320305E+03  0.79143803734E+02 0.  0.
          5    1    3    3  501    0 -0.43822343384E+02  0.10908187435E+03 -0.34303347922E+03  0.36264764022E+03  0.47000000000E+01 0. -1.
        -11    1    4    4    0    0  0.35462223697E+02 -0.70871535100E+01 -0.70949575928E+02  0.79634410771E+02  0.00000000000E+00 0.  1.
         12    1    4    4    0    0 -0.32839460183E+02  0.18454094303E+02 -0.18456908874E+02  0.41948077750E+02  0.00000000000E+00 0. -1.
         -5    1    5    5    0  502  0.15746738818E+01  0.29896415126E+02 -0.71283203433E+01  0.31131626782E+02  0.47000000000E+01 0.  1.
         13    1    6    6    0    0  0.54660590406E+01  0.51797377861E+01 -0.53591734415E+01  0.92427390390E+01  0.00000000000E+00 0. -1.
        -14    1    6    6    0    0  0.34158846948E+02 -0.15552496806E+03  0.12246680491E+03  0.20088046401E+03  0.00000000000E+00 0.  1.
</event>
<event>
12    1  0.1598254E-001  0.1833650E+03  0.7818608E-02  0.1164661E+00
         21   -1    0    0  503  502  0.00000000000E+00  0.00000000000E+00  0.74934716155E+02  0.74934716155E+02  0.00000000000E+00 0.  1.
         21   -1    0    0  501  503 -0.00000000000E+00 -0.00000000000E+00 -0.45782444925E+03  0.45782444925E+03  0.00000000000E+00 0.  1.
          6    2    1    2  501    0 -0.48490971580E+02 -0.40242789680E+02 -0.15241266276E+03  0.23843732981E+03  0.17219722423E+03 0.  0.
         24    2    3    3    0    0 -0.95216926286E+02 -0.53444254031E+00 -0.93660790072E+02  0.15338475654E+03  0.75418772607E+02 0.  0.
         -6    2    1    2    0  502  0.48490971580E+02  0.40242789680E+02 -0.23047707034E+03  0.29432183560E+03  0.17185693618E+03 0.  0.
        -24    2    5    5    0    0  0.32706660370E+02  0.82572302928E+02 -0.10105541391E+03  0.15716139187E+03  0.81237894913E+02 0.  0.
          5    1    3    3  501    0  0.46725954705E+02 -0.39708347140E+02 -0.58751872690E+02  0.85052573273E+02  0.47000000000E+01 0. -1.
        -13    1    4    4    0    0  0.83128570401E+01 -0.12371557131E+02 -0.28747496023E+01  0.15179697075E+02  0.00000000000E+00 0.  1.
         14    1    4    4    0    0 -0.10352978333E+03  0.11837114591E+02 -0.90786040469E+02  0.13820505946E+03  0.00000000000E+00 0. -1.
         -5    1    5    5    0  502  0.15784311210E+02 -0.42329513248E+02 -0.12942165642E+03  0.13716044373E+03  0.47000000000E+01 0.  1.
         13    1    6    6    0    0  0.75443855486E+01 -0.16203309388E+02 -0.99851827362E+01  0.20473613816E+02  0.00000000000E+00 0. -1.
        -14    1    6    6    0    0  0.25162274821E+02  0.98775612316E+02 -0.91070231177E+02  0.13668777805E+03  0.00000000000E+00 0.  1.
</event>
<event>
12    1  0.1598254E-001  0.1720119E+03  0.7818608E-02  0.1176599E+00
         21   -1    0    0  503  502  0.00000000000E+00  0.00000000000E+00  0.21132675199E+03  0.21132675199E+03  0.00000000000E+00 0.  1.
         21   -1    0    0  501  503 -0.00000000000E+00 -0.00000000000E+00 -0.25780507293E+03  0.25780507293E+03  0.00000000000E+00 0.  1.
          6    2    1    2  501    0 -0.81755957019E+01 -0.47469360450E+01 -0.18364942210E+03  0.25162511741E+03  0.17175190161E+03 0.  0.
         24    2    3    3    0    0  0.43091316735E+02  0.36115242757E+02 -0.14009859608E+03  0.17277856762E+03  0.84045490457E+02 0.  0.
         -6    2    1    2    0  502  0.81755957019E+01  0.47469360450E+01  0.13717110115E+03  0.21750670752E+03  0.16853451593E+03 0.  0.
        -24    2    5    5    0    0 -0.37086794048E+01 -0.19412778601E+02  0.25126283234E+01  0.80102478652E+02  0.77585330502E+02 0.  0.
          5    1    3    3  501    0 -0.51266912436E+02 -0.40862178802E+02 -0.43550826014E+02  0.78846549790E+02  0.47000000000E+01 0. -1.
        -13    1    4    4    0    0 -0.13131139974E+02  0.29663489117E+02 -0.95089896903E+02  0.10047108000E+03  0.00000000000E+00 0.  1.
         14    1    4    4    0    0  0.56222456709E+02  0.64517536400E+01 -0.45008699178E+02  0.72307487614E+02  0.00000000000E+00 0. -1.
         -5    1    5    5    0  502  0.11884275107E+02  0.24159714646E+02  0.13465847283E+03  0.13740422887E+03  0.47000000000E+01 0.  1.
         13    1    6    6    0    0 -0.33987198725E+02 -0.37979535520E+01  0.22183520051E+02  0.40763497031E+02  0.00000000000E+00 0. -1.
        -14    1    6    6    0    0  0.30278519320E+02 -0.15614825049E+02 -0.19670891728E+02  0.39338981620E+02  0.00000000000E+00 0.  1.
</event>
<event>
12    1  0.1598254E-001  0.1837009E+03  0.7818608E-02  0.1165486E+00
         21   -1    0    0  501  502  0.00000000000E+00  0.00000000000E+00  0.90656515830E+03  0.90656515830E+03  0.00000000000E+00 0. -1.
         21   -1    0    0  502  503 -0.00000000000E+00 -0.00000000000E+00 -0.39375832764E+02  0.39375832764E+02  0.00000000000E+00 0. -1.
         -6    2    1    2    0  503 -0.46801395106E+02  0.43319799811E+02  0.30488616507E+03  0.35595168792E+03  0.17227610061E+03 0.  0.
        -24    2    3    3    0    0 -0.62779928634E+02 -0.24317507220E+02  0.12445031615E+03  0.16253683738E+03  0.79985509422E+02 0.  0.
          6    2    1    2  501    0  0.46801395106E+02 -0.43319799811E+02  0.56230316046E+03  0.58998930314E+03  0.16683991703E+03 0.  0.
         24    2    5    5    0    0  0.35259469187E+02 -0.92910663363E+02  0.41563970010E+03  0.43466792532E+03  0.79399140236E+02 0.  0.
          5    1    5    5  501    0  0.11541925918E+02  0.49590863553E+02  0.14666346036E+03  0.15532137782E+03  0.47000000000E+01 0. -1.
        -13    1    6    6    0    0  0.18414498843E+01 -0.34838395939E+01 -0.32060976834E+01  0.50800726716E+01  0.00000000000E+00 0.  1.
         14    1    6    6    0    0  0.33418019303E+02 -0.89426823769E+02  0.41884579778E+03  0.42958785265E+03  0.00000000000E+00 0. -1.
         -5    1    3    3    0  503  0.15978533529E+02  0.67637307030E+02  0.18043584892E+03  0.19341485055E+03  0.47000000000E+01 0.  1.
         11    1    4    4    0    0 -0.80644971685E+02 -0.96188052622E+01  0.10087615909E+03  0.12950726754E+03  0.00000000000E+00 0. -1.
        -12    1    4    4    0    0  0.17865043051E+02 -0.14698701958E+02  0.23574157061E+02  0.33029569837E+02  0.00000000000E+00 0.  1.
</event>
<event>
12    1  0.1598254E-001  0.2277960E+03  0.7818608E-02  0.1128267E+00
         21   -1    0    0  503  502  0.00000000000E+00  0.00000000000E+00  0.19681202699E+03  0.19681202699E+03  0.00000000000E+00 0.  1.
         21   -1    0    0  501  503 -0.00000000000E+00 -0.00000000000E+00 -0.26812138047E+03  0.26812138047E+03  0.00000000000E+00 0.  1.
          6    2    1    2  501    0 -0.14363947753E+03  0.21139790010E+02 -0.67081413177E+02  0.23746775106E+03  0.17553297858E+03 0.  0.
         24    2    3    3    0    0 -0.16972124674E+03  0.36345549249E+02 -0.83861387313E+02  0.20260901713E+03  0.62380934541E+02 0.  0.
         -6    2    1    2    0  502  0.14363947753E+03 -0.21139790010E+02 -0.42279403047E+01  0.22746565640E+03  0.17505301807E+03 0.  0.
        -24    2    5    5    0    0  0.57150728417E+02 -0.48968251624E+00 -0.64200265854E+02  0.12010877262E+03  0.83892774288E+02 0.  0.
          5    1    3    3  501    0  0.26081769208E+02 -0.15205759239E+02  0.16779974136E+02  0.34858733928E+02  0.47000000000E+01 0. -1.
        -13    1    4    4    0    0 -0.10219494503E+03  0.17576926147E+02 -0.15761208990E+02  0.10488646638E+03  0.00000000000E+00 0.  1.
         14    1    4    4    0    0 -0.67526301716E+02  0.18768623102E+02 -0.68100178323E+02  0.97722550746E+02  0.00000000000E+00 0. -1.
         -5    1    5    5    0  502  0.86488749117E+02 -0.20650107494E+02  0.59972325549E+02  0.10735688378E+03  0.47000000000E+01 0.  1.
         13    1    6    6    0    0 -0.73600402495E+01 -0.28810145015E+02 -0.10542689622E+02  0.31549056289E+02  0.00000000000E+00 0. -1.
        -14    1    6    6    0    0  0.64510768667E+02  0.28320462499E+02 -0.53657576232E+02  0.88559716334E+02  0.00000000000E+00 0.  1.
</event>
<event>
12    1  0.1598254E-001  0.2064912E+03  0.7818608E-02  0.1144958E+00
         21   -1    0    0  503  502  0.00000000000E+00  0.00000000000E+00  0.23725825661E+03  0.23725825661E+03  0.00000000000E+00 0.  1.
         21   -1    0    0  501  503 -0.00000000000E+00 -0.00000000000E+00 -0.20871949584E+03  0.20871949584E+03  0.00000000000E+00 0.  1.
          6    2    1    2  501    0 -0.78824498315E+02  0.82974985621E+02 -0.72423285909E+02  0.21612575809E+03  0.16842523918E+03 0.  0.
         24    2    3    3    0    0  0.12888541360E+01  0.47946462425E+02  0.11673263980E+02  0.94719554040E+02  0.80839374203E+02 0.  0.
         -6    2    1    2    0  502  0.78824498315E+02 -0.82974985621E+02  0.10096204668E+03  0.22985199436E+03  0.17187336812E+03 0.  0.
        -24    2    5    5    0    0  0.31599556364E+02  0.24790682214E+02  0.37795903806E+02  0.96226824905E+02  0.78854052526E+02 0.  0.
          5    1    3    3  501    0 -0.80113352451E+02  0.35028523196E+02 -0.84096549889E+02  0.12140620405E+03  0.47000000000E+01 0. -1.
        -13    1    4    4    0    0 -0.17179308403E+02  0.41558089661E+02 -0.26241094436E+02  0.52065329065E+02  0.00000000000E+00 0.  1.
         14    1    4    4    0    0  0.18468162539E+02  0.63883727642E+01  0.37914358415E+02  0.42654224975E+02  0.00000000000E+00 0. -1.
         -5    1    5    5    0  502  0.47224941951E+02 -0.10776566784E+03  0.63166142877E+02  0.13362516946E+03  0.47000000000E+01 0.  1.
         13    1    6    6    0    0  0.28658389240E+02  0.31882245750E+02 -0.13044486217E+02  0.44810037810E+02  0.00000000000E+00 0. -1.
        -14    1    6    6    0    0  0.29411671240E+01 -0.70915635361E+01  0.50840390023E+02  0.51416787095E+02  0.00000000000E+00 0.  1.
</event>
<event>
12    1  0.1598254E-001  0.2268713E+03  0.7818608E-02  0.1128882E+00
         21   -1    0    0  501  502  0.00000000000E+00  0.00000000000E+00  0.66046739173E+03  0.66046739173E+03  0.00000000000E+00 0.  1.
         21   -1    0    0  502  503 -0.00000000000E+00 -0.00000000000E+00 -0.11376951033E+03  0.11376951033E+03  0.00000000000E+00 0. -1.
         -6    2    1    2    0  503 -0.82185149089E+02 -0.12330687394E+03  0.56000853012E+02  0.23368076325E+03  0.17178946325E+03 0.  0.
        -24    2    3    3    0    0  0.12649878526E+02 -0.84687176789E+02  0.18369669213E+01  0.11774552259E+03  0.80800348411E+02 0.  0.
          6    2    1    2  501    0  0.82185149089E+02  0.12330687394E+03  0.49069702838E+03  0.54055613881E+03  0.17163444189E+03 0.  0.
         24    2    5    5    0    0  0.76429865643E+02  0.13307580675E+02  0.31125451411E+03  0.32995064568E+03  0.77262150908E+02 0.  0.
          5    1    5    5  501    0  0.57552834468E+01  0.10999929327E+03  0.17944251428E+03  0.21060549313E+03  0.47000000000E+01 0. -1.
        -11    1    6    6    0    0  0.55022193278E+02  0.54061104108E+01  0.29896170646E+03  0.30403086967E+03  0.00000000000E+00 0.  1.
         12    1    6    6    0    0  0.21407672364E+02  0.79014702639E+01  0.12292807654E+02  0.25919776010E+02  0.00000000000E+00 0. -1.
         -5    1    3    3    0  503 -0.94835027616E+02 -0.38619697155E+02  0.54163886091E+02  0.11593524066E+03  0.47000000000E+01 0.  1.
         11    1    4    4    0    0 -0.31377414419E+02 -0.50169092486E+02 -0.11385536315E+02  0.60258695752E+02  0.00000000000E+00 0. -1.
        -12    1    4    4    0    0  0.44027292946E+02 -0.34518084303E+02  0.13222503237E+02  0.57486826838E+02  0.00000000000E+00 0.  1.
</event>
<event>
12    1  0.1598254E-001  0.2482333E+03  0.7818608E-02  0.1114634E+00
         21   -1    0    0  503  502  0.00000000000E+00  0.00000000000E+00  0.20939642709E+03  0.20939642709E+03  0.00000000000E+00 0.  1.
         21   -1    0    0  501  503 -0.00000000000E+00 -0.00000000000E+00 -0.31648834135E+03  0.31648834135E+03  0.00000000000E+00 0. -1.
          6    2    1    2  501    0  0.92401703212E+02 -0.15210593298E+03  0.18611774927E+02  0.24763814913E+03  0.17118400958E+03 0.  0.
         24    2    3    3    0    0  0.71175094567E+02 -0.10209286103E+03  0.76916462826E+02  0.16780455400E+03  0.82178949434E+02 0.  0.
         -6    2    1    2    0  502 -0.92401703212E+02  0.15210593298E+03 -0.12570368918E+03  0.27824661931E+03  0.17304760639E+03 0.  0.
        -24    2    5    5    0    0 -0.61811377057E+02  0.15336870061E+03 -0.41326425271E+02  0.18836349908E+03  0.80189336569E+02 0.  0.
          5    1    3    3  501    0  0.21226608646E+02 -0.50013071948E+02 -0.58304687899E+02  0.79833595130E+02  0.47000000000E+01 0. -1.
        -11    1    4    4    0    0  0.35904248089E+02 -0.38220335262E+01 -0.31297036751E+01  0.36242489100E+02  0.00000000000E+00 0.  1.
         12    1    4    4    0    0  0.35270846478E+02 -0.98270827503E+02  0.80046166501E+02  0.13156206490E+03  0.00000000000E+00 0. -1.
         -5    1    5    5    0  502 -0.30590326156E+02 -0.12627676358E+01 -0.84377263911E+02  0.89883120226E+02  0.47000000000E+01 0.  1.
         13    1    6    6    0    0 -0.20141783454E+02  0.10020376434E+03 -0.59692148730E+02  0.11836231854E+03  0.00000000000E+00 0. -1.
        -14    1    6    6    0    0 -0.41669593603E+02  0.53164936270E+02  0.18365723460E+02  0.70001180546E+02  0.00000000000E+00 0.  1.
</event>
<event>
12    1  0.1598254E-001  0.2592023E+03  0.7818608E-02  0.1108016E+00
         21   -1    0    0  503  502  0.00000000000E+00  0.00000000000E+00  0.23366859763E+03  0.23366859763E+03  0.00000000000E+00 0.  1.
         21   -1    0    0  501  503 -0.00000000000E+00 -0.00000000000E+00 -0.28579645613E+03  0.28579645613E+03  0.00000000000E+00 0.  1.
          6    2    1    2  501    0  0.24897622091E+02  0.19121126437E+03 -0.42545117403E+02  0.26267076575E+03  0.17321721899E+03 0.  0.
         24    2    3    3    0    0  0.35077018311E+02  0.19497744147E+03  0.53491921245E+01  0.21333762190E+03  0.78979283140E+02 0.  0.
         -6    2    1    2    0  502 -0.24897622091E+02 -0.19121126437E+03 -0.95827410975E+01  0.25679428801E+03  0.16932170038E+03 0.  0.
        -24    2    5    5    0    0 -0.33013151932E+02 -0.84461979091E+02  0.57178725971E+02  0.13053877241E+03  0.74479999244E+02 0.  0.
          5    1    3    3  501    0 -0.10179396219E+02 -0.37661770955E+01 -0.47894309528E+02  0.49333143853E+02  0.47000000000E+01 0. -1.
        -13    1    4    4    0    0  0.17849982975E+01  0.74188114032E+02  0.38682142631E+02  0.83686143662E+02  0.00000000000E+00 0.  1.
         14    1    4    4    0    0  0.33292020013E+02  0.12078932744E+03 -0.33332950507E+02  0.12965147823E+03  0.00000000000E+00 0. -1.
         -5    1    5    5    0  502  0.81155298406E+01 -0.10674928528E+03 -0.66761467069E+02  0.12625551559E+03  0.47000000000E+01 0.  1.
         11    1    6    6    0    0  0.21079777944E+02 -0.29752935840E+02  0.34823314303E+02  0.50420803726E+02  0.00000000000E+00 0. -1.
        -12    1    6    6    0    0 -0.54092929876E+02 -0.54709043251E+02  0.22355411668E+02  0.80117968689E+02  0.00000000000E+00 0.  1.
</event>
<event>
12    1  0.1598254E-001  0.1802224E+03  0.7818608E-02  0.1168283E+00
         21   -1    0    0  501  502  0.00000000000E+00  0.00000000000E+00  0.16428232251E+03  0.16428232251E+03  0.00000000000E+00 0.  1.
         21   -1    0    0  502  503 -0.00000000000E+00 -0.00000000000E+00 -0.19821122072E+03  0.19821122072E+03  0.00000000000E+00 0.  1.
         -6    2    1    2    0  503  0.48346425936E+02  0.14840146579E+02  0.73972200834E+01  0.18037418327E+03  0.17298127145E+03 0.  0.
        -24    2    3    3    0    0  0.67690973594E+02  0.49670979501E+02 -0.33962275832E+02  0.12275390604E+03  0.82860190422E+02 0.  0.
          6    2    1    2  501    0 -0.48346425936E+02 -0.14840146579E+02 -0.41326118299E+02  0.18211935996E+03  0.17000590098E+03 0.  0.
         24    2    5    5    0    0 -0.68459139539E+02 -0.56778773463E+02 -0.87337256751E+00  0.12029796956E+03  0.80996023355E+02 0.  0.
          5    1    5    5  501    0  0.20112713603E+02  0.41938626883E+02 -0.40452745732E+02  0.61821390396E+02  0.47000000000E+01 0. -1.
        -13    1    6    6    0    0 -0.10624400746E+02  0.18199901764E+02  0.12749606726E+02  0.24630606714E+02  0.00000000000E+00 0.  1.
         14    1    6    6    0    0 -0.57834738793E+02 -0.74978675227E+02 -0.13622979293E+02  0.95667362850E+02  0.00000000000E+00 0. -1.
         -5    1    3    3    0  503 -0.19344547658E+02 -0.34830832921E+02  0.41359495915E+02  0.57620277234E+02  0.47000000000E+01 0.  1.
         13    1    4    4    0    0  0.11533215327E+02 -0.40716441474E+01 -0.42809067645E+02  0.44522012696E+02  0.00000000000E+00 0. -1.
        -14    1    4    4    0    0  0.56157758267E+02  0.53742623648E+02  0.88467918135E+01  0.78231893340E+02  0.00000000000E+00 0.  1.
</event>
<event>
12    1  0.1598254E-001  0.1876992E+03  0.7818608E-02  0.1161008E+00
         21   -1    0    0  501  502  0.00000000000E+00  0.00000000000E+00  0.49397318506E+02  0.49397318506E+02  0.00000000000E+00 0. -1.
         21   -1    0    0  502  503 -0.00000000000E+00 -0.00000000000E+00 -0.12527239165E+04  0.12527239165E+04  0.00000000000E+00 0. -1.
         -6    2    1    2    0  503  0.20581658581E+02  0.67918314204E+02 -0.10300814061E+04  0.10466904519E+04  0.17162953324E+03 0.  0.
        -24    2    3    3    0    0  0.47827388661E+01  0.79494599834E+02 -0.10157319858E+04  0.10219596590E+04  0.79673154930E+02 0.  0.
          6    2    1    2  501    0 -0.20581658581E+02 -0.67918314204E+02 -0.17324519180E+03  0.25543078309E+03  0.17376560762E+03 0.  0.
         24    2    5    5    0    0  0.29809198740E+02 -0.75524296344E+02 -0.55997491723E+02  0.12750032292E+03  0.80796692982E+02 0.  0.
          5    1    5    5  501    0 -0.50390857321E+02  0.76059821399E+01 -0.11724770008E+03  0.12793046017E+03  0.47000000000E+01 0. -1.
        -11    1    6    6    0    0  0.21002010812E+02 -0.53895580123E+02 -0.76854292009E+02  0.96189397623E+02  0.00000000000E+00 0.  1.
         12    1    6    6    0    0  0.88071879286E+01 -0.21628716221E+02  0.20856800286E+02  0.31310925294E+02  0.00000000000E+00 0. -1.
         -5    1    3    3    0  503  0.15798919715E+02 -0.11576285630E+02 -0.14349420366E+02  0.24730792911E+02  0.47000000000E+01 0.  1.
         11    1    4    4    0    0  0.34927880668E+02  0.14671806357E+02 -0.47754382352E+03  0.47904417556E+03  0.00000000000E+00 0. -1.
        -12    1    4    4    0    0 -0.30145141802E+02  0.64822793477E+02 -0.53818816226E+03  0.54291548341E+03  0.00000000000E+00 0.  1.
</event>
<event>
12    1  0.1598254E-001  0.1873386E+03  0.7818608E-02  0.1161192E+00
         21   -1    0    0  503  502  0.00000000000E+00  0.00000000000E+00  0.11404681824E+03  0.11404681824E+03  0.00000000000E+00 0.  1.
         21   -1    0    0  501  503 -0.00000000000E+00 -0.00000000000E+00 -0.51061279303E+03  0.51061279303E+03  0.00000000000E+00 0.  1.
          6    2    1    2  501    0  0.32960421428E+02 -0.67830806514E+02 -0.39664021706E+03  0.43865615630E+03  0.17148864095E+03 0.  0.
         24    2    3    3    0    0  0.26172404839E+01 -0.10304838538E+03 -0.21653897328E+03  0.25259290227E+03  0.79298345811E+02 0.  0.
         -6    2    1    2    0  502 -0.32960421428E+02  0.67830806514E+02  0.74242268802E-01  0.18600345497E+03  0.17002903298E+03 0.  0.
        -24    2    5    5    0    0  0.75590710449E+00  0.87308868885E+02 -0.44485572846E+02  0.12664140609E+03  0.80222625016E+02 0.  0.
          5    1    3    3  501    0  0.30343180944E+02  0.35217578861E+02 -0.18010124378E+03  0.18606325403E+03  0.47000000000E+01 0. -1.
        -13    1    4    4    0    0 -0.15379327901E+02 -0.34918336898E+02 -0.15308012643E+03  0.15776355437E+03  0.00000000000E+00 0.  1.
         14    1    4    4    0    0  0.17996568385E+02 -0.68130048477E+02 -0.63458846853E+02  0.94829347900E+02  0.00000000000E+00 0. -1.
         -5    1    5    5    0  502 -0.33716328533E+02 -0.19478062371E+02  0.44559815115E+02  0.59362048874E+02  0.47000000000E+01 0.  1.
         11    1    6    6    0    0 -0.76268541530E+01  0.34951964949E+02 -0.61334437487E+02  0.71005084183E+02  0.00000000000E+00 0. -1.
        -12    1    6    6    0    0  0.83827612575E+01  0.52356903936E+02  0.16848864640E+02  0.55636321910E+02  0.00000000000E+00 0.  1.
</event>
<event>
12    1  0.1598254E-001  0.1964422E+03  0.7818608E-02  0.1156250E+00
         21   -1    0    0  501  502  0.00000000000E+00  0.00000000000E+00  0.18439292095E+03  0.18439292095E+03  0.00000000000E+00 0.  1.
         21   -1    0    0  502  503 -0.00000000000E+00 -0.00000000000E+00 -0.29338122960E+03  0.29338122960E+03  0.00000000000E+00 0.  1.
         -6    2    1    2    0  503 -0.37826242576E+02  0.49702536532E+02 -0.19255387847E+03  0.26429644956E+03  0.16992483741E+03 0.  0.
        -24    2    3    3    0    0 -0.73915732307E+02  0.38316756448E+01 -0.16938122291E+03  0.20132304951E+03  0.79766875132E+02 0.  0.
          6    2    1    2  501    0  0.37826242576E+02 -0.49702536532E+02  0.83565569825E+02  0.21347770099E+03  0.18624810762E+03 0.  0.
         24    2    5    5    0    0  0.41295826416E+02 -0.47480431508E+02  0.13095116913E+03  0.16568166784E+03  0.79639623964E+02 0.  0.
          5    1    5    5  501    0 -0.34695838394E+01 -0.22221050245E+01 -0.47385599309E+02  0.47796033147E+02  0.47000000000E+01 0. -1.
        -11    1    6    6    0    0 -0.11517898721E+02 -0.41717467441E+02  0.85233727662E+02  0.95591827118E+02  0.00000000000E+00 0.  1.
         12    1    6    6    0    0  0.52813725137E+02 -0.57629640667E+01  0.45717441472E+02  0.70089840722E+02  0.00000000000E+00 0. -1.
         -5    1    3    3    0  503  0.36089489731E+02  0.45870860888E+02 -0.23172655565E+02  0.62973400047E+02  0.47000000000E+01 0.  1.
         11    1    4    4    0    0  0.11271143538E+02  0.10553558676E+02 -0.63037396848E+02  0.64900922018E+02  0.00000000000E+00 0. -1.
        -12    1    4    4    0    0 -0.85186875845E+02 -0.67218830307E+01 -0.10634382606E+03  0.13642212749E+03  0.00000000000E+00 0.  1.
</event>
<event>
12    1  0.1598254E-001  0.2340822E+03  0.7818608E-02  0.1124171E+00
         21   -1    0    0  503  502  0.00000000000E+00  0.00000000000E+00  0.11355043828E+03  0.11355043828E+03  0.00000000000E+00 0.  1.
         21   -1    0    0  501  503 -0.00000000000E+00 -0.00000000000E+00 -0.56899061166E+03  0.56899061166E+03  0.00000000000E+00 0.  1.
          6    2    1    2  501    0 -0.89151955355E+02 -0.13142150135E+03 -0.36320729179E+03  0.43094338973E+03  0.16903545836E+03 0.  0.
         24    2    3    3    0    0 -0.12276589369E+03 -0.95532026604E+02 -0.32733770671E+03  0.36989694527E+03  0.73999615708E+02 0.  0.
         -6    2    1    2    0  502  0.89151955355E+02  0.13142150135E+03 -0.92232881587E+02  0.25159766021E+03  0.17197324216E+03 0.  0.
        -24    2    5    5    0    0  0.84245220266E+02  0.95456764086E+02  0.31319328471E+01  0.14945033422E+03  0.78207048583E+02 0.  0.
          5    1    3    3  501    0  0.33613938333E+02 -0.35889474743E+02 -0.35869585078E+02  0.61046444461E+02  0.47000000000E+01 0. -1.
        -13    1    4    4    0    0 -0.39905515452E+02 -0.48776354671E+02 -0.20764276244E+03  0.21699562146E+03  0.00000000000E+00 0.  1.
         14    1    4    4    0    0 -0.82860378236E+02 -0.46755671933E+02 -0.11969494427E+03  0.15290132381E+03  0.00000000000E+00 0. -1.
         -5    1    5    5    0  502  0.49067350890E+01  0.35964737262E+02 -0.95364814434E+02  0.10214732599E+03  0.47000000000E+01 0.  1.
         13    1    6    6    0    0  0.85104805836E+02  0.49293735451E+02 -0.15683796103E+02  0.99592578997E+02  0.00000000000E+00 0. -1.
        -14    1    6    6    0    0 -0.85958556993E+00  0.46163028635E+02  0.18815728950E+02  0.49857755224E+02  0.00000000000E+00 0.  1.
</event>
<event>
12    1  0.1598254E-001  0.1929899E+03  0.7818608E-02  0.1155864E+00
         21   -1    0    0  503  502  0.00000000000E+00  0.00000000000E+00  0.40282903794E+03  0.40282903794E+03  0.00000000000E+00 0.  1.
         21   -1    0    0  501  503 -0.00000000000E+00 -0.00000000000E+00 -0.14760212153E+03  0.14760212153E+03  0.00000000000E+00 0.  1.
          6    2    1    2  501    0 -0.81473466195E+02  0.31231537733E+02 -0.40908716876E+02  0.19696061185E+03  0.17177492501E+03 0.  0.
         24    2    3    3    0    0 -0.11231870863E+02  0.58252549481E+02 -0.77688946382E+01  0.11459341809E+03  0.97733214934E+02 0.  0.
         -6    2    1    2    0  502  0.81473466195E+02 -0.31231537733E+02  0.29613563328E+03  0.35347054762E+03  0.17213883959E+03 0.  0.
        -24    2    5    5    0    0  0.56705269758E+02 -0.38643982072E+02  0.75134922563E+02  0.13091311228E+03  0.82365899561E+02 0.  0.
          5    1    3    3  501    0 -0.70241595332E+02 -0.27021011748E+02 -0.33139822238E+02  0.82367193765E+02  0.47000000000E+01 0. -1.
        -11    1    4    4    0    0 -0.53014739004E+02  0.21256779694E+02 -0.12881431003E+02  0.58552066567E+02  0.00000000000E+00 0.  1.
         12    1    4    4    0    0  0.41782868141E+02  0.36995769787E+02  0.51125363648E+01  0.56041351521E+02  0.00000000000E+00 0. -1.
         -5    1    5    5    0  502  0.24768196437E+02  0.74124443387E+01  0.22100071072E+03  0.22255743534E+03  0.47000000000E+01 0.  1.
         13    1    6    6    0    0  0.11338738958E+02 -0.50347416672E+02  0.13229768977E+02  0.53277163531E+02  0.00000000000E+00 0. -1.
        -14    1    6    6    0    0  0.45366530800E+02  0.11703434601E+02  0.61905153586E+02  0.77635948753E+02  0.00000000000E+00 0.  1.
</event>
<event>
12    1  0.1598254E-001  0.1979774E+03  0.7818608E-02  0.1154728E+00
         21   -1    0    0  503  502  0.00000000000E+00  0.00000000000E+00  0.58101347540E+03  0.58101347540E+03  0.00000000000E+00 0.  1.
         21   -1    0    0  501  503 -0.00000000000E+00 -0.00000000000E+00 -0.13771689970E+03  0.13771689970E+03  0.00000000000E+00 0. -1.
          6    2    1    2  501    0  0.64211833141E+02 -0.15328387726E+01 -0.39882534055E+02  0.20195463156E+03  0.18726865081E+03 0.  0.
         24    2    3    3    0    0  0.75170365194E+02 -0.33618962422E+02  0.35117088806E+02  0.11951288131E+03  0.79178914082E+02 0.  0.
         -6    2    1    2    0  502 -0.64211833141E+02  0.15328387726E+01  0.48317910975E+03  0.51677574354E+03  0.17166714275E+03 0.  0.
        -24    2    5    5    0    0 -0.79260554980E+02  0.28391887528E+02  0.47160728208E+03  0.48355120856E+03  0.65726767256E+02 0.  0.
          5    1    3    3  501    0 -0.10958532053E+02  0.32086123650E+02 -0.74999622861E+02  0.82441750254E+02  0.47000000000E+01 0. -1.
        -11    1    4    4    0    0  0.47855435148E+02  0.21656135284E+02  0.17984923773E+02  0.55521062235E+02  0.00000000000E+00 0.  1.
         12    1    4    4    0    0  0.27314930046E+02 -0.55275097706E+02  0.17132165033E+02  0.63991819076E+02  0.00000000000E+00 0. -1.
         -5    1    5    5    0  502  0.15048721839E+02 -0.26859048756E+02  0.11571827672E+02  0.33224534981E+02  0.47000000000E+01 0.  1.
         11    1    6    6    0    0 -0.24395923628E+02  0.88112440609E+01  0.37761417494E+02  0.45811829943E+02  0.00000000000E+00 0. -1.
        -12    1    6    6    0    0 -0.54864631352E+02  0.19580643467E+02  0.43384586458E+03  0.43773937861E+03  0.00000000000E+00 0.  1.
</event>
<event>
12    1  0.1598254E-001  0.1793038E+03  0.7818608E-02  0.1168574E+00
         21   -1    0    0  501  502  0.00000000000E+00  0.00000000000E+00  0.61370734796E+03  0.61370734796E+03  0.00000000000E+00 0. -1.
         21   -1    0    0  502  503 -0.00000000000E+00 -0.00000000000E+00 -0.19018198260E+03  0.19018198260E+03  0.00000000000E+00 0. -1.
         -6    2    1    2    0  503 -0.49757756115E+02 -0.19907038403E+01 -0.13058007463E+03  0.22149538878E+03  0.17184078143E+03 0.  0.
        -24    2    3    3    0    0  0.69673759348E+01  0.56641551413E+02 -0.60863139361E+02  0.11408019886E+03  0.77802058870E+02 0.  0.
          6    2    1    2  501    0  0.49757756115E+02  0.19907038403E+01  0.55410543999E+03  0.58239394178E+03  0.17225001482E+03 0.  0.
         24    2    5    5    0    0  0.36193035956E+02 -0.47705387544E+02  0.49140172585E+03  0.50110711075E+03  0.77762075772E+02 0.  0.
          5    1    5    5  501    0  0.13564720159E+02  0.49696091385E+02  0.62703714144E+02  0.81286831033E+02  0.47000000000E+01 0. -1.
        -13    1    6    6    0    0  0.10817768348E+00 -0.23459795306E+02  0.32134737597E+02  0.39787121768E+02  0.00000000000E+00 0.  1.
         14    1    6    6    0    0  0.36084858273E+02 -0.24245592239E+02  0.45926698825E+03  0.46131998898E+03  0.00000000000E+00 0. -1.
         -5    1    3    3    0  503 -0.56725132050E+02 -0.58632255254E+02 -0.69716935271E+02  0.10741518992E+03  0.47000000000E+01 0.  1.
         13    1    4    4    0    0  0.73737676551E+01 -0.17860525255E+02 -0.25926192722E+01  0.19495960775E+02  0.00000000000E+00 0. -1.
        -14    1    4    4    0    0 -0.40639172034E+00  0.74502076669E+02 -0.58270520089E+02  0.94584238082E+02  0.00000000000E+00 0.  1.
</event>
<event>
12    1  0.1598254E-001  0.1729870E+03  0.7818608E-02  0.1174806E+00
         21   -1    0    0  503  502  0.00000000000E+00  0.00000000000E+00  0.47654466085E+03  0.47654466085E+03  0.00000000000E+00 0.  1.
         21   -1    0    0  501  503 -0.00000000000E+00 -0.00000000000E+00 -0.91728746049E+02  0.91728746049E+02  0.00000000000E+00 0.  1.
          6    2    1    2  501    0 -0.21835044699E+01  0.15759924457E+02  0.35219503270E+03  0.39238481746E+03  0.17225376919E+03 0.  0.
         24    2    3    3    0    0  0.45444485251E+02  0.27366004154E+02  0.31894440360E+03  0.33296410704E+03  0.79532789253E+02 0.  0.
         -6    2    1    2    0  502  0.21835044699E+01 -0.15759924457E+02  0.32620882101E+02  0.17588858944E+03  0.17210325690E+03 0.  0.
        -24    2    5    5    0    0  0.75097750589E+01 -0.17952993292E+02  0.86897880046E+02  0.12110482163E+03  0.82075755110E+02 0.  0.
          5    1    3    3  501    0 -0.47627989721E+02 -0.11606079696E+02  0.33250629098E+02  0.59420710415E+02  0.47000000000E+01 0. -1.
        -11    1    4    4    0    0  0.53704729833E+02  0.13972683069E+02  0.10789745891E+03  0.12133134598E+03  0.00000000000E+00 0.  1.
         12    1    4    4    0    0 -0.82602445816E+01  0.13393321084E+02  0.21104694469E+03  0.21163276106E+03  0.00000000000E+00 0. -1.
         -5    1    5    5    0  502 -0.53262705890E+01  0.21930688349E+01 -0.54276997946E+02  0.54783767808E+02  0.47000000000E+01 0.  1.
         13    1    6    6    0    0  0.25433977146E+02 -0.34921079005E+02  0.16059798482E+02  0.46089978083E+02  0.00000000000E+00 0. -1.
        -14    1    6    6    0    0 -0.17924202087E+02  0.16968085713E+02  0.70838081565E+02  0.75014843551E+02  0.00000000000E+00 0.  1.
</event>
<event>
12    1  0.1598254E-001  0.1810895E+03  0.7818608E-02  0.1166917E+00
         21   -1    0    0  501  502  0.00000000000E+00  0.00000000000E+00  0.80132834318E+02  0.80132834318E+02  0.00000000000E+00 0.  1.
         21   -1    0    0  502  503 -0.00000000000E+00 -0.00000000000E+00 -0.50459224355E+03  0.50459224355E+03  0.00000000000E+00 0. -1.
         -6    2    1    2    0  503 -0.41895676532E+02  0.37220782492E+02 -0.34066895667E+03  0.38580922067E+03  0.17219983261E+03 0.  0.
        -24    2    3    3    0    0  0.32287354668E+02 -0.15461043069E+02 -0.19931015789E+03  0.21763402376E+03  0.79740279250E+02 0.  0.
          6    2    1    2  501    0  0.41895676532E+02 -0.37220782492E+02 -0.83790452566E+02  0.19891585721E+03  0.17148190559E+03 0.  0.
         24    2    5    5    0    0  0.70941457392E+02  0.35172300557E+00 -0.99697050071E+02  0.14861217544E+03  0.84340161310E+02 0.  0.
          5    1    5    5  501    0 -0.29045780860E+02 -0.37572505497E+02  0.15906597505E+02  0.50303681767E+02  0.47000000000E+01 0. -1.
        -11    1    6    6    0    0  0.11617513055E+01 -0.19645698363E+02  0.58340853215E+01  0.20526560399E+02  0.00000000000E+00 0.  1.
         12    1    6    6    0    0  0.69779706087E+02  0.19997421369E+02 -0.10553113539E+03  0.12808561504E+03  0.00000000000E+00 0. -1.
         -5    1    3    3    0  503 -0.74183031201E+02  0.52681825560E+02 -0.14135879878E+03  0.16817519691E+03  0.47000000000E+01 0.  1.
         13    1    4    4    0    0  0.11641769283E+02  0.20886259442E+02 -0.15455425826E+03  0.15639304771E+03  0.00000000000E+00 0. -1.
        -14    1    4    4    0    0  0.20645585385E+02 -0.36347302511E+02 -0.44755899630E+02  0.61240976049E+02  0.00000000000E+00 0.  1.
</event>
<event>
12    1  0.1598254E-001  0.2333951E+03  0.7818608E-02  0.1124306E+00
         21   -1    0    0  501  502  0.00000000000E+00  0.00000000000E+00  0.22897956469E+03  0.22897956469E+03  0.00000000000E+00 0. -1.
         21   -1    0    0  502  503 -0.00000000000E+00 -0.00000000000E+00 -0.24209390795E+03  0.24209390795E+03  0.00000000000E+00 0.  1.
         -6    2    1    2    0  503  0.92873472661E+02 -0.12686526112E+03  0.25183571363E+02  0.23455712044E+03  0.17222820349E+03 0.  0.
        -24    2    3    3    0    0  0.99775334957E+02 -0.72893320285E+02  0.70622700121E+02  0.16351199025E+03  0.80498767547E+02 0.  0.
          6    2    1    2  501    0 -0.92873472661E+02  0.12686526112E+03 -0.38297914616E+02  0.23651635220E+03  0.17249051624E+03 0.  0.
         24    2    5    5    0    0 -0.69929930283E+02  0.26530710511E+01 -0.22860493449E+02  0.10917634172E+03  0.80620329286E+02 0.  0.
          5    1    5    5  501    0 -0.22943542378E+02  0.12421219007E+03 -0.15437421166E+02  0.12734001048E+03  0.47000000000E+01 0. -1.
        -13    1    6    6    0    0 -0.84415003868E+02  0.17144643529E+02 -0.16342579063E+02  0.87675033905E+02  0.00000000000E+00 0.  1.
         14    1    6    6    0    0  0.14485073585E+02 -0.14491572478E+02 -0.65179143858E+01  0.21501307811E+02  0.00000000000E+00 0. -1.
         -5    1    3    3    0  503 -0.69018622961E+01 -0.53971940833E+02 -0.45439128758E+02  0.71045130183E+02  0.47000000000E+01 0.  1.
         13    1    4    4    0    0  0.11373476844E+03 -0.60980461415E+02  0.60125595650E+02  0.14237029704E+03  0.00000000000E+00 0. -1.
        -14    1    4    4    0    0 -0.13959433485E+02 -0.11912858870E+02  0.10497104471E+02  0.21141693214E+02  0.00000000000E+00 0.  1.
</event>
<event>
12    1  0.1598254E-001  0.1764042E+03  0.7818608E-02  0.1171875E+00
         21   -1    0    0  501  502  0.00000000000E+00  0.00000000000E+00  0.24114983580E+03  0.24114983580E+03  0.00000000000E+00 0.  1.
         21   -1    0    0  502  503 -0.00000000000E+00 -0.00000000000E+00 -0.18993533148E+03  0.18993533148E+03  0.00000000000E+00 0.  1.
         -6    2    1    2    0  503  0.35393560130E+02  0.10108346636E+02  0.14934122267E+03  0.23113035731E+03  0.17252118278E+03 0.  0.
        -24    2    3    3    0    0  0.38210346428E+02  0.41014267233E+02  0.21407798336E+02  0.99402754750E+02  0.79249057607E+02 0.  0.
          6    2    1    2  501    0 -0.35393560130E+02 -0.10108346636E+02 -0.98126718351E+02  0.19995480997E+03  0.17028855042E+03 0.  0.
         24    2    5    5    0    0 -0.87878845929E+02  0.12748564954E+01 -0.80318710953E+02  0.14317895536E+03  0.79528618169E+02 0.  0.
          5    1    5    5  501    0  0.52485285799E+02 -0.11383203131E+02 -0.17808007398E+02  0.56775854607E+02  0.47000000000E+01 0. -1.
        -13    1    6    6    0    0  0.93755119431E+01  0.69221181484E+01 -0.32761076352E+02  0.34772173754E+02  0.00000000000E+00 0.  1.
         14    1    6    6    0    0 -0.97254357872E+02 -0.56472616530E+01 -0.47557634601E+02  0.10840678161E+03  0.00000000000E+00 0. -1.
         -5    1    3    3    0  503 -0.28167862972E+01 -0.30905920597E+02  0.12793342434E+03  0.13172760256E+03  0.47000000000E+01 0.  1.
         13    1    4    4    0    0  0.48513990457E+02  0.54956143662E+02  0.19357393635E+01  0.73331658124E+02  0.00000000000E+00 0. -1.
        -14    1    4    4    0    0 -0.10303644030E+02 -0.13941876429E+02  0.19472058972E+02  0.26071096626E+02  0.00000000000E+00 0.  1.
</event>
<event>
12    1  0.1598254E-001  0.1798254E+03  0.7818608E-02  0.1168165E+00
         21   -1    0    0  501  502  0.00000000000E+00  0.00000000000E+00  0.14821958565E+03  0.14821958565E+03  0.00000000000E+00 0.  1.
         21   -1    0    0  502  503 -0.00000000000E+00 -0.00000000000E+00 -0.21902530581E+03  0.21902530581E+03  0.00000000000E+00 0.  1.
         -6    2    1    2    0  503 -0.38525039069E+02 -0.32339771158E+02 -0.52055963170E+02  0.18644465449E+03  0.17181893508E+03 0.  0.
        -24    2    3    3    0    0  0.26413002914E+01 -0.80515058504E+02 -0.46225640318E+02  0.12263549784E+03  0.80081236224E+02 0.  0.
          6    2    1    2  501    0  0.38525039069E+02  0.32339771158E+02 -0.18749756994E+02  0.18080023698E+03  0.17264742358E+03 0.  0.
         24    2    5    5    0    0 -0.22771394327E+02  0.55937164436E+02 -0.48437770020E+02  0.10856757239E+03  0.76113056990E+02 0.  0.
          5    1    5    5  501    0  0.61296433396E+02 -0.23597393278E+02  0.29688013027E+02  0.72232664592E+02  0.47000000000E+01 0. -1.
        -13    1    6    6    0    0  0.14992815345E+02  0.48245021318E+02 -0.48492658099E+02  0.70027883614E+02  0.00000000000E+00 0.  1.
         14    1    6    6    0    0 -0.37764209672E+02  0.76921431185E+01  0.54888078986E-01  0.38539688771E+02  0.00000000000E+00 0. -1.
         -5    1    3    3    0  503 -0.41166339360E+02  0.48175287346E+02 -0.58303228519E+01  0.63809156645E+02  0.47000000000E+01 0.  1.
         13    1    4    4    0    0  0.12769169018E+02  0.13659930501E+02 -0.10182188619E+02  0.21291367823E+02  0.00000000000E+00 0. -1.
        -14    1    4    4    0    0 -0.10127868727E+02 -0.94174989005E+02 -0.36043451699E+02  0.10134413002E+03  0.00000000000E+00 0.  1.
</event>
<event>
12    1  0.1598254E-001  0.2431296E+03  0.7818608E-02  0.1118422E+00
         21   -1    0    0  501  502  0.00000000000E+00  0.00000000000E+00  0.66574214640E+02  0.66574214640E+02  0.00000000000E+00 0. -1.
         21   -1    0    0  502  503 -0.00000000000E+00 -0.00000000000E+00 -0.97584489987E+03  0.97584489987E+03  0.00000000000E+00 0.  1.
         -6    2    1    2    0  503  0.16493812328E+03 -0.22334896036E+02 -0.62771903332E+03  0.67315910936E+03  0.17722463041E+03 0.  0.
        -24    2    3    3    0    0  0.13380333306E+03 -0.17243939192E+02 -0.26086416820E+03  0.30492022621E+03  0.82009418484E+02 0.  0.
          6    2    1    2  501    0 -0.16493812328E+03  0.22334896036E+02 -0.28155165191E+03  0.36926000515E+03  0.17140066109E+03 0.  0.
         24    2    5    5    0    0 -0.84342260663E+02 -0.51355384703E+02 -0.18031813960E+03  0.22027589674E+03  0.79093910906E+02 0.  0.
          5    1    5    5  501    0 -0.80595862616E+02  0.73690280739E+02 -0.10123351230E+03  0.14898410841E+03  0.47000000000E+01 0. -1.
        -13    1    6    6    0    0 -0.61111300935E+02  0.86661385662E+01 -0.97409484523E+02  0.11531825846E+03  0.00000000000E+00 0.  1.
         14    1    6    6    0    0 -0.23230959728E+02 -0.60021523269E+02 -0.82908655080E+02  0.10495763828E+03  0.00000000000E+00 0. -1.
         -5    1    3    3    0  503  0.31134790221E+02 -0.50909568439E+01 -0.36685486512E+03  0.36823888315E+03  0.47000000000E+01 0.  1.
         13    1    4    4    0    0  0.18645892576E+02 -0.21769517671E+01  0.64290103131E+00  0.18783550003E+02  0.00000000000E+00 0. -1.
        -14    1    4    4    0    0  0.11515744048E+03 -0.15066987425E+02 -0.26150706924E+03  0.28613667620E+03  0.00000000000E+00 0.  1.
</event>
<event>
12    1  0.1598254E-001  0.2365293E+03  0.7818608E-02  0.1122175E+00
         21   -1    0    0  501  502  0.00000000000E+00  0.00000000000E+00  0.21292459966E+03  0.21292459966E+03  0.00000000000E+00 0.  1.
         21   -1    0    0  502  503 -0.00000000000E+00 -0.00000000000E+00 -0.31319912986E+03  0.31319912986E+03  0.00000000000E+00 0. -1.
         -6    2    1    2    0  503  0.12541108576E+03  0.10273755693E+03 -0.15601884689E+03  0.28311442604E+03  0.17183990111E+03 0.  0.
        -24    2    3    3    0    0  0.44918617723E+02  0.11886023003E+03 -0.83371716868E+02  0.17339353697E+03  0.83480770170E+02 0.  0.
          6    2    1    2  501    0 -0.12541108576E+03 -0.10273755693E+03  0.55744316690E+02  0.24300930348E+03  0.17222992394E+03 0.  0.
         24    2    5    5    0    0 -0.10797154460E+03 -0.13919054514E+03  0.29903187501E+02  0.19481374453E+03  0.77629454027E+02 0.  0.
          5    1    5    5  501    0 -0.17439541158E+02  0.36452988211E+02  0.25841129190E+02  0.48195558956E+02  0.47000000000E+01 0. -1.
        -11    1    6    6    0    0 -0.36663664187E+02 -0.82456549908E+02  0.47542937119E+02  0.10199822432E+03  0.00000000000E+00 0.  1.
         12    1    6    6    0    0 -0.71307880416E+02 -0.56733995233E+02 -0.17639749618E+02  0.92815520206E+02  0.00000000000E+00 0. -1.
         -5    1    3    3    0  503  0.80492468038E+02 -0.16122673101E+02 -0.72647130022E+02  0.10972088907E+03  0.47000000000E+01 0.  1.
         13    1    4    4    0    0  0.31977121780E+02  0.35491645084E+02 -0.74581584826E+02  0.88569780305E+02  0.00000000000E+00 0. -1.
        -14    1    4    4    0    0  0.12941495943E+02  0.83368584948E+02 -0.87901320418E+01  0.84823756665E+02  0.00000000000E+00 0.  1.
</event>
<event>
12    1  0.1598254E-001  0.2036017E+03  0.7818608E-02  0.1148011E+00
         21   -1    0    0  501  502  0.00000000000E+00  0.00000000000E+00  0.74889823841E+03  0.74889823841E+03  0.00000000000E+00 0. -1.
         21   -1    0    0  502  503 -0.00000000000E+00 -0.00000000000E+00 -0.58081060100E+02  0.58081060100E+02  0.00000000000E+00 0. -1.
         -6    2    1    2    0  503 -0.20055371217E+02 -0.97824870256E+02  0.45124124919E+03  0.49257468699E+03  0.17040902010E+03 0.  0.
        -24    2    3    3    0    0 -0.44808851405E+01 -0.13586871884E+02  0.35353867181E+03  0.36254973317E+03  0.79044513677E+02 0.  0.
          6    2    1    2  501    0  0.20055371217E+02  0.97824870256E+02  0.23957592911E+03  0.31440461152E+03  0.17743086197E+03 0.  0.
         24    2    5    5    0    0  0.81066746307E+01  0.10031204713E+03  0.67939794557E+02  0.14227091324E+03  0.74141567929E+02 0.  0.
          5    1    5    5  501    0  0.11948696586E+02 -0.24871768786E+01  0.17163613455E+03  0.17213369828E+03  0.47000000000E+01 0. -1.
        -13    1    6    6    0    0 -0.23731525113E+02  0.86523592215E+02  0.42675416311E+02  0.99351439100E+02  0.00000000000E+00 0.  1.
         14    1    6    6    0    0  0.31838199744E+02  0.13788454920E+02  0.25264378246E+02  0.42919474137E+02  0.00000000000E+00 0. -1.
         -5    1    3    3    0  503 -0.15574486077E+02 -0.84237998372E+02  0.97702577389E+02  0.13002495382E+03  0.47000000000E+01 0.  1.
         13    1    4    4    0    0 -0.29585755421E+02  0.17606204467E+02  0.97518980630E+02  0.10341782701E+03  0.00000000000E+00 0. -1.
        -14    1    4    4    0    0  0.25104870280E+02 -0.31193076351E+02  0.25601969118E+03  0.25913190617E+03  0.00000000000E+00 0.  1.
</event>
<event>
12    1  0.1598254E-001  0.2159164E+03  0.7818608E-02  0.1136970E+00
         21   -1    0    0  501  502  0.00000000000E+00  0.00000000000E+00  0.10240429024E+04  0.10240429024E+04  0.00000000000E+00 0. -1.
         21   -1    0    0  502  503 -0.00000000000E+00 -0.00000000000E+00 -0.34551418300E+03  0.34551418300E+03  0.00000000000E+00 0. -1.
         -6    2    1    2    0  503  0.12370824173E+03 -0.42645490010E+02 -0.29881096143E+03  0.36865687893E+03  0.17174846963E+03 0.  0.
        -24    2    3    3    0    0  0.14867320173E+03 -0.27069042828E+02 -0.29127349404E+03  0.33791963200E+03  0.80703007163E+02 0.  0.
          6    2    1    2  501    0 -0.12370824173E+03  0.42645490010E+02  0.97733968083E+03  0.10009002065E+04  0.17171489368E+03 0.  0.
         24    2    5    5    0    0 -0.12050520755E+03 -0.26337005119E+02  0.65421852945E+03  0.67044867821E+03  0.79274226321E+02 0.  0.
          5    1    5    5  501    0 -0.32030341814E+01  0.68982495129E+02  0.32312115138E+03  0.33045152826E+03  0.47000000000E+01 0. -1.
        -13    1    6    6    0    0  0.18895803609E+01 -0.99409569104E+01  0.90728143026E+01  0.13590772517E+02  0.00000000000E+00 0.  1.
         14    1    6    6    0    0 -0.12239478791E+03 -0.16396048209E+02  0.64514571515E+03  0.65685790570E+03  0.00000000000E+00 0. -1.
         -5    1    3    3    0  503 -0.24964959996E+02 -0.15576447182E+02 -0.75374673875E+01  0.30737246934E+02  0.47000000000E+01 0.  1.
         11    1    4    4    0    0  0.13897982210E+03 -0.48652890883E+02 -0.24239654970E+03  0.28361696361E+03  0.00000000000E+00 0. -1.
        -12    1    4    4    0    0  0.96933796313E+01  0.21583848055E+02 -0.48876944344E+02  0.54302668387E+02  0.00000000000E+00 0.  1.
</event>
<event>
12    1  0.1598254E-001  0.1728419E+03  0.7818608E-02  0.1174994E+00
         21   -1    0    0  501  502  0.00000000000E+00  0.00000000000E+00  0.29891261402E+03  0.29891261402E+03  0.00000000000E+00 0. -1.
         21   -1    0    0  502  503 -0.00000000000E+00 -0.00000000000E+00 -0.10747549916E+03  0.10747549916E+03  0.00000000000E+00 0. -1.
         -6    2    1    2    0  503  0.14927271513E+02 -0.68974779400E-02  0.41225783313E+02  0.17739515375E+03  0.17189139560E+03 0.  0.
        -24    2    3    3    0    0 -0.31865682430E+02  0.24041797670E+02 -0.25695621305E+02  0.92139745279E+02  0.78968588399E+02 0.  0.
          6    2    1    2  501    0 -0.14927271513E+02  0.68974779400E-02  0.15021133154E+03  0.22899295943E+03  0.17219613197E+03 0.  0.
         24    2    5    5    0    0 -0.63453834833E+02  0.38574604578E+02  0.11372441893E+03  0.15691189277E+03  0.78572955655E+02 0.  0.
          5    1    5    5  501    0  0.48526563320E+02 -0.38567707101E+02  0.36486912617E+02  0.72081066661E+02  0.47000000000E+01 0. -1.
        -11    1    6    6    0    0 -0.31948983677E+01 -0.74161425852E+01 -0.93570819290E+01  0.12359673485E+02  0.00000000000E+00 0.  1.
         12    1    6    6    0    0 -0.60258936466E+02  0.45990747164E+02  0.12308150085E+03  0.14455221929E+03  0.00000000000E+00 0. -1.
         -5    1    3    3    0  503  0.46792953943E+02 -0.24048695148E+02  0.66921404619E+02  0.85255408469E+02  0.47000000000E+01 0.  1.
         11    1    4    4    0    0 -0.28688276496E+02  0.16086092675E+02  0.24629900629E+02  0.41090285845E+02  0.00000000000E+00 0. -1.
        -12    1    4    4    0    0 -0.31774059347E+01  0.79557049947E+01 -0.50325521935E+02  0.51049459433E+02  0.00000000000E+00 0.  1.
</event>
<event>
12    1  0.1598254E-001  0.3801376E+03  0.7818608E-02  0.1050973E+00
         21   -1    0    0  503  502  0.00000000000E+00  0.00000000000E+00  0.45749987366E+03  0.45749987366E+03  0.00000000000E+00 0.  1.
         21   -1    0    0  501  503 -0.00000000000E+00 -0.00000000000E+00 -0.38089737956E+03  0.38089737956E+03  0.00000000000E+00 0. -1.
          6    2    1    2  501    0  0.21460487595E+02 -0.33830296876E+03 -0.13603902498E+03  0.40282748316E+03  0.16986439789E+03 0.  0.
         24    2    3    3    0    0  0.55832803703E+02 -0.31353088564E+03 -0.14641168285E+03  0.35895500605E+03  0.77417034770E+02 0.  0.
         -6    2    1    2    0  502 -0.21460487595E+02  0.33830296876E+03  0.21264151909E+03  0.43556977007E+03  0.17203243228E+03 0.  0.
        -24    2    5    5    0    0 -0.16178958432E+02  0.64477353640E+02  0.33393182696E+02  0.10821611094E+03  0.78590929425E+02 0.  0.
          5    1    3    3  501    0 -0.34372316107E+02 -0.24772083117E+02  0.10372657865E+02  0.43872477109E+02  0.47000000000E+01 0. -1.
        -13    1    4    4    0    0  0.59870594528E+01  0.32987468812E+01 -0.14401459688E+01  0.69857449345E+01  0.00000000000E+00 0.  1.
         14    1    4    4    0    0  0.49845744250E+02 -0.31682963252E+03 -0.14497153688E+03  0.35196926111E+03  0.00000000000E+00 0. -1.
         -5    1    5    5    0  502 -0.52815291637E+01  0.27382561512E+03  0.17924833639E+03  0.32735365913E+03  0.47000000000E+01 0.  1.
         11    1    6    6    0    0 -0.27677462463E+00  0.31710480098E+02 -0.24325234717E+02  0.39966838707E+02  0.00000000000E+00 0. -1.
        -12    1    6    6    0    0 -0.15902183807E+02  0.32766873543E+02  0.57718417413E+02  0.68249272232E+02  0.00000000000E+00 0.  1.
</event>
<event>
12    1  0.1598254E-001  0.3171842E+03  0.7818608E-02  0.1077117E+00
         21   -1    0    0  503  502  0.00000000000E+00  0.00000000000E+00  0.11614548557E+04  0.11614548557E+04  0.00000000000E+00 0. -1.
         21   -1    0    0  501  503 -0.00000000000E+00 -0.00000000000E+00 -0.13804646228E+03  0.13804646228E+03  0.00000000000E+00 0.  1.
          6    2    1    2  501    0  0.25524974276E+03 -0.73513838976E+02  0.11293868773E+03  0.33536394460E+03  0.17075453861E+03 0.  0.
         24    2    3    3    0    0  0.19849696454E+03 -0.24276786031E+02  0.20699580666E+02  0.21630384176E+03  0.79802707026E+02 0.  0.
         -6    2    1    2    0  502 -0.25524974276E+03  0.73513838976E+02  0.91046970570E+03  0.96413737339E+03  0.17334668750E+03 0.  0.
        -24    2    5    5    0    0 -0.25487639958E+03  0.10086153540E+03  0.86421202919E+03  0.91019389815E+03  0.80345954730E+02 0.  0.
          5    1    3    3  501    0  0.56752778215E+02 -0.49237052945E+02  0.92239107059E+02  0.11906010284E+03  0.47000000000E+01 0. -1.
        -11    1    4    4    0    0  0.55014047076E+02 -0.30419466795E+02 -0.21794043642E+02  0.66534725325E+02  0.00000000000E+00 0.  1.
         12    1    4    4    0    0  0.14348291747E+03  0.61426807633E+01  0.42493624308E+02  0.14976911644E+03  0.00000000000E+00 0. -1.
         -5    1    5    5    0  502 -0.37334317939E+00 -0.27347696426E+02  0.46257676504E+02  0.53943475235E+02  0.47000000000E+01 0.  1.
         11    1    6    6    0    0 -0.38557961236E+00 -0.43702553652E-01  0.72216606239E+02  0.72217648800E+02  0.00000000000E+00 0. -1.
        -12    1    6    6    0    0 -0.25449081997E+03  0.10090523796E+03  0.79199542296E+03  0.83797624935E+03  0.00000000000E+00 0.  1.
</event>
<event>
12    1  0.1598254E-001  0.2451587E+03  0.7818608E-02  0.1116418E+00
         21   -1    0    0  503  502  0.00000000000E+00  0.00000000000E+00  0.94051641488E+02  0.94051641488E+02  0.00000000000E+00 0. -1.
         21   -1    0    0  501  503 -0.00000000000E+00 -0.00000000000E+00 -0.65133257090E+03  0.65133257090E+03  0.00000000000E+00 0.  1.
          6    2    1    2  501    0  0.14172158017E+02  0.17314221689E+03 -0.33029108641E+03  0.41127766821E+03  0.17285265770E+03 0.  0.
         24    2    3    3    0    0 -0.52020589349E+02  0.13817094351E+03 -0.20357453442E+03  0.26402399487E+03  0.80428399538E+02 0.  0.
         -6    2    1    2    0  502 -0.14172158017E+02 -0.17314221689E+03 -0.22698984300E+03  0.33410654418E+03  0.17298472969E+03 0.  0.
        -24    2    5    5    0    0 -0.71159199242E+02 -0.11865703838E+03 -0.11894818660E+03  0.20027363693E+03  0.82569571635E+02 0.  0.
          5    1    3    3  501    0  0.66192747366E+02  0.34971273378E+02 -0.12671655198E+03  0.14725367334E+03  0.47000000000E+01 0. -1.
        -11    1    4    4    0    0  0.10989211655E+02  0.17897272421E+02 -0.71819824175E+02  0.74827550257E+02  0.00000000000E+00 0.  1.
         12    1    4    4    0    0 -0.63009801005E+02  0.12027367109E+03 -0.13175471025E+03  0.18919644461E+03  0.00000000000E+00 0. -1.
         -5    1    5    5    0  502  0.56987041225E+02 -0.54485178511E+02 -0.10804165640E+03  0.13383290725E+03  0.47000000000E+01 0.  1.
         11    1    6    6    0    0 -0.34150182305E+02 -0.23779564799E+02 -0.81969642393E+02  0.91927824556E+02  0.00000000000E+00 0. -1.
        -12    1    6    6    0    0 -0.37009016937E+02 -0.94877473580E+02 -0.36978544211E+02  0.10834581238E+03  0.00000000000E+00 0.  1.
</event>
<event>
12    1  0.1598254E-001  0.2674363E+03  0.7818608E-02  0.1103193E+00
         21   -1    0    0  503  502  0.00000000000E+00  0.00000000000E+00  0.22351320301E+03  0.22351320301E+03  0.00000000000E+00 0.  1.
         21   -1    0    0  501  503 -0.00000000000E+00 -0.00000000000E+00 -0.67770673594E+03  0.67770673594E+03  0.00000000000E+00 0. -1.
          6    2    1    2  501    0 -0.19715984021E+03  0.47387791358E+02 -0.55670453892E+03  0.61761000172E+03  0.17436904890E+03 0.  0.
         24    2    3    3    0    0 -0.42630966526E+02  0.21756587765E+02 -0.11285941749E+03  0.14691188912E+03  0.80963612989E+02 0.  0.
         -6    2    1    2    0  502  0.19715984021E+03 -0.47387791358E+02  0.10251100598E+03  0.28360993724E+03  0.16973062419E+03 0.  0.
        -24    2    5    5    0    0  0.20084652558E+03 -0.76506947395E+02  0.10675358751E+03  0.25358317592E+03  0.81947903115E+02 0.  0.
          5    1    3    3  501    0 -0.15452887369E+03  0.25631203593E+02 -0.44384512142E+03  0.47069811261E+03  0.47000000000E+01 0. -1.
        -13    1    4    4    0    0 -0.35797196886E+02 -0.10703531022E+02 -0.97734599503E+01  0.38620271887E+02  0.00000000000E+00 0.  1.
         14    1    4    4    0    0 -0.68337696395E+01  0.32460118787E+02 -0.10308595754E+03  0.10829161723E+03  0.00000000000E+00 0. -1.
         -5    1    5    5    0  502 -0.36866853618E+01  0.29119156038E+02 -0.42425815298E+01  0.30026761319E+02  0.47000000000E+01 0.  1.
         11    1    6    6    0    0  0.88732209418E+02 -0.59094900540E+02  0.88727481122E+02  0.13870175977E+03  0.00000000000E+00 0. -1.
        -12    1    6    6    0    0  0.11211431616E+03 -0.17412046855E+02  0.18026106392E+02  0.11488141614E+03  0.00000000000E+00 0.  1.
</event>
<event>
12    1  0.1598254E-001  0.1941402E+03  0.7818608E-02  0.1156192E+00
         21   -1    0    0  501  502  0.00000000000E+00  0.00000000000E+00  0.24860261351E+02  0.24860261351E+02  0.00000000000E+00 0. -1.
         21   -1    0    0  502  503 -0.00000000000E+00 -0.00000000000E+00 -0.17258200317E+04  0.17258200317E+04  0.00000000000E+00 0. -1.
         -6    2    1    2    0  503  0.89376089174E+01 -0.90209385458E+02 -0.12013711162E+04  0.12169564374E+04  0.17167643266E+03 0.  0.
        -24    2    3    3    0    0 -0.40246431279E+02 -0.45040509342E+00 -0.46457073903E+03  0.47306623703E+03  0.79659995948E+02 0.  0.
          6    2    1    2  501    0 -0.89376089174E+01  0.90209385458E+02 -0.49958865417E+03  0.53372385571E+03  0.16448318059E+03 0.  0.
         24    2    5    5    0    0 -0.63907787524E+02  0.37225150849E+02 -0.32805250399E+03  0.34590535164E+03  0.81007096933E+02 0.  0.
          5    1    5    5  501    0  0.54970178606E+02  0.52984234609E+02 -0.17153615018E+03  0.18781850407E+03  0.47000000000E+01 0. -1.
        -13    1    6    6    0    0 -0.36853229706E+02  0.25378038734E+02 -0.53398113675E+02  0.69667524241E+02  0.00000000000E+00 0.  1.
         14    1    6    6    0    0 -0.27054557817E+02  0.11847112115E+02 -0.27465439032E+03  0.27623782740E+03  0.00000000000E+00 0. -1.
         -5    1    3    3    0  503  0.49184040196E+02 -0.89758980365E+02 -0.73680037719E+03  0.74389020036E+03  0.47000000000E+01 0.  1.
         11    1    4    4    0    0  0.20865628516E+02  0.11290621521E+02 -0.78313536421E+02  0.81828250467E+02  0.00000000000E+00 0. -1.
        -12    1    4    4    0    0 -0.61112059795E+02 -0.11741026615E+02 -0.38625720261E+03  0.39123798656E+03  0.00000000000E+00 0.  1.
</event>
<event>
12    1  0.1598254E-001  0.2047029E+03  0.7818608E-02  0.1146340E+00
         21   -1    0    0  501  502  0.00000000000E+00  0.00000000000E+00  0.16293097208E+03  0.16293097208E+03  0.00000000000E+00 0.  1.
         21   -1    0    0  502  503 -0.00000000000E+00 -0.00000000000E+00 -0.50402065846E+03  0.50402065846E+03  0.00000000000E+00 0.  1.
         -6    2    1    2    0  503  0.77094051717E+02  0.80000030863E+02 -0.40589578391E+03  0.45459285721E+03  0.17192958060E+03 0.  0.
        -24    2    3    3    0    0  0.79074429442E+02  0.11268035526E+03 -0.38182914349E+03  0.41368786143E+03  0.79965767818E+02 0.  0.
          6    2    1    2  501    0 -0.77094051717E+02 -0.80000030863E+02  0.64806097527E+02  0.21235877333E+03  0.16897609472E+03 0.  0.
         24    2    5    5    0    0 -0.11021918031E+03 -0.33150812004E+02  0.66553050765E+02  0.15476306778E+03  0.79215241833E+02 0.  0.
          5    1    5    5  501    0  0.33125128596E+02 -0.46849218859E+02 -0.17469532385E+01  0.57595705550E+02  0.47000000000E+01 0. -1.
        -13    1    6    6    0    0 -0.39967363818E+02 -0.33123182794E+02  0.66690273767E+02  0.84511111838E+02  0.00000000000E+00 0.  1.
         14    1    6    6    0    0 -0.70251816494E+02 -0.27629209374E-01 -0.13722300172E+00  0.70251955946E+02  0.00000000000E+00 0. -1.
         -5    1    3    3    0  503 -0.19803777244E+01 -0.32680324400E+02 -0.24066640414E+02  0.40904995779E+02  0.47000000000E+01 0.  1.
         11    1    4    4    0    0  0.53715141497E+02  0.78445488940E+02 -0.14728120170E+03  0.17530192108E+03  0.00000000000E+00 0. -1.
        -12    1    4    4    0    0  0.25359287944E+02  0.34234866323E+02 -0.23454794180E+03  0.23838594035E+03  0.00000000000E+00 0.  1.
</event>
<event>
12    1  0.1598254E-001  0.1784097E+03  0.7818608E-02  0.1169640E+00
         21   -1    0    0  501  502  0.00000000000E+00  0.00000000000E+00  0.15277261469E+03  0.15277261469E+03  0.00000000000E+00 0.  1.
         21   -1    0    0  502  503 -0.00000000000E+00 -0.00000000000E+00 -0.28859728664E+03  0.28859728664E+03  0.00000000000E+00 0.  1.
         -6    2    1    2    0  503  0.22260589410E+02 -0.36943866020E+02 -0.18511092696E+03  0.25627765855E+03  0.17190636961E+03 0.  0.
        -24    2    3    3    0    0  0.47165127783E+02  0.13540093721E+02 -0.17527807210E+03  0.19893970203E+03  0.80291463240E+02 0.  0.
          6    2    1    2  501    0 -0.22260589410E+02  0.36943866020E+02  0.49286255005E+02  0.18509224278E+03  0.17311735998E+03 0.  0.
         24    2    5    5    0    0 -0.18449671994E+02  0.60357970869E+02 -0.26483741494E+02  0.10555655414E+03  0.80357467076E+02 0.  0.
          5    1    5    5  501    0 -0.38109174156E+01 -0.23414104850E+02  0.75769996499E+02  0.79535688637E+02  0.47000000000E+01 0. -1.
        -13    1    6    6    0    0 -0.10126530297E+02  0.31489061729E+02  0.28000469561E+02  0.43337442473E+02  0.00000000000E+00 0.  1.
         14    1    6    6    0    0 -0.83231416976E+01  0.28868909140E+02 -0.54484211056E+02  0.62219111670E+02  0.00000000000E+00 0. -1.
         -5    1    3    3    0  503 -0.24904538374E+02 -0.50483959741E+02 -0.98328548619E+01  0.57337956516E+02  0.47000000000E+01 0.  1.
         13    1    4    4    0    0 -0.45784111110E+01  0.36996045939E+02 -0.68111922587E+02  0.77646012530E+02  0.00000000000E+00 0. -1.
        -14    1    4    4    0    0  0.51743538894E+02 -0.23455952218E+02 -0.10716614951E+03  0.12129368950E+03  0.00000000000E+00 0.  1.
</event>
<event>
12    1  0.1598254E-001  0.1875689E+03  0.7818608E-02  0.1163019E+00
         21   -1    0    0  503  502  0.00000000000E+00  0.00000000000E+00  0.32288661779E+03  0.32288661779E+03  0.00000000000E+00 0. -1.
         21   -1    0    0  501  503 -0.00000000000E+00 -0.00000000000E+00 -0.37382263391E+03  0.37382263391E+03  0.00000000000E+00 0. -1.
          6    2    1    2  501    0 -0.68297933210E+02  0.25473402189E+02 -0.32198903410E+03  0.37263791037E+03  0.17282526512E+03 0.  0.
         24    2    3    3    0    0 -0.94766757112E+01  0.72785995711E+02 -0.15689806196E+03  0.19104622300E+03  0.80585662011E+02 0.  0.
         -6    2    1    2    0  502  0.68297933210E+02 -0.25473402189E+02  0.27105301798E+03  0.32407134133E+03  0.16198454808E+03 0.  0.
        -24    2    5    5    0    0  0.10390699053E+03  0.16496717221E+01  0.15469745064E+03  0.19931408041E+03  0.70678266237E+02 0.  0.
          5    1    3    3  501    0 -0.58821257499E+02 -0.47312593522E+02 -0.16509097214E+03  0.18159168737E+03  0.47000000000E+01 0. -1.
        -11    1    4    4    0    0  0.20905249957E+02  0.35871832191E+02 -0.12939004839E+03  0.13588819832E+03  0.00000000000E+00 0.  1.
         12    1    4    4    0    0 -0.30381925668E+02  0.36914163520E+02 -0.27508013563E+02  0.55158024674E+02  0.00000000000E+00 0. -1.
         -5    1    5    5    0  502 -0.35609057317E+02 -0.27123073911E+02  0.11635556735E+03  0.12475726093E+03  0.47000000000E+01 0.  1.
         11    1    6    6    0    0  0.57077133486E+02 -0.34329069682E+02  0.80367086097E+02  0.10437984825E+03  0.00000000000E+00 0. -1.
        -12    1    6    6    0    0  0.46829857041E+02  0.35978741404E+02  0.74330364539E+02  0.94934232161E+02  0.00000000000E+00 0.  1.
</event>
<event>
12    1  0.1598254E-001  0.1976766E+03  0.7818608E-02  0.1155306E+00
         21   -1    0    0  501  502  0.00000000000E+00  0.00000000000E+00  0.59348076266E+03  0.59348076266E+03  0.00000000000E+00 0.  1.
         21   -1    0    0  502  503 -0.00000000000E+00 -0.00000000000E+00 -0.61500845466E+02  0.61500845466E+02  0.00000000000E+00 0. -1.
         -6    2    1    2    0  503  0.91670573478E+01 -0.57699726639E+02  0.21553538129E+03  0.28186875706E+03  0.17199186674E+03 0.  0.
        -24    2    3    3    0    0 -0.56166555744E+02 -0.32991317968E+02  0.10174994293E+03  0.14827159226E+03  0.85955250807E+02 0.  0.
          6    2    1    2  501    0 -0.91670573478E+01  0.57699726639E+02  0.31644453590E+03  0.37311285106E+03  0.18884586819E+03 0.  0.
         24    2    5    5    0    0  0.47518899550E+02 -0.18306135131E+02  0.10225656097E+03  0.13882933192E+03  0.78892450487E+02 0.  0.
          5    1    5    5  501    0 -0.56685956897E+02  0.76005861770E+02  0.21418797494E+03  0.23428351914E+03  0.47000000000E+01 0. -1.
        -11    1    6    6    0    0  0.35864711392E+02  0.28269843563E+02  0.45095312340E+02  0.64179815934E+02  0.00000000000E+00 0.  1.
         12    1    6    6    0    0  0.11654188158E+02 -0.46575978695E+02  0.57161248625E+02  0.74649515989E+02  0.00000000000E+00 0. -1.
         -5    1    3    3    0  503  0.65333613092E+02 -0.24708408670E+02  0.11378543837E+03  0.13359716480E+03  0.47000000000E+01 0.  1.
         11    1    4    4    0    0 -0.15821777763E+02 -0.24412949398E+02 -0.87054503264E+01  0.30366191978E+02  0.00000000000E+00 0. -1.
        -12    1    4    4    0    0 -0.40344777981E+02 -0.85783685708E+01  0.11045539325E+03  0.11790540029E+03  0.00000000000E+00 0.  1.
</event>
<event>
12    1  0.1598254E-001  0.2195731E+03  0.7818608E-02  0.1134535E+00
         21   -1    0    0  503  502  0.00000000000E+00  0.00000000000E+00  0.77151641731E+03  0.77151641731E+03  0.00000000000E+00 0. -1.
         21   -1    0    0  501  503 -0.00000000000E+00 -0.00000000000E+00 -0.62010533721E+02  0.62010533721E+02  0.00000000000E+00 0. -1.
          6    2    1    2  501    0  0.44935795839E+02  0.12589957238E+03  0.36452525979E+03  0.42554790551E+03  0.17419077697E+03 0.  0.
         24    2    3    3    0    0 -0.40231586760E+02  0.67778443539E+02  0.14656547112E+03  0.18438383655E+03  0.79394356700E+02 0.  0.
         -6    2    1    2    0  502 -0.44935795839E+02 -0.12589957238E+03  0.34498062379E+03  0.40797904552E+03  0.17194575515E+03 0.  0.
        -24    2    5    5    0    0 -0.30891210307E+01 -0.94890370944E+02  0.10481396749E+03  0.16218476657E+03  0.79399027440E+02 0.  0.
          5    1    3    3  501    0  0.85167382599E+02  0.58121128845E+02  0.21795978868E+03  0.24116406896E+03  0.47000000000E+01 0. -1.
        -13    1    4    4    0    0 -0.28870950615E+02 -0.11382290081E+02  0.51790174374E+02  0.60376406639E+02  0.00000000000E+00 0.  1.
         14    1    4    4    0    0 -0.11360636145E+02  0.79160733620E+02  0.94775296744E+02  0.12400742991E+03  0.00000000000E+00 0. -1.
         -5    1    5    5    0  502 -0.41846674808E+02 -0.31009201440E+02  0.24016665630E+03  0.24579427895E+03  0.47000000000E+01 0.  1.
         11    1    6    6    0    0 -0.34789959525E+02 -0.46711344460E+02  0.81052327999E+02  0.99808671262E+02  0.00000000000E+00 0. -1.
        -12    1    6    6    0    0  0.31700838494E+02 -0.48179026484E+02  0.23761639495E+02  0.62376095307E+02  0.00000000000E+00 0.  1.
</event>
<event>
12    1  0.1598254E-001  0.2708634E+03  0.7818608E-02  0.1101004E+00
         21   -1    0    0  501  502  0.00000000000E+00  0.00000000000E+00  0.10451527721E+03  0.10451527721E+03  0.00000000000E+00 0.  1.
         21   -1    0    0  502  503 -0.00000000000E+00 -0.00000000000E+00 -0.14755431952E+04  0.14755431952E+04  0.00000000000E+00 0. -1.
         -6    2    1    2    0  503 -0.20330084008E+03  0.45477437539E+02 -0.12580812508E+04  0.12865896755E+04  0.17071944987E+03 0.  0.
        -24    2    3    3    0    0 -0.20253941543E+03  0.63038225883E+02 -0.93043137188E+03  0.95843499518E+03  0.88876709420E+02 0.  0.
          6    2    1    2  501    0  0.20330084008E+03 -0.45477437539E+02 -0.11294666713E+03  0.29346879686E+03  0.17311139828E+03 0.  0.
         24    2    5    5    0    0  0.13406710657E+03 -0.29562316067E+02 -0.14508397762E+03  0.21535671282E+03  0.80506109074E+02 0.  0.
          5    1    5    5  501    0  0.69233733508E+02 -0.15915121472E+02  0.32137310496E+02  0.78112084038E+02  0.47000000000E+01 0. -1.
        -11    1    6    6    0    0  0.42189270955E+02  0.11286722751E+02 -0.65235017600E+01  0.44157454290E+02  0.00000000000E+00 0.  1.
         12    1    6    6    0    0  0.91877835614E+02 -0.40849038818E+02 -0.13856047586E+03  0.17119925853E+03  0.00000000000E+00 0. -1.
         -5    1    3    3    0  503 -0.76142464400E+00 -0.17560788344E+02 -0.32764987893E+03  0.32815468032E+03  0.47000000000E+01 0.  1.
         13    1    4    4    0    0 -0.62554639860E+01  0.95477362693E+01 -0.19643155327E+03  0.19676291626E+03  0.00000000000E+00 0. -1.
        -14    1    4    4    0    0 -0.19628395145E+03  0.53490489613E+02 -0.73399981862E+03  0.76167207892E+03  0.00000000000E+00 0.  1.
</event>
<event>
12    1  0.1598254E-001  0.1743328E+03  0.7818608E-02  0.1173717E+00
         21   -1    0    0  503  502  0.00000000000E+00  0.00000000000E+00  0.21645136747E+03  0.21645136747E+03  0.00000000000E+00 0. -1.
         21   -1    0    0  501  503 -0.00000000000E+00 -0.00000000000E+00 -0.21389892722E+03  0.21389892722E+03  0.00000000000E+00 0. -1.
          6    2    1    2  501    0 -0.16024436357E+02 -0.17205507223E+02 -0.12570249609E+03  0.21392191811E+03  0.17148952588E+03 0.  0.
         24    2    3    3    0    0  0.95264259801E+01 -0.41665289595E+02 -0.12832038593E+01  0.84487078140E+02  0.72867486655E+02 0.  0.
         -6    2    1    2    0  502  0.16024436357E+02  0.17205507223E+02  0.12825493634E+03  0.21642837658E+03  0.17273998221E+03 0.  0.
        -24    2    5    5    0    0  0.49300708505E+02 -0.87370802837E+00  0.13209294015E+02  0.95218813713E+02  0.80379187678E+02 0.  0.
          5    1    3    3  501    0 -0.25550862337E+02  0.24459782372E+02 -0.12441929223E+03  0.12943483998E+03  0.47000000000E+01 0. -1.
        -11    1    4    4    0    0 -0.81800466541E+01 -0.54348026856E+02 -0.17112230175E+02  0.57562571242E+02  0.00000000000E+00 0.  1.
         12    1    4    4    0    0  0.17706472634E+02  0.12682737261E+02  0.15829026316E+02  0.26924506898E+02  0.00000000000E+00 0. -1.
         -5    1    5    5    0  502 -0.33276272148E+02  0.18079215251E+02  0.11504564232E+03  0.12120956286E+03  0.47000000000E+01 0.  1.
         11    1    6    6    0    0  0.64649846503E+02 -0.72801094664E+01  0.29949158171E+02  0.71620909809E+02  0.00000000000E+00 0. -1.
        -12    1    6    6    0    0 -0.15349137999E+02  0.64064014381E+01 -0.16739864156E+02  0.23597903904E+02  0.00000000000E+00 0.  1.
</event>
<event>
12    1  0.1598254E-001  0.2239723E+03  0.7818608E-02  0.1131092E+00
         21   -1    0    0  501  502  0.00000000000E+00  0.00000000000E+00  0.78461979302E+03  0.78461979302E+03  0.00000000000E+00 0. -1.
         21   -1    0    0  502  503 -0.00000000000E+00 -0.00000000000E+00 -0.71713123538E+02  0.71713123538E+02  0.00000000000E+00 0.  1.
         -6    2    1    2    0  503 -0.11839278153E+03 -0.77820728547E+02  0.49991578007E+03  0.54779500372E+03  0.17346660320E+03 0.  0.
        -24    2    3    3    0    0 -0.31755714024E+02 -0.89945463034E+02  0.37556515584E+03  0.39568268206E+03  0.80106097839E+02 0.  0.
          6    2    1    2  501    0  0.11839278153E+03  0.77820728547E+02  0.21299088941E+03  0.30853791284E+03  0.17250393670E+03 0.  0.
         24    2    5    5    0    0  0.35400675866E+02  0.10081802486E+03  0.15787926507E+03  0.20618584213E+03  0.78544618963E+02 0.  0.
          5    1    5    5  501    0  0.82992105665E+02 -0.22997296314E+02  0.55111624340E+02  0.10235207071E+03  0.47000000000E+01 0. -1.
        -11    1    6    6    0    0  0.23224053471E+02  0.61364368739E+02  0.30638022165E+02  0.72412918823E+02  0.00000000000E+00 0.  1.
         12    1    6    6    0    0  0.12176622395E+02  0.39453656122E+02  0.12724124291E+03  0.13377292331E+03  0.00000000000E+00 0. -1.
         -5    1    3    3    0  503 -0.86637067507E+02  0.12124734487E+02  0.12435062423E+03  0.15211232166E+03  0.47000000000E+01 0.  1.
         11    1    4    4    0    0 -0.46542803088E+02 -0.96063175682E+02  0.34563715170E+03  0.36174494727E+03  0.00000000000E+00 0. -1.
        -12    1    4    4    0    0  0.14787089065E+02  0.61177126477E+01  0.29928004139E+02  0.33937734792E+02  0.00000000000E+00 0.  1.
</event>
<event>
12    1  0.1598254E-001  0.2333752E+03  0.7818608E-02  0.1124574E+00
         21   -1    0    0  503  502  0.00000000000E+00  0.00000000000E+00  0.17559699810E+03  0.17559699810E+03  0.00000000000E+00 0.  1.
         21   -1    0    0  501  503 -0.00000000000E+00 -0.00000000000E+00 -0.30839102757E+03  0.30839102757E+03  0.00000000000E+00 0. -1.
          6    2    1    2  501    0 -0.13709383445E+03 -0.73574412622E+02 -0.57642436638E+02  0.24038850412E+03  0.17394271694E+03 0.  0.
         24    2    3    3    0    0 -0.14697566548E+03 -0.98591984314E+02 -0.74308576720E+02  0.20839819773E+03  0.81153056794E+02 0.  0.
         -6    2    1    2    0  502  0.13709383445E+03  0.73574412622E+02 -0.75151592835E+02  0.24359952155E+03  0.17171211768E+03 0.  0.
        -24    2    5    5    0    0  0.16294247090E+03  0.83713647483E+02 -0.79745172377E+02  0.21506625915E+03  0.79598867505E+02 0.  0.
          5    1    3    3  501    0  0.98818310387E+01  0.25017571692E+02  0.16666140083E+02  0.31990306396E+02  0.47000000000E+01 0. -1.
        -11    1    4    4    0    0 -0.11309121602E+03 -0.42880463844E+02 -0.18071287696E+02  0.12229034614E+03  0.00000000000E+00 0.  1.
         12    1    4    4    0    0 -0.33884449467E+02 -0.55711520469E+02 -0.56237289024E+02  0.86107851590E+02  0.00000000000E+00 0. -1.
         -5    1    5    5    0  502 -0.25848636456E+02 -0.10139234861E+02  0.45935795424E+01  0.28533262401E+02  0.47000000000E+01 0.  1.
         11    1    6    6    0    0  0.14327652849E+01  0.15295043479E+02 -0.28422249459E+02  0.32308132656E+02  0.00000000000E+00 0. -1.
        -12    1    6    6    0    0  0.16150970562E+03  0.68418604003E+02 -0.51322922918E+02  0.18275812649E+03  0.00000000000E+00 0.  1.
</event>
<event>
12    1  0.1598254E-001  0.1760257E+03  0.7818608E-02  0.1171961E+00
         21   -1    0    0  501  502  0.00000000000E+00  0.00000000000E+00  0.93015007343E+02  0.93015007343E+02  0.00000000000E+00 0.  1.
         21   -1    0    0  502  503 -0.00000000000E+00 -0.00000000000E+00 -0.33888700882E+03  0.33888700882E+03  0.00000000000E+00 0.  1.
         -6    2    1    2    0  503 -0.17317119653E+02  0.30707819796E+02 -0.15513594569E+03  0.23386647788E+03  0.17141620402E+03 0.  0.
        -24    2    3    3    0    0  0.36600372198E+02  0.63813432607E+02 -0.69780273156E+02  0.12751442872E+03  0.77323357301E+02 0.  0.
          6    2    1    2  501    0  0.17317119653E+02 -0.30707819796E+02 -0.90736055791E+02  0.19803553828E+03  0.17245924090E+03 0.  0.
         24    2    5    5    0    0  0.45829519410E+02 -0.20208750128E+02 -0.12220643062E+03  0.15403938055E+03  0.79277869825E+02 0.  0.
          5    1    5    5  501    0 -0.28512399757E+02 -0.10499069668E+02  0.31470374827E+02  0.43996157736E+02  0.47000000000E+01 0. -1.
        -11    1    6    6    0    0  0.34123353002E+02 -0.30536904122E+02 -0.18865352925E+02  0.49525824319E+02  0.00000000000E+00 0.  1.
         12    1    6    6    0    0  0.11706166408E+02  0.10328153994E+02 -0.10334107769E+03  0.10451355623E+03  0.00000000000E+00 0. -1.
         -5    1    3    3    0  503 -0.53917491851E+02 -0.33105612811E+02 -0.85355672531E+02  0.10635204916E+03  0.47000000000E+01 0.  1.
         11    1    4    4    0    0  0.47337076416E+02  0.57619244429E+01 -0.30601026402E+02  0.56660580598E+02  0.00000000000E+00 0. -1.
        -12    1    4    4    0    0 -0.10736704218E+02  0.58051508164E+02 -0.39179246754E+02  0.70853848123E+02  0.00000000000E+00 0.  1.
</event>
<event>
12    1  0.1598254E-001  0.2000881E+03  0.7818608E-02  0.1150143E+00
         21   -1    0    0  501  502  0.00000000000E+00  0.00000000000E+00  0.51008745688E+03  0.51008745688E+03  0.00000000000E+00 0. -1.
         21   -1    0    0  502  503 -0.00000000000E+00 -0.00000000000E+00 -0.11119493624E+03  0.11119493624E+03  0.00000000000E+00 0.  1.
         -6    2    1    2    0  503 -0.86283736335E+02 -0.53620883944E+02  0.29501892259E+02  0.20225135942E+03  0.17238088174E+03 0.  0.
        -24    2    3    3    0    0  0.72563361287E+01  0.52693968965E-01  0.45473886399E+02  0.93128526246E+02  0.80946839753E+02 0.  0.
          6    2    1    2  501    0  0.86283736335E+02  0.53620883944E+02  0.36939062838E+03  0.41903103370E+03  0.16975714572E+03 0.  0.
         24    2    5    5    0    0  0.47578491934E+02  0.61396055402E+02  0.13576942119E+03  0.18205106053E+03  0.93145393860E+02 0.  0.
          5    1    5    5  501    0  0.38705244401E+02 -0.77751714571E+01  0.23362120719E+03  0.23697997317E+03  0.47000000000E+01 0. -1.
        -13    1    6    6    0    0  0.37746533292E+02 -0.15394807932E+02  0.28404538882E+02  0.49685196145E+02  0.00000000000E+00 0.  1.
         14    1    6    6    0    0  0.98319586415E+01  0.76790863334E+02  0.10736488231E+03  0.13236586439E+03  0.00000000000E+00 0. -1.
         -5    1    3    3    0  503 -0.93540072464E+02 -0.53673577913E+02 -0.15971994139E+02  0.10912283317E+03  0.47000000000E+01 0.  1.
         11    1    4    4    0    0  0.34360621860E+02 -0.25014146010E+02  0.34122419809E+02  0.54504122494E+02  0.00000000000E+00 0. -1.
        -12    1    4    4    0    0 -0.27104285731E+02  0.25066839979E+02  0.11351466590E+02  0.38624403753E+02  0.00000000000E+00 0.  1.
</event>
<event>
12    1  0.1598254E-001  0.5029924E+03  0.7818608E-02  0.1013106E+00
         21   -1    0    0  503  502  0.00000000000E+00  0.00000000000E+00  0.32262406392E+03  0.32262406392E+03  0.00000000000E+00 0.  1.
         21   -1    0    0  501  503 -0.00000000000E+00 -0.00000000000E+00 -0.87097667793E+03  0.87097667793E+03  0.00000000000E+00 0.  1.
          6    2    1    2  501    0  0.32438996359E+03 -0.34354494858E+03 -0.46487739011E+03  0.68372872142E+03  0.16769614334E+03 0.  0.
         24    2    3    3    0    0  0.31643343782E+03 -0.26584582775E+03 -0.41211570206E+03  0.58935528551E+03  0.81830165420E+02 0.  0.
         -6    2    1    2    0  502 -0.32438996359E+03  0.34354494858E+03 -0.83475223897E+02  0.50987202042E+03  0.17248009750E+03 0.  0.
        -24    2    5    5    0    0 -0.20006156265E+03  0.16022918393E+03  0.11945630152E+02  0.26864712486E+03  0.79564812482E+02 0.  0.
          5    1    3    3  501    0  0.79565257689E+01 -0.77699120832E+02 -0.52761688052E+02  0.94373435915E+02  0.47000000000E+01 0. -1.
        -13    1    4    4    0    0  0.13079697953E+03 -0.10876194875E+03 -0.11464532417E+03  0.20513547159E+03  0.00000000000E+00 0.  1.
         14    1    4    4    0    0  0.18563645829E+03 -0.15708387900E+03 -0.29747037789E+03  0.38421981392E+03  0.00000000000E+00 0. -1.
         -5    1    5    5    0  502 -0.12432840094E+03  0.18331576465E+03 -0.95420854049E+02  0.24122489556E+03  0.47000000000E+01 0.  1.
         11    1    6    6    0    0 -0.64118468275E+00  0.28935554180E+02  0.72666255751E+01  0.29840932639E+02  0.00000000000E+00 0. -1.
        -12    1    6    6    0    0 -0.19942037796E+03  0.13129362975E+03  0.46790045767E+01  0.23880619222E+03  0.00000000000E+00 0.  1.
</event>
<event>
12    1  0.1598254E-001  0.1758686E+03  0.7818608E-02  0.1171949E+00
         21   -1    0    0  501  502  0.00000000000E+00  0.00000000000E+00  0.39331607459E+03  0.39331607459E+03  0.00000000000E+00 0. -1.
         21   -1    0    0  502  503 -0.00000000000E+00 -0.00000000000E+00 -0.61695098249E+03  0.61695098249E+03  0.00000000000E+00 0. -1.
         -6    2    1    2    0  503 -0.38036474259E+02  0.87204238134E+01 -0.58371516999E+03  0.60953329824E+03  0.17112750457E+03 0.  0.
        -24    2    3    3    0    0 -0.65128477364E+02 -0.20920049015E+02 -0.53903477549E+03  0.54927583468E+03  0.80411978971E+02 0.  0.
          6    2    1    2  501    0  0.38036474259E+02 -0.87204238134E+01  0.36008026209E+03  0.40073375885E+03  0.17148449250E+03 0.  0.
         24    2    5    5    0    0 -0.43169688064E+02  0.33139584697E+01  0.23969249245E+03  0.25494427968E+03  0.75296019272E+02 0.  0.
          5    1    5    5  501    0  0.81206162323E+02 -0.12034382283E+02  0.12038776964E+03  0.14578947916E+03  0.47000000000E+01 0. -1.
        -11    1    6    6    0    0  0.10881990558E+02  0.22398615297E+02  0.39392665559E+02  0.46603624168E+02  0.00000000000E+00 0.  1.
         12    1    6    6    0    0 -0.54051678623E+02 -0.19084656827E+02  0.20029982689E+03  0.20834065552E+03  0.00000000000E+00 0. -1.
         -5    1    3    3    0  503  0.27092003105E+02  0.29640472828E+02 -0.44680394498E+02  0.60257463556E+02  0.47000000000E+01 0.  1.
         13    1    4    4    0    0 -0.65209791753E+02 -0.24226484590E+02 -0.23156602092E+03  0.24178929162E+03  0.00000000000E+00 0. -1.
        -14    1    4    4    0    0  0.81314389024E-01  0.33064355757E+01 -0.30746875457E+03  0.30748654307E+03  0.00000000000E+00 0.  1.
</event>
<event>
12    1  0.1598254E-001  0.1731019E+03  0.7818608E-02  0.1175184E+00
         21   -1    0    0  501  502  0.00000000000E+00  0.00000000000E+00  0.10800586911E+03  0.10800586911E+03  0.00000000000E+00 0. -1.
         21   -1    0    0  502  503 -0.00000000000E+00 -0.00000000000E+00 -0.38595571872E+03  0.38595571872E+03  0.00000000000E+00 0. -1.
         -6    2    1    2    0  503  0.96006929665E+01  0.10120708091E+02 -0.27252640347E+03  0.32285432801E+03  0.17253890717E+03 0.  0.
        -24    2    3    3    0    0  0.19716374332E+02 -0.59727364653E+02 -0.17739045373E+03  0.20430467930E+03  0.79479150758E+02 0.  0.
          6    2    1    2  501    0 -0.96006929665E+01 -0.10120708091E+02 -0.54234461379E+01  0.17110725983E+03  0.17045139647E+03 0.  0.
         24    2    5    5    0    0 -0.39200251831E+02 -0.60407320335E+02 -0.23787426497E+02  0.10975415860E+03  0.79337441200E+02 0.  0.
          5    1    5    5  501    0  0.29599558864E+02  0.50286612245E+02  0.18363980359E+02  0.61353101231E+02  0.47000000000E+01 0. -1.
        -11    1    6    6    0    0  0.12214206791E+02 -0.30607082430E+02 -0.36297331932E+02  0.49025265403E+02  0.00000000000E+00 0.  1.
         12    1    6    6    0    0 -0.51414458621E+02 -0.29800237905E+02  0.12509905435E+02  0.60728893193E+02  0.00000000000E+00 0. -1.
         -5    1    3    3    0  503 -0.10115681366E+02  0.69848072744E+02 -0.95135949741E+02  0.11854964871E+03  0.47000000000E+01 0.  1.
         11    1    4    4    0    0  0.33198454896E+02 -0.48143305904E+02 -0.53865242980E+02  0.79507104791E+02  0.00000000000E+00 0. -1.
        -12    1    4    4    0    0 -0.13482080564E+02 -0.11584058749E+02 -0.12352521075E+03  0.12479757451E+03  0.00000000000E+00 0.  1.
</event>
<event>
12    1  0.1598254E-001  0.2461549E+03  0.7818608E-02  0.1116006E+00
         21   -1    0    0  503  502  0.00000000000E+00  0.00000000000E+00  0.90648893706E+02  0.90648893706E+02  0.00000000000E+00 0.  1.
         21   -1    0    0  501  503 -0.00000000000E+00 -0.00000000000E+00 -0.93026749384E+03  0.93026749384E+03  0.00000000000E+00 0.  1.
          6    2    1    2  501    0 -0.96920236352E+02 -0.14798327505E+03 -0.69182482596E+03  0.73380099618E+03  0.16896665432E+03 0.  0.
         24    2    3    3    0    0 -0.84617245600E+02 -0.10286402285E+03 -0.65610483217E+03  0.67476610432E+03  0.84229800456E+02 0.  0.
         -6    2    1    2    0  502  0.96920236352E+02  0.14798327505E+03 -0.14779377417E+03  0.28711539136E+03  0.17117145312E+03 0.  0.
        -24    2    5    5    0    0  0.13325932058E+03  0.12997325197E+03 -0.10422960051E+03  0.22740930121E+03  0.78740636944E+02 0.  0.
          5    1    3    3  501    0 -0.12302990751E+02 -0.45119252208E+02 -0.35719993787E+02  0.59034891864E+02  0.47000000000E+01 0. -1.
        -11    1    4    4    0    0 -0.25151595719E+02 -0.58598125496E+02 -0.14621508945E+03  0.15951550226E+03  0.00000000000E+00 0.  1.
         12    1    4    4    0    0 -0.59465649882E+02 -0.44265897351E+02 -0.50988974273E+03  0.51525060206E+03  0.00000000000E+00 0. -1.
         -5    1    5    5    0  502 -0.36339084229E+02  0.18010023082E+02 -0.43564173665E+02  0.59706090151E+02  0.47000000000E+01 0.  1.
         13    1    6    6    0    0  0.69110225777E+02  0.37114504544E+02 -0.79865507027E+02  0.11194734908E+03  0.00000000000E+00 0. -1.
        -14    1    6    6    0    0  0.64149094804E+02  0.92858747429E+02 -0.24364093481E+02  0.11546195213E+03  0.00000000000E+00 0.  1.
</event>
<event>
12    1  0.1598254E-001  0.2307885E+03  0.7818608E-02  0.1126092E+00
         21   -1    0    0  503  502  0.00000000000E+00  0.00000000000E+00  0.12405000290E+03  0.12405000290E+03  0.00000000000E+00 0. -1.
         21   -1    0    0  501  503 -0.00000000000E+00 -0.00000000000E+00 -0.57191031001E+03  0.57191031001E+03  0.00000000000E+00 0. -1.
          6    2    1    2  501    0 -0.22616911582E+02 -0.15238579820E+03 -0.39770187299E+03  0.45981527761E+03  0.17184398031E+03 0.  0.
         24    2    3    3    0    0  0.40822176602E+02 -0.50518581574E+02 -0.24269657750E+03  0.26372810475E+03  0.80201666563E+02 0.  0.
         -6    2    1    2    0  502  0.22616911582E+02  0.15238579820E+03 -0.50158434122E+02  0.23614503530E+03  0.17180120197E+03 0.  0.
        -24    2    5    5    0    0  0.71839688928E+02  0.45516253120E+02 -0.39480195656E+02  0.11790757824E+03  0.71490145849E+02 0.  0.
          5    1    3    3  501    0 -0.63439088184E+02 -0.10186721663E+03 -0.15500529549E+03  0.19608717287E+03  0.47000000000E+01 0. -1.
        -13    1    4    4    0    0  0.12379151272E+02 -0.68372333892E+02 -0.16987428661E+03  0.18353553519E+03  0.00000000000E+00 0.  1.
         14    1    4    4    0    0  0.28443025330E+02  0.17853752318E+02 -0.72822290888E+02  0.80192569556E+02  0.00000000000E+00 0. -1.
         -5    1    5    5    0  502 -0.49222777346E+02  0.10686954508E+03 -0.10678238466E+02  0.11823745706E+03  0.47000000000E+01 0.  1.
         13    1    6    6    0    0  0.36646374524E+02  0.24962110452E+02 -0.58110754610E+02  0.73095304400E+02  0.00000000000E+00 0. -1.
        -14    1    6    6    0    0  0.35193314405E+02  0.20554142668E+02  0.18630558954E+02  0.44812273838E+02  0.00000000000E+00 0.  1.
</event>
<event>
12    1  0.1598254E-001  0.2041156E+03  0.7818608E-02  0.1146501E+00
         21   -1    0    0  501  502  0.00000000000E+00  0.00000000000E+00  0.94441027477E+03  0.94441027477E+03  0.00000000000E+00 0.  1.
         21   -1    0    0  502  503 -0.00000000000E+00 -0.00000000000E+00 -0.56139402310E+02  0.56139402310E+02  0.00000000000E+00 0.  1.
         -6    2    1    2    0  503  0.78184924380E+02  0.76324094393E+02  0.20993244350E+03  0.29216687910E+03  0.17132310008E+03 0.  0.
        -24    2    3    3    0    0  0.35458315182E+02  0.11365893829E+03  0.12949605254E+03  0.19361964832E+03  0.80893103683E+02 0.  0.
          6    2    1    2  501    0 -0.78184924380E+02 -0.76324094393E+02  0.67833842895E+03  0.70838279798E+03  0.17240914851E+03 0.  0.
         24    2    5    5    0    0 -0.97109440072E+02 -0.10680348712E+02  0.32677279901E+03  0.35021004525E+03  0.79512894675E+02 0.  0.
          5    1    5    5  501    0  0.18924515692E+02 -0.65643745681E+02  0.35156562994E+03  0.35817275273E+03  0.47000000000E+01 0. -1.
        -13    1    6    6    0    0 -0.57074214861E+02 -0.44578743092E+02  0.21168406167E+03  0.22372946230E+03  0.00000000000E+00 0.  1.
         14    1    6    6    0    0 -0.40035225211E+02  0.33898394380E+02  0.11508873735E+03  0.12648058295E+03  0.00000000000E+00 0. -1.
         -5    1    3    3    0  503  0.42726609198E+02 -0.37334843898E+02  0.80436390970E+02  0.98547230782E+02  0.47000000000E+01 0.  1.
         13    1    4    4    0    0 -0.56840935581E+01 -0.10399726854E+02  0.19366384295E+02  0.22705067251E+02  0.00000000000E+00 0. -1.
        -14    1    4    4    0    0  0.41142408740E+02  0.12405866515E+03  0.11012966824E+03  0.17091458107E+03  0.00000000000E+00 0.  1.
</event>
<event>
12    1  0.1598254E-001  0.1889133E+03  0.7818608E-02  0.1159833E+00
         21   -1    0    0  503  502  0.00000000000E+00  0.00000000000E+00  0.10213403015E+03  0.10213403015E+03  0.00000000000E+00 0. -1.
         21   -1    0    0  501  503 -0.00000000000E+00 -0.00000000000E+00 -0.66676263311E+03  0.66676263311E+03  0.00000000000E+00 0. -1.
          6    2    1    2  501    0  0.15067046805E+01 -0.74599677793E+02 -0.54950474670E+03  0.58107118052E+03  0.17355364619E+03 0.  0.
         24    2    3    3    0    0 -0.42967719055E+01 -0.56634027578E+01 -0.46370574108E+03  0.47075595165E+03  0.80855521292E+02 0.  0.
         -6    2    1    2    0  502 -0.15067046805E+01  0.74599677793E+02 -0.15123856269E+02  0.18782548274E+03  0.17170410260E+03 0.  0.
        -24    2    5    5    0    0 -0.25301223036E+02  0.10703219380E+03  0.15007461698E+02  0.13734743284E+03  0.80889127852E+02 0.  0.
          5    1    3    3  501    0  0.58034765860E+01 -0.68936275035E+02 -0.85799005613E+02  0.11031522887E+03  0.47000000000E+01 0. -1.
        -11    1    4    4    0    0  0.18031495971E+02 -0.80173528399E+01 -0.42879408613E+03  0.42924792497E+03  0.00000000000E+00 0.  1.
         12    1    4    4    0    0 -0.22328267876E+02  0.23539500821E+01 -0.34911654958E+02  0.41508026684E+02  0.00000000000E+00 0. -1.
         -5    1    5    5    0  502  0.23794518355E+02 -0.32432516010E+02 -0.30131317967E+02  0.50478049892E+02  0.47000000000E+01 0.  1.
         13    1    6    6    0    0  0.11958384652E+02  0.58301976067E+02 -0.24523974814E+02  0.64370402496E+02  0.00000000000E+00 0. -1.
        -14    1    6    6    0    0 -0.37259607687E+02  0.48730217736E+02  0.39531436513E+02  0.72977030348E+02  0.00000000000E+00 0.  1.
</event>
<event>
12    1  0.1598254E-001  0.2849374E+03  0.7818608E-02  0.1093200E+00
         21   -1    0    0  503  502  0.00000000000E+00  0.00000000000E+00  0.11603895749E+04  0.11603895749E+04  0.00000000000E+00 0. -1.
         21   -1    0    0  501  503 -0.00000000000E+00 -0.00000000000E+00 -0.78577659842E+02  0.78577659842E+02  0.00000000000E+00 0.  1.
          6    2    1    2  501    0 -0.81964845683E+02  0.21242800247E+03  0.74869746276E+03  0.80061288556E+03  0.16908343985E+03 0.  0.
         24    2    3    3    0    0  0.22208133932E+02  0.90204872899E+02  0.30431679709E+03  0.32808059132E+03  0.79987755954E+02 0.  0.
         -6    2    1    2    0  502  0.81964845683E+02 -0.21242800247E+03  0.33311445233E+03  0.43835434920E+03  0.17130500563E+03 0.  0.
        -24    2    5    5    0    0  0.55256097218E+02 -0.12795501625E+03  0.31021872932E+03  0.34672822423E+03  0.67520952216E+02 0.  0.
          5    1    3    3  501    0 -0.10417297962E+03  0.12222312957E+03  0.44438066567E+03  0.47253229425E+03  0.47000000000E+01 0. -1.
        -13    1    4    4    0    0  0.51368451125E+00 -0.14989721549E+02  0.43509799837E+02  0.46022367450E+02  0.00000000000E+00 0.  1.
         14    1    4    4    0    0  0.21694449421E+02  0.10519459445E+03  0.26080699725E+03  0.28205822387E+03  0.00000000000E+00 0. -1.
         -5    1    5    5    0  502  0.26708748465E+02 -0.84472986225E+02  0.22895723002E+02  0.91626124976E+02  0.47000000000E+01 0.  1.
         13    1    6    6    0    0  0.34926536888E+02 -0.81181178725E+02  0.26214640141E+03  0.27664233684E+03  0.00000000000E+00 0. -1.
        -14    1    6    6    0    0  0.20329560330E+02 -0.46773837524E+02  0.48072327912E+02  0.70085887387E+02  0.00000000000E+00 0.  1.
</event>
<event>
12    1  0.1598254E-001  0.2141711E+03  0.7818608E-02  0.1138318E+00
         21   -1    0    0  501  502  0.00000000000E+00  0.00000000000E+00  0.16612686784E+03  0.16612686784E+03  0.00000000000E+00 0. -1.
         21   -1    0    0  502  503 -0.00000000000E+00 -0.00000000000E+00 -0.73313002546E+03  0.73313002546E+03  0.00000000000E+00 0.  1.
         -6    2    1    2    0  503 -0.11438671285E+03 -0.55844989967E+02 -0.63855593168E+03  0.67351535715E+03  0.17223900675E+03 0.  0.
        -24    2    3    3    0    0 -0.77663624519E+02 -0.10525920560E+03 -0.46946589183E+03  0.49350457553E+03  0.77700730596E+02 0.  0.
          6    2    1    2  501    0  0.11438671285E+03  0.55844989967E+02  0.71552774064E+02  0.22574153615E+03  0.17215242865E+03 0.  0.
         24    2    5    5    0    0 -0.10045853574E+02  0.12850989142E+02  0.27830926442E+02  0.86940824150E+02  0.80734622940E+02 0.  0.
          5    1    5    5  501    0  0.12443256642E+03  0.42994000824E+02  0.43721847622E+02  0.13880071201E+03  0.47000000000E+01 0. -1.
        -11    1    6    6    0    0  0.17500199181E+02 -0.23719831043E+02 -0.59140874519E+01  0.30064327474E+02  0.00000000000E+00 0.  1.
         12    1    6    6    0    0 -0.27546052755E+02  0.36570820185E+02  0.33745013894E+02  0.56876496676E+02  0.00000000000E+00 0. -1.
         -5    1    3    3    0  503 -0.36723088330E+02  0.49414215635E+02 -0.16909003985E+03  0.18001078162E+03  0.47000000000E+01 0.  1.
         11    1    4    4    0    0 -0.61273460519E+02 -0.50109368020E+02 -0.37196960571E+03  0.38029826886E+03  0.00000000000E+00 0. -1.
        -12    1    4    4    0    0 -0.16390164000E+02 -0.55149837581E+02 -0.97496286124E+02  0.11320630667E+03  0.00000000000E+00 0.  1.
</event>
<event>
12    1  0.1598254E-001  0.1827578E+03  0.7818608E-02  0.1165533E+00
         21   -1    0    0  503  502  0.00000000000E+00  0.00000000000E+00  0.11732755694E+03  0.11732755694E+03  0.00000000000E+00 0.  1.
         21   -1    0    0  501  503 -0.00000000000E+00 -0.00000000000E+00 -0.30735323282E+03  0.30735323282E+03  0.00000000000E+00 0.  1.
          6    2    1    2  501    0 -0.56261029675E+02 -0.26005650378E+02 -0.15607305074E+03  0.24033148500E+03  0.17192681060E+03 0.  0.
         24    2    3    3    0    0 -0.79203955716E+02 -0.69470543708E+02 -0.12295055094E+03  0.18087759698E+03  0.80625331434E+02 0.  0.
         -6    2    1    2    0  502  0.56261029675E+02  0.26005650378E+02 -0.33952625139E+02  0.18434930476E+03  0.17026534615E+03 0.  0.
        -24    2    5    5    0    0  0.81559918616E+01 -0.36888116714E+02 -0.46825151342E+02  0.10399065536E+03  0.84818678637E+02 0.  0.
          5    1    3    3  501    0  0.22942926041E+02  0.43464893330E+02 -0.33122499801E+02  0.59453888019E+02  0.47000000000E+01 0. -1.
        -11    1    4    4    0    0 -0.48970534427E+02 -0.32272584609E+02 -0.11789360747E+02  0.59821584619E+02  0.00000000000E+00 0.  1.
         12    1    4    4    0    0 -0.30233421289E+02 -0.37197959099E+02 -0.11116119019E+03  0.12105601236E+03  0.00000000000E+00 0. -1.
         -5    1    5    5    0  502  0.48105037814E+02  0.62893767092E+02  0.12872526203E+02  0.80358649397E+02  0.47000000000E+01 0.  1.
         13    1    6    6    0    0 -0.20186510442E+02 -0.25490266456E+02 -0.61903586520E+02  0.69923550481E+02  0.00000000000E+00 0. -1.
        -14    1    6    6    0    0  0.28342502303E+02 -0.11397850259E+02  0.15078435178E+02  0.34067104878E+02  0.00000000000E+00 0.  1.
</event>
<event>
12    1  0.1598254E-001  0.2016504E+03  0.7818608E-02  0.1149120E+00
         21   -1    0    0  503  502  0.00000000000E+00  0.00000000000E+00  0.26579517042E+03  0.26579517042E+03  0.00000000000E+00 0.  1.
         21   -1    0    0  501  503 -0.00000000000E+00 -0.00000000000E+00 -0.29185597917E+03  0.29185597917E+03  0.00000000000E+00 0. -1.
          6    2    1    2  501    0  0.78368705455E+02 -0.65171292331E+02 -0.20731254699E+03  0.28920822214E+03  0.17399411562E+03 0.  0.
         24    2    3    3    0    0 -0.99412296445E+01  0.10847712537E+02 -0.58054973278E+02  0.99794793230E+02  0.79825559311E+02 0.  0.
         -6    2    1    2    0  502 -0.78368705455E+02  0.65171292331E+02  0.18125173825E+03  0.26844292745E+03  0.16976590158E+03 0.  0.
        -24    2    5    5    0    0  0.21177772654E+02  0.12146507413E+02  0.60493940293E+02  0.10313816380E+03  0.79886972168E+02 0.  0.
          5    1    3    3  501    0  0.88309935100E+02 -0.76019004868E+02 -0.14925757372E+03  0.18941342891E+03  0.47000000000E+01 0. -1.
        -11    1    4    4    0    0 -0.41515058693E+01 -0.34061850752E+02 -0.34874161909E+02  0.48924961385E+02  0.00000000000E+00 0.  1.
         12    1    4    4    0    0 -0.57897237752E+01  0.44909563289E+02 -0.23180811369E+02  0.50869831845E+02  0.00000000000E+00 0. -1.
         -5    1    5    5    0  502 -0.99546478109E+02  0.53024784918E+02  0.12075779796E+03  0.16530476366E+03  0.47000000000E+01 0.  1.
         13    1    6    6    0    0  0.28988622472E+02  0.38208783423E+02  0.58797845536E+02  0.75877783331E+02  0.00000000000E+00 0. -1.
        -14    1    6    6    0    0 -0.78108498184E+01 -0.26062276009E+02  0.16960947561E+01  0.27260380465E+02  0.00000000000E+00 0.  1.
</event>
<event>
12    1  0.1598254E-001  0.2314647E+03  0.7818608E-02  0.1127226E+00
         21   -1    0    0  501  502  0.00000000000E+00  0.00000000000E+00  0.21906799372E+03  0.21906799372E+03  0.00000000000E+00 0.  1.
         21   -1    0    0  502  503 -0.00000000000E+00 -0.00000000000E+00 -0.28201971395E+03  0.28201971395E+03  0.00000000000E+00 0.  1.
         -6    2    1    2    0  503  0.18516304506E+02 -0.15346061900E+03 -0.13417782094E+03  0.26754366196E+03  0.17228728422E+03 0.  0.
        -24    2    3    3    0    0 -0.18037110472E+02 -0.12897361793E+02 -0.63240215752E+02  0.10583894572E+03  0.81919950243E+02 0.  0.
          6    2    1    2  501    0 -0.18516304506E+02  0.15346061900E+03  0.71226100712E+02  0.23354404571E+03  0.15992701069E+03 0.  0.
         24    2    5    5    0    0 -0.17242135851E+02  0.16551147475E+03  0.94085852655E+02  0.20724756517E+03  0.80050397104E+02 0.  0.
          5    1    5    5  501    0 -0.12741686551E+01 -0.12050855751E+02 -0.22859751943E+02  0.26296480543E+02  0.47000000000E+01 0. -1.
        -11    1    6    6    0    0 -0.45158407285E+02  0.13903280506E+03  0.74759768574E+02  0.16419021173E+03  0.00000000000E+00 0.  1.
         12    1    6    6    0    0  0.27916271434E+02  0.26478669697E+02  0.19326084081E+02  0.43057353444E+02  0.00000000000E+00 0. -1.
         -5    1    3    3    0  503  0.36553414977E+02 -0.14056325721E+03 -0.70937605186E+02  0.16170471624E+03  0.47000000000E+01 0.  1.
         11    1    4    4    0    0 -0.40471087712E+01  0.34783210361E+02 -0.29356721580E+02  0.45695381762E+02  0.00000000000E+00 0. -1.
        -12    1    4    4    0    0 -0.13990001701E+02 -0.47680572154E+02 -0.33883494172E+02  0.60143563960E+02  0.00000000000E+00 0.  1.
</event>
<event>
12    1  0.1598254E-001  0.2174318E+03  0.7818608E-02  0.1136082E+00
         21   -1    0    0  503  502  0.00000000000E+00  0.00000000000E+00  0.53306066579E+02  0.53306066579E+02  0.00000000000E+00 0.  1.
         21   -1    0    0  501  503 -0.00000000000E+00 -0.00000000000E+00 -0.88153575613E+03  0.88153575613E+03  0.00000000000E+00 0.  1.
          6    2    1    2  501    0 -0.13124384004E+03 -0.74518843830E+01 -0.42302026419E+03  0.47498178366E+03  0.17140908600E+03 0.  0.
         24    2    3    3    0    0 -0.10295826446E+03  0.24943748248E+02 -0.15079010650E+03  0.19933545309E+03  0.75989287693E+02 0.  0.
         -6    2    1    2    0  502  0.13124384004E+03  0.74518843830E+01 -0.40520942535E+03  0.45986003904E+03  0.17319382490E+03 0.  0.
        -24    2    5    5    0    0  0.95260900683E+02  0.59465334120E+02 -0.34789275344E+03  0.37437634611E+03  0.80731130734E+02 0.  0.
          5    1    3    3  501    0 -0.28285575580E+02 -0.32395632631E+02 -0.27223015769E+03  0.27564633057E+03  0.47000000000E+01 0. -1.
        -11    1    4    4    0    0  0.13357750916E+01 -0.55591177240E+01  0.61830041811E+01  0.84212603373E+01  0.00000000000E+00 0.  1.
         12    1    4    4    0    0 -0.10429403955E+03  0.30502865972E+02 -0.15697311068E+03  0.19091419275E+03  0.00000000000E+00 0. -1.
         -5    1    5    5    0  502  0.35982939356E+02 -0.52013449737E+02 -0.57316671914E+02  0.85483692933E+02  0.47000000000E+01 0.  1.
         11    1    6    6    0    0  0.28437891793E+01  0.21228015202E+02 -0.16087682663E+03  0.16229623875E+03  0.00000000000E+00 0. -1.
        -12    1    6    6    0    0  0.92417111504E+02  0.38237318917E+02 -0.18701592681E+03  0.21208010736E+03  0.00000000000E+00 0.  1.
</event>
<event>
12    1  0.1598254E-001  0.2860705E+03  0.7818608E-02  0.1092474E+00
         21   -1    0    0  503  502  0.00000000000E+00  0.00000000000E+00  0.37254468989E+03  0.37254468989E+03  0.00000000000E+00 0.  1.
         21   -1    0    0  501  503 -0.00000000000E+00 -0.00000000000E+00 -0.64835730806E+03  0.64835730806E+03  0.00000000000E+00 0. -1.
          6    2    1    2  501    0 -0.21008308437E+02  0.22765714777E+03 -0.55309281412E+03  0.62250438121E+03  0.17126271527E+03 0.  0.
         24    2    3    3    0    0 -0.79114351057E+01  0.21802544380E+03 -0.35986912586E+03  0.42854103025E+03  0.80894634608E+02 0.  0.
         -6    2    1    2    0  502  0.21008308437E+02 -0.22765714777E+03  0.27728019595E+03  0.39839761674E+03  0.17195123727E+03 0.  0.
        -24    2    5    5    0    0 -0.88062374339E+01 -0.62141642295E+02  0.40605199777E+02  0.10801608579E+03  0.77971526960E+02 0.  0.
          5    1    3    3  501    0 -0.13096873331E+02  0.96317039673E+01 -0.19322368826E+03  0.19396335096E+03  0.47000000000E+01 0. -1.
        -13    1    4    4    0    0  0.67624145996E+01 -0.46725964922E+01 -0.60201526961E+01  0.10188505665E+02  0.00000000000E+00 0.  1.
         14    1    4    4    0    0 -0.14673849705E+02  0.22269804030E+03 -0.35384897317E+03  0.41835252459E+03  0.00000000000E+00 0. -1.
         -5    1    5    5    0  502  0.29814545871E+02 -0.16551550548E+03  0.23667499617E+03  0.29038153094E+03  0.47000000000E+01 0.  1.
         13    1    6    6    0    0 -0.42175330329E+02 -0.46561640654E+02  0.30454938904E+02  0.69815816062E+02  0.00000000000E+00 0. -1.
        -14    1    6    6    0    0  0.33369092895E+02 -0.15580001641E+02  0.10150260873E+02  0.38200269732E+02  0.00000000000E+00 0.  1.
</event>
<event>
12    1  0.1598254E-001  0.2913978E+03  0.7818608E-02  0.1089788E+00
         21   -1    0    0  501  502  0.00000000000E+00  0.00000000000E+00  0.24578313980E+03  0.24578313980E+03  0.00000000000E+00 0. -1.
         21   -1    0    0  502  503 -0.00000000000E+00 -0.00000000000E+00 -0.39430356543E+03  0.39430356543E+03  0.00000000000E+00 0. -1.
         -6    2    1    2    0  503 -0.62899601041E+02  0.22686956767E+03 -0.18847074188E+03  0.34596304150E+03  0.16953773914E+03 0.  0.
        -24    2    3    3    0    0 -0.22385847836E+01  0.21478390689E+03 -0.13904094170E+03  0.26664584767E+03  0.75036569046E+02 0.  0.
          6    2    1    2  501    0  0.62899601041E+02 -0.22686956767E+03  0.39950316257E+02  0.29412366373E+03  0.17171645598E+03 0.  0.
         24    2    5    5    0    0  0.11328299556E+02 -0.15779550168E+03  0.84785999204E+02  0.19684491891E+03  0.80817731462E+02 0.  0.
          5    1    5    5  501    0  0.51571301484E+02 -0.69074065991E+02 -0.44835682947E+02  0.97278744825E+02  0.47000000000E+01 0. -1.
        -13    1    6    6    0    0 -0.19827013326E+02 -0.75248762469E+02  0.51455539361E+01  0.77986944009E+02  0.00000000000E+00 0.  1.
         14    1    6    6    0    0  0.31155312882E+02 -0.82546739206E+02  0.79640445268E+02  0.11885797490E+03  0.00000000000E+00 0. -1.
         -5    1    3    3    0  503 -0.60661016257E+02  0.12085660778E+02 -0.49429800183E+02  0.79317193823E+02  0.47000000000E+01 0.  1.
         13    1    4    4    0    0 -0.17472973507E+02  0.61301755863E+02 -0.78089656106E+02  0.10080279989E+03  0.00000000000E+00 0. -1.
        -14    1    4    4    0    0  0.15234388723E+02  0.15348215103E+03 -0.60951285592E+02  0.16584304778E+03  0.00000000000E+00 0.  1.
</event>
<event>
12    1  0.1598254E-001  0.1958491E+03  0.7818608E-02  0.1153412E+00
         21   -1    0    0  501  502  0.00000000000E+00  0.00000000000E+00  0.42622076395E+03  0.42622076395E+03  0.00000000000E+00 0.  1.
         21   -1    0    0  502  503 -0.00000000000E+00 -0.00000000000E+00 -0.11526326038E+03  0.11526326038E+03  0.00000000000E+00 0. -1.
         -6    2    1    2    0  503  0.45225952747E+02 -0.80208621026E+02  0.27882364569E+02  0.19726256290E+03  0.17220999616E+03 0.  0.
        -24    2    3    3    0    0  0.73739433848E+02 -0.43202598572E+02  0.73533330210E+02  0.13177542701E+03  0.68217621512E+02 0.  0.
          6    2    1    2  501    0 -0.45225952747E+02  0.80208621026E+02  0.28307513901E+03  0.34422146144E+03  0.17285274224E+03 0.  0.
         24    2    5    5    0    0  0.41680563836E+02  0.50091439187E+02  0.16472587307E+03  0.19426004635E+03  0.79724090893E+02 0.  0.
          5    1    5    5  501    0 -0.86906516582E+02  0.30117181839E+02  0.11834926594E+03  0.14996141509E+03  0.47000000000E+01 0. -1.
        -11    1    6    6    0    0 -0.82562981037E+01  0.43387465918E+02  0.39403481979E+02  0.59188453682E+02  0.00000000000E+00 0.  1.
         12    1    6    6    0    0  0.49936861939E+02  0.67039732691E+01  0.12532239109E+03  0.13507159267E+03  0.00000000000E+00 0. -1.
         -5    1    3    3    0  503 -0.28513481101E+02 -0.37006022454E+02 -0.45650965641E+02  0.65487135884E+02  0.47000000000E+01 0.  1.
         11    1    4    4    0    0  0.43209778640E+02 -0.60200948434E+02  0.45304274412E+02  0.86854570648E+02  0.00000000000E+00 0. -1.
        -12    1    4    4    0    0  0.30529655208E+02  0.16998349863E+02  0.28229055798E+02  0.44920856363E+02  0.00000000000E+00 0.  1.
</event>
<event>
12    1  0.1598254E-001  0.3274501E+03  0.7818608E-02  0.1072927E+00
         21   -1    0    0  503  502  0.00000000000E+00  0.00000000000E+00  0.23469640919E+04  0.23469640919E+04  0.00000000000E+00 0. -1.
         21   -1    0    0  501  503 -0.00000000000E+00 -0.00000000000E+00 -0.47701628769E+02  0.47701628769E+02  0.00000000000E+00 0. -1.
          6    2    1    2  501    0 -0.85683768741E+02  0.25829785393E+03  0.84866620763E+03  0.90757020022E+03  0.17143467202E+03 0.  0.
         24    2    3    3    0    0 -0.67762978814E+02  0.24268295564E+03  0.84189142923E+03  0.88241135719E+03  0.79886084033E+02 0.  0.
         -6    2    1    2    0  502  0.85683768741E+02 -0.25829785393E+03  0.14505962555E+04  0.14870955205E+04  0.18211013405E+03 0.  0.
        -24    2    5    5    0    0  0.97401148448E+02 -0.74149009432E+02  0.62378294397E+03  0.63992939977E+03  0.73616684142E+02 0.  0.
          5    1    3    3  501    0 -0.17920789927E+02  0.15614898287E+02  0.67747784011E+01  0.25158843028E+02  0.47000000000E+01 0. -1.
        -11    1    4    4    0    0  0.53392363683E+01  0.12641587731E+03  0.42973602188E+03  0.44797603729E+03  0.00000000000E+00 0.  1.
         12    1    4    4    0    0 -0.73102215182E+02  0.11626707833E+03  0.41215540735E+03  0.43443531990E+03  0.00000000000E+00 0. -1.
         -5    1    5    5    0  502 -0.11717379707E+02 -0.18414884449E+03  0.82681331156E+03  0.84716612072E+03  0.47000000000E+01 0.  1.
         13    1    6    6    0    0  0.78486615471E+02 -0.87293554288E+02  0.47037805220E+03  0.48480493543E+03  0.00000000000E+00 0. -1.
        -14    1    6    6    0    0  0.18914532977E+02  0.13144544855E+02  0.15340489177E+03  0.15512446434E+03  0.00000000000E+00 0.  1.
</event>
<event>
12    1  0.1598254E-001  0.1773701E+03  0.7818608E-02  0.1170450E+00
         21   -1    0    0  501  502  0.00000000000E+00  0.00000000000E+00  0.18156902440E+03  0.18156902440E+03  0.00000000000E+00 0. -1.
         21   -1    0    0  502  503 -0.00000000000E+00 -0.00000000000E+00 -0.24373253863E+03  0.24373253863E+03  0.00000000000E+00 0. -1.
         -6    2    1    2    0  503  0.94365308197E+01  0.45446749504E+02 -0.14564877443E+03  0.22926599510E+03  0.17086508087E+03 0.  0.
        -24    2    3    3    0    0  0.69129206576E+02  0.10624253337E+02 -0.97927939199E+02  0.14515184710E+03  0.81163141137E+02 0.  0.
          6    2    1    2  501    0 -0.94365308197E+01 -0.45446749504E+02  0.83485260202E+02  0.19603556793E+03  0.17118907695E+03 0.  0.
         24    2    5    5    0    0  0.60357069695E+02 -0.26029859441E+02  0.47982647289E+02  0.11522289679E+03  0.81568695342E+02 0.  0.
          5    1    5    5  501    0 -0.69793600515E+02 -0.19416890064E+02  0.35502612913E+02  0.80812671136E+02  0.47000000000E+01 0. -1.
        -13    1    6    6    0    0  0.60642178351E+02 -0.49327679069E+02  0.48359538960E+02  0.91920284627E+02  0.00000000000E+00 0.  1.
         14    1    6    6    0    0 -0.28510865624E+00  0.23297819629E+02 -0.37689167110E+00  0.23302612165E+02  0.00000000000E+00 0. -1.
         -5    1    3    3    0  503 -0.59692675756E+02  0.34822496167E+02 -0.47720835234E+02  0.84114148000E+02  0.47000000000E+01 0.  1.
         13    1    4    4    0    0  0.22372994573E+02 -0.33928344665E+02 -0.51536490656E+02  0.65633020097E+02  0.00000000000E+00 0. -1.
        -14    1    4    4    0    0  0.46756212004E+02  0.44552598003E+02 -0.46391448543E+02  0.79518827001E+02  0.00000000000E+00 0.  1.
</event>
<event>
12    1  0.1598254E-001  0.2179175E+03  0.7818608E-02  0.1135576E+00
         21   -1    0    0  501  502  0.00000000000E+00  0.00000000000E+00  0.10015961843E+04  0.10015961843E+04  0.00000000000E+00 0.  1.
         21   -1    0    0  502  503 -0.00000000000E+00 -0.00000000000E+00 -0.72595860154E+02  0.72595860154E+02  0.00000000000E+00 0. -1.
         -6    2    1    2    0  503 -0.62554817929E+01  0.13294381410E+03  0.14673929417E+03  0.26214502664E+03  0.17168111655E+03 0.  0.
        -24    2    3    3    0    0 -0.17251429256E+02  0.14090978536E+03  0.59370736695E+02  0.17360281979E+03  0.80373349080E+02 0.  0.
          6    2    1    2  501    0  0.62554817929E+01 -0.13294381410E+03  0.78226102995E+03  0.81204701778E+03  0.17255390855E+03 0.  0.
         24    2    5    5    0    0  0.39595023911E+02 -0.95133504955E+02  0.30022223703E+03  0.32735677399E+03  0.80068197115E+02 0.  0.
          5    1    5    5  501    0 -0.33339542118E+02 -0.37810309149E+02  0.48203879292E+03  0.48469024379E+03  0.47000000000E+01 0. -1.
        -13    1    6    6    0    0  0.31383273795E+02 -0.91872687216E+01  0.15496761338E+03  0.15838016599E+03  0.00000000000E+00 0.  1.
         14    1    6    6    0    0  0.82117501156E+01 -0.85946236233E+02  0.14525462365E+03  0.16897660801E+03  0.00000000000E+00 0. -1.
         -5    1    3    3    0  503  0.10995947463E+02 -0.79659712558E+01  0.87368557476E+02  0.88542206851E+02  0.47000000000E+01 0.  1.
         13    1    4    4    0    0  0.23760829975E+02  0.77725896760E+02  0.64260065926E+01  0.81530274310E+02  0.00000000000E+00 0. -1.
        -14    1    4    4    0    0 -0.41012259231E+02  0.63183888599E+02  0.52944730103E+02  0.92072545481E+02  0.00000000000E+00 0.  1.
</event>
<event>
12    1  0.1598254E-001  0.2062562E+03  0.7818608E-02  0.1144951E+00
         21   -1    0    0  501  502  0.00000000000E+00  0.00000000000E+00  0.70861245961E+02  0.70861245961E+02  0.00000000000E+00 0. -1.
         21   -1    0    0  502  503 -0.00000000000E+00 -0.00000000000E+00 -0.66699723038E+03  0.66699723038E+03  0.00000000000E+00 0. -1.
         -6    2    1    2    0  503  0.96118452286E+02  0.46525380253E+02 -0.41817827601E+03  0.46544230077E+03  0.17424149030E+03 0.  0.
        -24    2    3    3    0    0  0.75294651314E+02 -0.24417643552E+02 -0.33334031733E+03  0.35280965654E+03  0.84222210580E+02 0.  0.
          6    2    1    2  501    0 -0.96118452286E+02 -0.46525380253E+02 -0.17795770842E+03  0.27241617558E+03  0.17646036058E+03 0.  0.
         24    2    5    5    0    0 -0.93897553643E+02 -0.56208289107E+02 -0.20316518305E+03  0.24491712301E+03  0.82049882343E+02 0.  0.
          5    1    5    5  501    0 -0.22208986432E+01  0.96829088537E+01  0.25207474639E+02  0.27499052571E+02  0.47000000000E+01 0. -1.
        -13    1    6    6    0    0 -0.91901521435E+02 -0.73551879661E+02 -0.16241886603E+03  0.20058827654E+03  0.00000000000E+00 0.  1.
         14    1    6    6    0    0 -0.19960322075E+01  0.17343590555E+02 -0.40746317022E+02  0.44328846463E+02  0.00000000000E+00 0. -1.
         -5    1    3    3    0  503  0.20823800972E+02  0.70943023805E+02 -0.84837958677E+02  0.11263264423E+03  0.47000000000E+01 0.  1.
         11    1    4    4    0    0  0.56450851662E+02 -0.55149218299E+02 -0.21130752474E+03  0.22556374918E+03  0.00000000000E+00 0. -1.
        -12    1    4    4    0    0  0.18843799651E+02  0.30731574747E+02 -0.12203279260E+03  0.12724590736E+03  0.00000000000E+00 0.  1.
</event>
<event>
12    1  0.1598254E-001  0.1790012E+03  0.7818608E-02  0.1169432E+00
         21   -1    0    0  503  502  0.00000000000E+00  0.00000000000E+00  0.12932515560E+03  0.12932515560E+03  0.00000000000E+00 0.  1.
         21   -1    0    0  501  503 -0.00000000000E+00 -0.00000000000E+00 -0.27913020403E+03  0.27913020403E+03  0.00000000000E+00 0.  1.
          6    2    1    2  501    0  0.45690017543E+02  0.18657463297E+02 -0.14679377335E+03  0.22942884292E+03  0.16927345755E+03 0.  0.
         24    2    3    3    0    0  0.95554601884E+02  0.15605818434E+02 -0.88860691122E+02  0.15278602640E+03  0.77930250389E+02 0.  0.
         -6    2    1    2    0  502 -0.45690017543E+02 -0.18657463297E+02 -0.30112750745E+01  0.17902651671E+03  0.17206320719E+03 0.  0.
        -24    2    5    5    0    0 -0.72606441451E+02  0.25660478018E+02  0.76616501502E+01  0.12587978463E+03  0.99281739620E+02 0.  0.
          5    1    3    3  501    0 -0.49864584341E+02  0.30516448630E+01 -0.57933082228E+02  0.76642816521E+02  0.47000000000E+01 0. -1.
        -13    1    4    4    0    0  0.34924057662E+01  0.30745446287E+02 -0.23934492540E+02  0.39119551359E+02  0.00000000000E+00 0.  1.
         14    1    4    4    0    0  0.92062196118E+02 -0.15139627853E+02 -0.64926198581E+02  0.11366647504E+03  0.00000000000E+00 0. -1.
         -5    1    5    5    0  502  0.26916423908E+02 -0.44317941315E+02 -0.10672925225E+02  0.53146732084E+02  0.47000000000E+01 0.  1.
         13    1    6    6    0    0  0.12779650856E+02  0.11072967052E+02 -0.27589051461E+02  0.32358705719E+02  0.00000000000E+00 0. -1.
        -14    1    6    6    0    0 -0.85386092307E+02  0.14587510967E+02  0.35250701611E+02  0.93521078906E+02  0.00000000000E+00 0.  1.
</event>
<event>
12    1  0.1598254E-001  0.1998714E+03  0.7818608E-02  0.1149853E+00
         21   -1    0    0  501  502  0.00000000000E+00  0.00000000000E+00  0.10851642310E+04  0.10851642310E+04  0.00000000000E+00 0.  1.
         21   -1    0    0  502  503 -0.00000000000E+00 -0.00000000000E+00 -0.37142010196E+02  0.37142010196E+02  0.00000000000E+00 0. -1.
         -6    2    1    2    0  503 -0.26447328634E+02 -0.97987991119E+02  0.47083110265E+03  0.51148861859E+03  0.17215566250E+03 0.  0.
        -24    2    3    3    0    0 -0.23860409687E+02 -0.13697668262E+03  0.38047425546E+03  0.41293274586E+03  0.80130286450E+02 0.  0.
          6    2    1    2  501    0  0.26447328634E+02  0.97987991119E+02  0.57719111817E+03  0.61081762262E+03  0.17218441746E+03 0.  0.
         24    2    5    5    0    0  0.44216520377E+01 -0.37380887390E+01  0.12676766410E+03  0.14850095223E+03  0.77129552284E+02 0.  0.
          5    1    5    5  501    0  0.22025676596E+02  0.10172607986E+03  0.45042345407E+03  0.46231667040E+03  0.47000000000E+01 0. -1.
        -11    1    6    6    0    0 -0.30425835075E+02  0.34611899087E+01  0.21592026943E+02  0.37469012572E+02  0.00000000000E+00 0.  1.
         12    1    6    6    0    0  0.34847487113E+02 -0.71992786477E+01  0.10517563716E+03  0.11103193965E+03  0.00000000000E+00 0. -1.
         -5    1    3    3    0  503 -0.25869189467E+01  0.38988691503E+02  0.90356847191E+02  0.98555872727E+02  0.47000000000E+01 0.  1.
         11    1    4    4    0    0  0.23161400764E+02 -0.30274220204E+02  0.14832784171E+03  0.15314740455E+03  0.00000000000E+00 0. -1.
        -12    1    4    4    0    0 -0.47021810452E+02 -0.10670246242E+03  0.23214641374E+03  0.25978534131E+03  0.00000000000E+00 0.  1.
</event>
<event>
12    1  0.1598254E-001  0.1776871E+03  0.7818608E-02  0.1170075E+00
         21   -1    0    0  503  502  0.00000000000E+00  0.00000000000E+00  0.17938414617E+03  0.17938414617E+03  0.00000000000E+00 0. -1.
         21   -1    0    0  501  503 -0.00000000000E+00 -0.00000000000E+00 -0.19729826278E+03  0.19729826278E+03  0.00000000000E+00 0. -1.
          6    2    1    2  501    0  0.46534934894E+02  0.58269517621E+01 -0.70913827248E+02  0.19125940187E+03  0.17132406245E+03 0.  0.
         24    2    3    3    0    0  0.10934390249E+02  0.33069278800E+01  0.24045736170E+02  0.89705682174E+02  0.85664551153E+02 0.  0.
         -6    2    1    2    0  502 -0.46534934894E+02 -0.58269517621E+01  0.52999710635E+02  0.18542300708E+03  0.17138631420E+03 0.  0.
        -24    2    5    5    0    0 -0.30434910317E+01  0.48693369303E+02  0.82237830460E+02  0.10965409031E+03  0.53671703079E+02 0.  0.
          5    1    3    3  501    0  0.35600544645E+02  0.25200238821E+01 -0.94959563418E+02  0.10155371970E+03  0.47000000000E+01 0. -1.
        -11    1    4    4    0    0 -0.31949541975E+02 -0.14778838183E+02 -0.39017548022E+01  0.35417664815E+02  0.00000000000E+00 0.  1.
         12    1    4    4    0    0  0.42883932224E+02  0.18085766063E+02  0.27947490972E+02  0.54288017358E+02  0.00000000000E+00 0. -1.
         -5    1    5    5    0  502 -0.43491443862E+02 -0.54520321065E+02 -0.29238119825E+02  0.75768916774E+02  0.47000000000E+01 0.  1.
         11    1    6    6    0    0 -0.20292646466E+02  0.49827860609E+02  0.70814393700E+02  0.88934164125E+02  0.00000000000E+00 0. -1.
        -12    1    6    6    0    0  0.17249155434E+02 -0.11344913065E+01  0.11423436759E+02  0.20719926185E+02  0.00000000000E+00 0.  1.
</event>
<event>
12    1  0.1598254E-001  0.1922769E+03  0.7818608E-02  0.1157018E+00
         21   -1    0    0  503  502  0.00000000000E+00  0.00000000000E+00  0.15964169697E+03  0.15964169697E+03  0.00000000000E+00 0. -1.
         21   -1    0    0  501  503 -0.00000000000E+00 -0.00000000000E+00 -0.50479247256E+03  0.50479247256E+03  0.00000000000E+00 0. -1.
          6    2    1    2  501    0 -0.22232250067E+02  0.81068677687E+02 -0.41894621689E+03  0.46096242459E+03  0.17292779068E+03 0.  0.
         24    2    3    3    0    0 -0.27055243977E+02  0.12091468907E+03 -0.36726446840E+03  0.39535709691E+03  0.77921088712E+02 0.  0.
         -6    2    1    2    0  502  0.22232250067E+02 -0.81068677687E+02  0.73795441303E+02  0.20347174494E+03  0.16996640958E+03 0.  0.
        -24    2    5    5    0    0  0.61935007309E+02 -0.75223973200E+02  0.95122049795E+02  0.15778385012E+03  0.79705380795E+02 0.  0.
          5    1    3    3  501    0  0.48229939105E+01 -0.39846011380E+02 -0.51681748487E+02  0.65605327679E+02  0.47000000000E+01 0. -1.
        -13    1    4    4    0    0  0.89601517572E+01 -0.76268227384E+01 -0.18576238914E+02  0.21989301872E+02  0.00000000000E+00 0.  1.
         14    1    4    4    0    0 -0.36015395734E+02  0.12854151181E+03 -0.34868822949E+03  0.37336779504E+03  0.00000000000E+00 0. -1.
         -5    1    5    5    0  502 -0.39702757242E+02 -0.58447044869E+01 -0.21326608492E+02  0.45687894819E+02  0.47000000000E+01 0.  1.
         13    1    6    6    0    0  0.55289275468E+02 -0.42644067793E+02  0.15537038258E+02  0.71531951305E+02  0.00000000000E+00 0. -1.
        -14    1    6    6    0    0  0.66457318409E+01 -0.32579905407E+02  0.79585011537E+02  0.86251898816E+02  0.00000000000E+00 0.  1.
</event>
<event>
12    1  0.1598254E-001  0.1740339E+03  0.7818608E-02  0.1175502E+00
         21   -1    0    0  503  502  0.00000000000E+00  0.00000000000E+00  0.13852833171E+03  0.13852833171E+03  0.00000000000E+00 0. -1.
         21   -1    0    0  501  503 -0.00000000000E+00 -0.00000000000E+00 -0.21251867093E+03  0.21251867093E+03  0.00000000000E+00 0. -1.
          6    2    1    2  501    0  0.11073959407E+02 -0.24024752994E+02 -0.18601226347E+02  0.17502519421E+03  0.17201160325E+03 0.  0.
         24    2    3    3    0    0 -0.23731654864E+02 -0.23249447658E+02  0.50110588074E+02  0.97853727177E+02  0.77204615318E+02 0.  0.
         -6    2    1    2    0  502 -0.11073959407E+02  0.24024752994E+02 -0.55389112874E+02  0.17602180843E+03  0.16497242765E+03 0.  0.
        -24    2    5    5    0    0  0.45959475886E+01  0.77420636544E+02 -0.36574924356E+02  0.11709193438E+03  0.79735301523E+02 0.  0.
          5    1    3    3  501    0  0.34805614271E+02 -0.77530533628E+00 -0.68711814421E+02  0.77171467034E+02  0.47000000000E+01 0. -1.
        -13    1    4    4    0    0  0.27894768961E+02 -0.91755172423E+01  0.10153173492E+02  0.31070809195E+02  0.00000000000E+00 0.  1.
         14    1    4    4    0    0 -0.51626423824E+02 -0.14073930416E+02  0.39957414582E+02  0.66782917983E+02  0.00000000000E+00 0. -1.
         -5    1    5    5    0  502 -0.15669906996E+02 -0.53395883549E+02 -0.18814188518E+02  0.58929874044E+02  0.47000000000E+01 0.  1.
         11    1    6    6    0    0  0.17481485607E+02 -0.10849812303E+02  0.26954383930E+00  0.20576525944E+02  0.00000000000E+00 0. -1.
        -12    1    6    6    0    0 -0.12885538019E+02  0.88270448847E+02 -0.36844468195E+02  0.96515408440E+02  0.00000000000E+00 0.  1.
</event>
<event>
12    1  0.1598254E-001  0.2367174E+03  0.7818608E-02  0.1122245E+00
         21   -1    0    0  501  502  0.00000000000E+00  0.00000000000E+00  0.84361883717E+03  0.84361883717E+03  0.00000000000E+00 0. -1.
         21   -1    0    0  502  503 -0.00000000000E+00 -0.00000000000E+00 -0.14735585287E+03  0.14735585287E+03  0.00000000000E+00 0. -1.
         -6    2    1    2    0  503 -0.97063626657E+02  0.12835939844E+03  0.71577991766E+03  0.75345407803E+03  0.17162364169E+03 0.  0.
        -24    2    3    3    0    0 -0.13030711630E+03  0.71608658764E+02  0.50158595143E+03  0.52934044340E+03  0.80654161569E+02 0.  0.
          6    2    1    2  501    0  0.97063626657E+02 -0.12835939844E+03 -0.19516933355E+02  0.23752061201E+03  0.17360198055E+03 0.  0.
         24    2    5    5    0    0 -0.62521295135E+01 -0.16884591784E+02  0.91728918145E+01  0.82775744365E+02  0.80271435442E+02 0.  0.
          5    1    5    5  501    0  0.10331575617E+03 -0.11147480666E+03 -0.28689825169E+02  0.15474486764E+03  0.47000000000E+01 0. -1.
        -13    1    6    6    0    0  0.45897097445E+01  0.72750585800E+01  0.40702273108E+02  0.41601285426E+02  0.00000000000E+00 0.  1.
         14    1    6    6    0    0 -0.10841839258E+02 -0.24159650364E+02 -0.31529381294E+02  0.41174458940E+02  0.00000000000E+00 0. -1.
         -5    1    3    3    0  503  0.33243489644E+02  0.56750739680E+02  0.21419396623E+03  0.22411363463E+03  0.47000000000E+01 0.  1.
         13    1    4    4    0    0 -0.71784461818E+02  0.82402051236E+02  0.34090862441E+03  0.35799692346E+03  0.00000000000E+00 0. -1.
        -14    1    4    4    0    0 -0.58522654483E+02 -0.10793392472E+02  0.16067732702E+03  0.17134351994E+03  0.00000000000E+00 0.  1.
</event>
<event>
12    1  0.1598254E-001  0.1827464E+03  0.7818608E-02  0.1165214E+00
         21   -1    0    0  501  502  0.00000000000E+00  0.00000000000E+00  0.11735357812E+03  0.11735357812E+03  0.00000000000E+00 0. -1.
         21   -1    0    0  502  503 -0.00000000000E+00 -0.00000000000E+00 -0.29153663700E+03  0.29153663700E+03  0.00000000000E+00 0. -1.
         -6    2    1    2    0  503  0.38375950030E+02  0.47572979011E+02 -0.54833604996E+02  0.19062312229E+03  0.17203066193E+03 0.  0.
        -24    2    3    3    0    0  0.31087326867E+01  0.48861664015E+02  0.31512708316E+02  0.97224979107E+02  0.77862181756E+02 0.  0.
          6    2    1    2  501    0 -0.38375950030E+02 -0.47572979011E+02 -0.11934945389E+03  0.21826709282E+03  0.17222174600E+03 0.  0.
         24    2    5    5    0    0 -0.47601971100E+02 -0.42141094368E+02 -0.15219028150E+03  0.18340687490E+03  0.80214590252E+02 0.  0.
          5    1    5    5  501    0  0.92260210698E+01 -0.54318846425E+01  0.32840827614E+02  0.34860217927E+02  0.47000000000E+01 0. -1.
        -11    1    6    6    0    0 -0.24550173662E+02  0.19019868422E+02 -0.23073283193E+02  0.38689052960E+02  0.00000000000E+00 0.  1.
         12    1    6    6    0    0 -0.23051797438E+02 -0.61160962790E+02 -0.12911699831E+03  0.14471782194E+03  0.00000000000E+00 0. -1.
         -5    1    3    3    0  503  0.35267217343E+02 -0.12886850040E+01 -0.86346313312E+02  0.93398143187E+02  0.47000000000E+01 0.  1.
         13    1    4    4    0    0 -0.18316610711E+02  0.36825522355E+02 -0.15680327299E+02  0.44016928436E+02  0.00000000000E+00 0. -1.
        -14    1    4    4    0    0  0.21425343398E+02  0.12036141659E+02  0.47193035615E+02  0.53208050672E+02  0.00000000000E+00 0.  1.
</event>
<event>
12    1  0.1598254E-001  0.2570294E+03  0.7818608E-02  0.1109592E+00
         21   -1    0    0  503  502  0.00000000000E+00  0.00000000000E+00  0.51541007580E+02  0.51541007580E+02  0.00000000000E+00 0. -1.
         21   -1    0    0  501  503 -0.00000000000E+00 -0.00000000000E+00 -0.13797007944E+04  0.13797007944E+04  0.00000000000E+00 0.  1.
          6    2    1    2  501    0 -0.13838012796E+03 -0.13150101109E+03 -0.86915366382E+03  0.90517077275E+03  0.16572405009E+03 0.  0.
         24    2    3    3    0    0 -0.39688420917E+02 -0.12492514760E+03 -0.57328172154E+03  0.59316822269E+03  0.77557365186E+02 0.  0.
         -6    2    1    2    0  502  0.13838012796E+03  0.13150101109E+03 -0.45900612298E+03  0.52607102921E+03  0.17211197259E+03 0.  0.
        -24    2    5    5    0    0  0.14733356568E+03  0.83145089365E+02 -0.43001354190E+03  0.46878997675E+03  0.78943718054E+02 0.  0.
          5    1    3    3  501    0 -0.98691707039E+02 -0.65758634942E+01 -0.29587194228E+03  0.31200255007E+03  0.47000000000E+01 0. -1.
        -13    1    4    4    0    0 -0.42721385113E+02 -0.11787478890E+03 -0.38856209013E+03  0.40828921182E+03  0.00000000000E+00 0.  1.
         14    1    4    4    0    0  0.30329641954E+01 -0.70503586991E+01 -0.18471963141E+03  0.18487901087E+03  0.00000000000E+00 0. -1.
         -5    1    5    5    0  502 -0.89534377261E+01  0.48355921727E+02 -0.28992581079E+02  0.57281052459E+02  0.47000000000E+01 0.  1.
         11    1    6    6    0    0  0.54447844548E+02  0.11531049720E+02 -0.65926756870E+02  0.86277865962E+02  0.00000000000E+00 0. -1.
        -12    1    6    6    0    0  0.92885721135E+02  0.71614039645E+02 -0.36408678503E+03  0.38251211078E+03  0.00000000000E+00 0.  1.
</event>
<event>
12    1  0.1598254E-001  0.1917190E+03  0.7818608E-02  0.1157212E+00
         21   -1    0    0  501  502  0.00000000000E+00  0.00000000000E+00  0.10480484002E+03  0.10480484002E+03  0.00000000000E+00 0.  1.
         21   -1    0    0  502  503 -0.00000000000E+00 -0.00000000000E+00 -0.42267840329E+03  0.42267840329E+03  0.00000000000E+00 0. -1.
         -6    2    1    2    0  503  0.79597786180E+02 -0.30553646370E+02 -0.27000190656E+03  0.33114530003E+03  0.17171734715E+03 0.  0.
        -24    2    3    3    0    0  0.12765281434E+02 -0.19934596192E+02 -0.24594165188E+03  0.25917076444E+03  0.78242242271E+02 0.  0.
          6    2    1    2  501    0 -0.79597786180E+02  0.30553646370E+02 -0.47871656710E+02  0.19633794328E+03  0.17025733342E+03 0.  0.
         24    2    5    5    0    0 -0.55536271150E+02  0.53832922018E+02  0.27070918730E+02  0.11412261141E+03  0.79428426198E+02 0.  0.
          5    1    5    5  501    0 -0.24061515030E+02 -0.23279275648E+02 -0.74942575440E+02  0.82215331866E+02  0.47000000000E+01 0. -1.
        -11    1    6    6    0    0 -0.73388145502E+02  0.30035096257E+02  0.28695573276E+02  0.84328896786E+02  0.00000000000E+00 0.  1.
         12    1    6    6    0    0  0.17851874353E+02  0.23797825761E+02 -0.16246545454E+01  0.29793714626E+02  0.00000000000E+00 0. -1.
         -5    1    3    3    0  503  0.66832504746E+02 -0.10619050178E+02 -0.24060254676E+02  0.71974535583E+02  0.47000000000E+01 0.  1.
         11    1    4    4    0    0  0.31829461478E+02 -0.34270152779E+02 -0.90120587707E+02  0.10153461635E+03  0.00000000000E+00 0. -1.
        -12    1    4    4    0    0 -0.19064180044E+02  0.14335556587E+02 -0.15582106418E+03  0.15763614809E+03  0.00000000000E+00 0.  1.
</event>
<event>
12    1  0.1598254E-001  0.1933505E+03  0.7818608E-02  0.1155560E+00
         21   -1    0    0  501  502  0.00000000000E+00  0.00000000000E+00  0.70236178605E+02  0.70236178605E+02  0.00000000000E+00 0.  1.
         21   -1    0    0  502  503 -0.00000000000E+00 -0.00000000000E+00 -0.17901841309E+04  0.17901841309E+04  0.00000000000E+00 0. -1.
         -6    2    1    2    0  503 -0.86093058654E+02 -0.20801722710E+02 -0.16398040577E+04  0.16511179624E+04  0.17143060315E+03 0.  0.
        -24    2    3    3    0    0 -0.49014214359E+02  0.54931259709E+02 -0.99952397417E+03  0.10052921340E+04  0.78385350368E+02 0.  0.
          6    2    1    2  501    0  0.86093058654E+02  0.20801722710E+02 -0.80143894690E+02  0.20930234720E+03  0.17187117929E+03 0.  0.
         24    2    5    5    0    0  0.10899589543E+03  0.44616417853E+02 -0.95895849830E+02  0.17239850285E+03  0.81575117578E+02 0.  0.
          5    1    5    5  501    0 -0.22902836773E+02 -0.23814695143E+02  0.15751955141E+02  0.36903844349E+02  0.47000000000E+01 0. -1.
        -11    1    6    6    0    0  0.11334501047E+03  0.28158275255E+02 -0.57035604410E+02  0.12997322815E+03  0.00000000000E+00 0.  1.
         12    1    6    6    0    0 -0.43491150457E+01  0.16458142598E+02 -0.38860245420E+02  0.42425274702E+02  0.00000000000E+00 0. -1.
         -5    1    3    3    0  503 -0.37078844295E+02 -0.75732982419E+02 -0.64028008348E+03  0.64582582840E+03  0.47000000000E+01 0.  1.
         11    1    4    4    0    0  0.18727241056E+02  0.28239815729E+02 -0.26178552062E+03  0.26396942163E+03  0.00000000000E+00 0. -1.
        -12    1    4    4    0    0 -0.67741455414E+02  0.26691443980E+02 -0.73773845355E+03  0.74132271233E+03  0.00000000000E+00 0.  1.
</event>
<event>
12    1  0.1598254E-001  0.2758479E+03  0.7818608E-02  0.1098375E+00
         21   -1    0    0  501  502  0.00000000000E+00  0.00000000000E+00  0.69389006554E+02  0.69389006554E+02  0.00000000000E+00 0.  1.
         21   -1    0    0  502  503 -0.00000000000E+00 -0.00000000000E+00 -0.12349571925E+04  0.12349571925E+04  0.00000000000E+00 0.  1.
         -6    2    1    2    0  503 -0.19266970577E+03 -0.89060587427E+02 -0.81241583062E+03  0.85796943182E+03  0.17617792242E+03 0.  0.
        -24    2    3    3    0    0 -0.12841748317E+03  0.11699358336E+02 -0.53096545165E+03  0.55216341389E+03  0.79575120661E+02 0.  0.
          6    2    1    2  501    0  0.19266970577E+03  0.89060587427E+02 -0.35315235529E+03  0.44637676720E+03  0.17170389772E+03 0.  0.
         24    2    5    5    0    0  0.20111775619E+03  0.68197181110E+02 -0.35701438918E+03  0.42306032269E+03  0.80134606665E+02 0.  0.
          5    1    5    5  501    0 -0.84480504182E+01  0.20863406318E+02  0.38620338861E+01  0.23316444514E+02  0.47000000000E+01 0. -1.
        -13    1    6    6    0    0  0.35673814639E+02 -0.48832748263E+01 -0.21598092999E+02  0.41987439135E+02  0.00000000000E+00 0.  1.
         14    1    6    6    0    0  0.16544394155E+03  0.73080455936E+02 -0.33541629618E+03  0.38107288355E+03  0.00000000000E+00 0. -1.
         -5    1    3    3    0  503 -0.64252222593E+02 -0.10075994576E+03 -0.28145037897E+03  0.30580601793E+03  0.47000000000E+01 0.  1.
         11    1    4    4    0    0 -0.29154274693E+02  0.22143016094E+02 -0.27499942437E+03  0.27742560858E+03  0.00000000000E+00 0. -1.
        -12    1    4    4    0    0 -0.99263208481E+02 -0.10443657758E+02 -0.25596602727E+03  0.27473780531E+03  0.00000000000E+00 0.  1.
</event>
<event>
12    1  0.1598254E-001  0.1913324E+03  0.7818608E-02  0.1157553E+00
         21   -1    0    0  503  502  0.00000000000E+00  0.00000000000E+00  0.10233303377E+03  0.10233303377E+03  0.00000000000E+00 0.  1.
         21   -1    0    0  501  503 -0.00000000000E+00 -0.00000000000E+00 -0.76062066989E+03  0.76062066989E+03  0.00000000000E+00 0. -1.
          6    2    1    2  501    0 -0.24410342772E+02  0.72988882230E+02 -0.64358338518E+03  0.67105712718E+03  0.17376666105E+03 0.  0.
         24    2    3    3    0    0 -0.68829702774E+02  0.34418730000E+02 -0.25993023008E+03  0.28289148006E+03  0.80880702403E+02 0.  0.
         -6    2    1    2    0  502  0.24410342772E+02 -0.72988882230E+02 -0.14704250941E+02  0.19189657648E+03  0.17517088601E+03 0.  0.
        -24    2    5    5    0    0  0.32132941074E+02 -0.69410003264E+02 -0.73135449554E+02  0.13266194244E+03  0.80000765839E+02 0.  0.
          5    1    3    3  501    0  0.44419360003E+02  0.38570152230E+02 -0.38365315510E+03  0.38816564712E+03  0.47000000000E+01 0. -1.
        -11    1    4    4    0    0 -0.30159835893E+02  0.36775746297E+02 -0.48454311927E+02  0.67896182228E+02  0.00000000000E+00 0.  1.
         12    1    4    4    0    0 -0.38669866882E+02 -0.23570162972E+01 -0.21147591816E+03  0.21499529783E+03  0.00000000000E+00 0. -1.
         -5    1    5    5    0  502 -0.77225983021E+01 -0.35788789660E+01  0.58431198613E+02  0.59234634046E+02  0.47000000000E+01 0.  1.
         13    1    6    6    0    0  0.12091025145E+02 -0.76154679576E+02 -0.79327020339E+02  0.11062777349E+03  0.00000000000E+00 0. -1.
        -14    1    6    6    0    0  0.20041915929E+02  0.67446763122E+01  0.61915707853E+01  0.22034168953E+02  0.00000000000E+00 0.  1.
</event>
<event>
12    1  0.1598254E-001  0.2719509E+03  0.7818608E-02  0.1100560E+00
         21   -1    0    0  503  502  0.00000000000E+00  0.00000000000E+00  0.13422987642E+03  0.13422987642E+03  0.00000000000E+00 0. -1.
         21   -1    0    0  501  503 -0.00000000000E+00 -0.00000000000E+00 -0.79735031570E+03  0.79735031570E+03  0.00000000000E+00 0.  1.
          6    2    1    2  501    0 -0.20265642256E+03 -0.48625198106E+02 -0.70892309313E+02  0.28103915015E+03  0.17470904070E+03 0.  0.
         24    2    3    3    0    0 -0.61235945056E+02 -0.47351817723E+02 -0.83720791107E+02  0.13895455247E+03  0.79417637706E+02 0.  0.
         -6    2    1    2    0  502  0.20265642256E+03  0.48625198106E+02 -0.59222812997E+03  0.65054104198E+03  0.17039792802E+03 0.  0.
        -24    2    5    5    0    0  0.13382017834E+03  0.97649920237E+02 -0.38707869666E+03  0.42861710932E+03  0.80245635031E+02 0.  0.
          5    1    3    3  501    0 -0.14142047750E+03 -0.12733803827E+01  0.12828481794E+02  0.14208459768E+03  0.47000000000E+01 0. -1.
        -13    1    4    4    0    0  0.15924672488E+02  0.13154349693E+01 -0.27471542112E+02  0.31780673199E+02  0.00000000000E+00 0.  1.
         14    1    4    4    0    0 -0.77160617544E+02 -0.48667252692E+02 -0.56249248995E+02  0.10717387927E+03  0.00000000000E+00 0. -1.
         -5    1    5    5    0  502  0.68836244216E+02 -0.49024722132E+02 -0.20514943331E+03  0.22192393266E+03  0.47000000000E+01 0.  1.
         13    1    6    6    0    0  0.59143575286E+02  0.30123371288E+02 -0.72377280177E+02  0.98203109326E+02  0.00000000000E+00 0. -1.
        -14    1    6    6    0    0  0.74676603053E+02  0.67526548949E+02 -0.31470141648E+03  0.33041399999E+03  0.00000000000E+00 0.  1.
</event>
<event>
12    1  0.1598254E-001  0.2094801E+03  0.7818608E-02  0.1142044E+00
         21   -1    0    0  503  502  0.00000000000E+00  0.00000000000E+00  0.58314765079E+02  0.58314765079E+02  0.00000000000E+00 0. -1.
         21   -1    0    0  501  503 -0.00000000000E+00 -0.00000000000E+00 -0.16921413312E+04  0.16921413312E+04  0.00000000000E+00 0. -1.
          6    2    1    2  501    0  0.77149944141E+02  0.90259666991E+02 -0.14692436217E+04  0.14840551972E+04  0.17217458288E+03 0.  0.
         24    2    3    3    0    0  0.93598706928E+02  0.12643702702E+02 -0.68940867737E+03  0.70018057065E+03  0.77768412148E+02 0.  0.
         -6    2    1    2    0  502 -0.77149944141E+02 -0.90259666991E+02 -0.16458294440E+03  0.26640089909E+03  0.17257743792E+03 0.  0.
        -24    2    5    5    0    0 -0.81434011835E+02 -0.38136038867E+02 -0.31337873283E+02  0.12318230803E+03  0.78140661417E+02 0.  0.
          5    1    3    3  501    0 -0.16448762787E+02  0.77615964289E+02 -0.77983494435E+03  0.78387462654E+03  0.47000000000E+01 0. -1.
        -13    1    4    4    0    0  0.44823926848E+02  0.21067809822E+02 -0.13917574106E+03  0.14772584042E+03  0.00000000000E+00 0.  1.
         14    1    4    4    0    0  0.48774780080E+02 -0.84241071204E+01 -0.55023293631E+03  0.55245473023E+03  0.00000000000E+00 0. -1.
         -5    1    5    5    0  502  0.42840676941E+01 -0.52123628124E+02 -0.13324507112E+03  0.14321859105E+03  0.47000000000E+01 0.  1.
         11    1    6    6    0    0 -0.51743184171E+02  0.11122719766E+02  0.79649083074E+01  0.53521133840E+02  0.00000000000E+00 0. -1.
        -12    1    6    6    0    0 -0.29690827664E+02 -0.49258758633E+02 -0.39302781590E+02  0.69661174195E+02  0.00000000000E+00 0.  1.
</event>
<event>
12    1  0.1598254E-001  0.2727444E+03  0.7818608E-02  0.1099918E+00
         21   -1    0    0  503  502  0.00000000000E+00  0.00000000000E+00  0.57453448238E+03  0.57453448238E+03  0.00000000000E+00 0.  1.
         21   -1    0    0  501  503 -0.00000000000E+00 -0.00000000000E+00 -0.19847942224E+03  0.19847942224E+03  0.00000000000E+00 0.  1.
          6    2    1    2  501    0  0.10407655909E+03 -0.18245318525E+03  0.41670083266E+03  0.49725751858E+03  0.17176833494E+03 0.  0.
         24    2    3    3    0    0  0.13901320279E+02 -0.10479295860E+03  0.31129563821E+03  0.33821340673E+03  0.79426212577E+02 0.  0.
         -6    2    1    2    0  502 -0.10407655909E+03  0.18245318525E+03 -0.40645772511E+02  0.27575638604E+03  0.17397819018E+03 0.  0.
        -24    2    5    5    0    0 -0.93799374636E+02  0.45447183160E+02 -0.29015861238E+00  0.13248416018E+03  0.81781412114E+02 0.  0.
          5    1    3    3  501    0  0.90175238810E+02 -0.77660226655E+02  0.10540519444E+03  0.15904411185E+03  0.47000000000E+01 0. -1.
        -11    1    4    4    0    0  0.19134280522E+02 -0.43992000559E+02  0.23824317537E+03  0.24302515799E+03  0.00000000000E+00 0.  1.
         12    1    4    4    0    0 -0.52329602435E+01 -0.60800958037E+02  0.73052462841E+02  0.95188248741E+02  0.00000000000E+00 0. -1.
         -5    1    5    5    0  502 -0.10277184452E+02  0.13700600209E+03 -0.40355613898E+02  0.14327222586E+03  0.47000000000E+01 0.  1.
         13    1    6    6    0    0 -0.35637762638E+02 -0.17508785435E+02  0.19920571184E+02  0.44423381789E+02  0.00000000000E+00 0. -1.
        -14    1    6    6    0    0 -0.58161611998E+02  0.62955968595E+02 -0.20210729797E+02  0.88060778392E+02  0.00000000000E+00 0.  1.
</event>
<event>
12    1  0.1598254E-001  0.2005434E+03  0.7818608E-02  0.1150210E+00
         21   -1    0    0  503  502  0.00000000000E+00  0.00000000000E+00  0.62194391998E+02  0.62194391998E+02  0.00000000000E+00 0.  1.
         21   -1    0    0  501  503 -0.00000000000E+00 -0.00000000000E+00 -0.12505365859E+04  0.12505365859E+04  0.00000000000E+00 0.  1.
          6    2    1    2  501    0 -0.94897227565E+02 -0.82037346026E+01 -0.10588417032E+04  0.10776657161E+04  0.17647905899E+03 0.  0.
         24    2    3    3    0    0 -0.99662985970E+02 -0.41093005015E+02 -0.10086398999E+04  0.10172775748E+04  0.76667272383E+02 0.  0.
         -6    2    1    2    0  502  0.94897227565E+02  0.82037346026E+01 -0.12950049077E+03  0.23506526182E+03  0.17150077301E+03 0.  0.
        -24    2    5    5    0    0  0.12010621278E+03 -0.27467894468E+02 -0.12152854159E+03  0.19041551344E+03  0.79428545013E+02 0.  0.
          5    1    3    3  501    0  0.47657584043E+01  0.32889270412E+02 -0.50201803235E+02  0.60388141299E+02  0.47000000000E+01 0. -1.
        -11    1    4    4    0    0 -0.88326347958E+02  0.12968064060E+01 -0.68920697967E+03  0.69484493685E+03  0.00000000000E+00 0.  1.
         12    1    4    4    0    0 -0.11336638011E+02 -0.42389811421E+02 -0.31943292027E+03  0.32243263797E+03  0.00000000000E+00 0. -1.
         -5    1    5    5    0  502 -0.25208985219E+02  0.35671629071E+02 -0.79719491791E+01  0.44649748376E+02  0.47000000000E+01 0.  1.
         11    1    6    6    0    0  0.27535874339E+02 -0.98893062562E+01 -0.84074405033E+02  0.89019819902E+02  0.00000000000E+00 0. -1.
        -12    1    6    6    0    0  0.92570338446E+02 -0.17578588212E+02 -0.37454136559E+02  0.10139569354E+03  0.00000000000E+00 0.  1.
</event>
<event>
12    1  0.1598254E-001  0.2008703E+03  0.7818608E-02  0.1149437E+00
         21   -1    0    0  501  502  0.00000000000E+00  0.00000000000E+00  0.13129189684E+04  0.13129189684E+04  0.00000000000E+00 0. -1.
         21   -1    0    0  502  503 -0.00000000000E+00 -0.00000000000E+00 -0.46240438391E+02  0.46240438391E+02  0.00000000000E+00 0. -1.
         -6    2    1    2    0  503  0.17609267385E+01  0.10031158054E+03  0.23372748660E+03  0.30685872542E+03  0.17166311579E+03 0.  0.
        -24    2    3    3    0    0  0.19841317916E+02  0.13062722097E+03  0.22188015286E+03  0.26933023070E+03  0.76490667287E+02 0.  0.
          6    2    1    2  501    0 -0.17609267385E+01 -0.10031158054E+03  0.10329510434E+04  0.10523006814E+04  0.17402112479E+03 0.  0.
         24    2    5    5    0    0  0.40726354081E+02 -0.70771864859E+02  0.93065238654E+03  0.93756241822E+03  0.79007156064E+02 0.  0.
          5    1    5    5  501    0 -0.42487280819E+02 -0.29539715683E+02  0.10229865689E+03  0.11473826317E+03  0.47000000000E+01 0. -1.
        -13    1    6    6    0    0  0.28984710174E+02 -0.49820080965E+02  0.25291490880E+03  0.25939950845E+03  0.00000000000E+00 0.  1.
         14    1    6    6    0    0  0.11741643907E+02 -0.20951783893E+02  0.67773747774E+03  0.67816290977E+03  0.00000000000E+00 0. -1.
         -5    1    3    3    0  503 -0.18080391178E+02 -0.30315640424E+02  0.11847333741E+02  0.37528494724E+02  0.47000000000E+01 0.  1.
         13    1    4    4    0    0  0.40343932022E+02  0.84433641288E+02  0.18310148441E+03  0.20562788290E+03  0.00000000000E+00 0. -1.
        -14    1    4    4    0    0 -0.20502614106E+02  0.46193579678E+02  0.38778668447E+02  0.63702347799E+02  0.00000000000E+00 0.  1.
</event>
<event>
12    1  0.1598254E-001  0.1747691E+03  0.7818608E-02  0.1173475E+00
         21   -1    0    0  503  502  0.00000000000E+00  0.00000000000E+00  0.19434137641E+03  0.19434137641E+03  0.00000000000E+00 0.  1.
         21   -1    0    0  501  503 -0.00000000000E+00 -0.00000000000E+00 -0.17207498985E+03  0.17207498985E+03  0.00000000000E+00 0.  1.
          6    2    1    2  501    0 -0.30290991792E+02 -0.10768022439E+02 -0.45916085181E+02  0.18070008252E+03  0.17178689838E+03 0.  0.
         24    2    3    3    0    0 -0.61388061239E+02 -0.23718830001E+02  0.21126767306E+02  0.10552305668E+03  0.79735175649E+02 0.  0.
         -6    2    1    2    0  502  0.30290991792E+02  0.10768022439E+02  0.68182471740E+02  0.18571628373E+03  0.16972976786E+03 0.  0.
        -24    2    5    5    0    0 -0.20010795587E+02 -0.29157244277E+02 -0.61121857656E+01  0.87400044633E+02  0.79692108475E+02 0.  0.
          5    1    3    3  501    0  0.31097069448E+02  0.12950807562E+02 -0.67042852487E+02  0.75177025841E+02  0.47000000000E+01 0. -1.
        -13    1    4    4    0    0 -0.50211160713E+02 -0.59774803350E+01 -0.23842876125E+02  0.55905041572E+02  0.00000000000E+00 0.  1.
         14    1    4    4    0    0 -0.11176900527E+02 -0.17741349666E+02  0.44969643430E+02  0.49618015111E+02  0.00000000000E+00 0. -1.
         -5    1    5    5    0  502  0.50301787379E+02  0.39925266715E+02  0.74294657506E+02  0.98316239094E+02  0.47000000000E+01 0.  1.
         11    1    6    6    0    0 -0.18154093592E+02 -0.56112321397E+02  0.25369515547E+01  0.59030499320E+02  0.00000000000E+00 0. -1.
        -12    1    6    6    0    0 -0.18567019952E+01  0.26955077121E+02 -0.86491373203E+01  0.28369545313E+02  0.00000000000E+00 0.  1.
</event>
<event>
12    1  0.1598254E-001  0.1823864E+03  0.7818608E-02  0.1166004E+00
         21   -1    0    0  503  502  0.00000000000E+00  0.00000000000E+00  0.62217040527E+03  0.62217040527E+03  0.00000000000E+00 0.  1.
         21   -1    0    0  501  503 -0.00000000000E+00 -0.00000000000E+00 -0.11904130501E+03  0.11904130501E+03  0.00000000000E+00 0.  1.
          6    2    1    2  501    0  0.54813723350E+02  0.17298103394E+02 -0.25383658887E+02  0.18211375845E+03  0.17093075274E+03 0.  0.
         24    2    3    3    0    0  0.50134729656E+02 -0.53674674962E+02 -0.21983908979E+02  0.11075076700E+03  0.79924828981E+02 0.  0.
         -6    2    1    2    0  502 -0.54813723350E+02 -0.17298103394E+02  0.52851275915E+03  0.55909795182E+03  0.17309250271E+03 0.  0.
        -24    2    5    5    0    0  0.20316840136E+02  0.35353076612E+02  0.27968121431E+03  0.29385094235E+03  0.80400128492E+02 0.  0.
          5    1    3    3  501    0  0.46789936945E+01  0.70972778356E+02 -0.33997499084E+01  0.71362991452E+02  0.47000000000E+01 0. -1.
        -13    1    4    4    0    0  0.48784690720E+02  0.54178258656E+01 -0.14432386135E+02  0.51162414479E+02  0.00000000000E+00 0.  1.
         14    1    4    4    0    0  0.13500389353E+01 -0.59092500827E+02 -0.75515228437E+01  0.59588352523E+02  0.00000000000E+00 0. -1.
         -5    1    5    5    0  502 -0.75130563487E+02 -0.52651180006E+02  0.24883154483E+03  0.26524700947E+03  0.47000000000E+01 0.  1.
         13    1    6    6    0    0  0.36780641948E+02 -0.10049384054E+02  0.83191901765E+02  0.91513377499E+02  0.00000000000E+00 0. -1.
        -14    1    6    6    0    0 -0.16463801811E+02  0.45402460665E+02  0.19648931255E+03  0.20233756485E+03  0.00000000000E+00 0.  1.
</event>
<event>
12    1  0.1598254E-001  0.1732229E+03  0.7818608E-02  0.1174714E+00
         21   -1    0    0  501  502  0.00000000000E+00  0.00000000000E+00  0.21291649219E+04  0.21291649219E+04  0.00000000000E+00 0. -1.
         21   -1    0    0  502  503 -0.00000000000E+00 -0.00000000000E+00 -0.26954526646E+02  0.26954526646E+02  0.00000000000E+00 0. -1.
         -6    2    1    2    0  503  0.20959900835E+02  0.28379644354E+02  0.30585883643E+03  0.35150506690E+03  0.16959204750E+03 0.  0.
        -24    2    3    3    0    0 -0.36209496492E+02  0.54935435772E+02  0.14140305917E+03  0.17531953196E+03  0.80081729517E+02 0.  0.
          6    2    1    2  501    0 -0.20959900835E+02 -0.28379644354E+02  0.17963515588E+04  0.18046143816E+04  0.16884733315E+03 0.  0.
         24    2    5    5    0    0 -0.33416611949E+01  0.72977654260E+00  0.39521931061E+03  0.40306116192E+03  0.79046173186E+02 0.  0.
          5    1    5    5  501    0 -0.17618239640E+02 -0.29109420896E+02  0.14011322482E+04  0.14015532197E+04  0.47000000000E+01 0. -1.
        -13    1    6    6    0    0 -0.21805670779E+02  0.30492462354E+02  0.28383615335E+03  0.28630095963E+03  0.00000000000E+00 0.  1.
         14    1    6    6    0    0  0.18464009584E+02 -0.29762685812E+02  0.11138315726E+03  0.11676020229E+03  0.00000000000E+00 0. -1.
         -5    1    3    3    0  503  0.57169397327E+02 -0.26555791418E+02  0.16445577726E+03  0.17618553494E+03  0.47000000000E+01 0.  1.
         13    1    4    4    0    0 -0.47938412908E+02  0.48035566112E+02  0.14596291660E+03  0.16096794733E+03  0.00000000000E+00 0. -1.
        -14    1    4    4    0    0  0.11728916416E+02  0.68998696597E+01 -0.45598574289E+01  0.14351584630E+02  0.00000000000E+00 0.  1.
</event>
<event>
12    1  0.1598254E-001  0.3893861E+03  0.7818608E-02  0.1047960E+00
         21   -1    0    0  501  502  0.00000000000E+00  0.00000000000E+00  0.32197316519E+03  0.32197316519E+03  0.00000000000E+00 0. -1.
         21   -1    0    0  502  503 -0.00000000000E+00 -0.00000000000E+00 -0.46865781720E+03  0.46865781720E+03  0.00000000000E+00 0.  1.
         -6    2    1    2    0  503  0.27258194670E+03  0.20975065795E+03 -0.10870837603E+03  0.40427592982E+03  0.18255207540E+03 0.  0.
        -24    2    3    3    0    0  0.23697333551E+03  0.22950972296E+03 -0.66469625455E+02  0.34541511186E+03  0.77860861244E+02 0.  0.
          6    2    1    2  501    0 -0.27258194670E+03 -0.20975065795E+03 -0.37976275975E+02  0.38635505257E+03  0.17184811008E+03 0.  0.
         24    2    5    5    0    0 -0.28985443819E+03 -0.19826333741E+03 -0.46862879804E+02  0.36330382217E+03  0.80433770278E+02 0.  0.
          5    1    5    5  501    0  0.17272491491E+02 -0.11487320539E+02  0.88866038295E+01  0.23051230403E+02  0.47000000000E+01 0. -1.
        -11    1    6    6    0    0 -0.19803880487E+03 -0.17739974329E+03 -0.40377414887E+02  0.26892447413E+03  0.00000000000E+00 0.  1.
         12    1    6    6    0    0 -0.91815633320E+02 -0.20863594124E+02 -0.64854649170E+01  0.94379348043E+02  0.00000000000E+00 0. -1.
         -5    1    3    3    0  503  0.35608611186E+02 -0.19759065012E+02 -0.42238750575E+02  0.58860817959E+02  0.47000000000E+01 0.  1.
         11    1    4    4    0    0  0.99374435295E+01  0.44164829686E+02 -0.19338844237E+01  0.45310317524E+02  0.00000000000E+00 0. -1.
        -12    1    4    4    0    0  0.22703589198E+03  0.18534489327E+03 -0.64535741031E+02  0.30010479433E+03  0.00000000000E+00 0.  1.
</event>
<event>
12    1  0.1598254E-001  0.1823736E+03  0.7818608E-02  0.1165745E+00
         21   -1    0    0  501  502  0.00000000000E+00  0.00000000000E+00  0.10771738174E+03  0.10771738174E+03  0.00000000000E+00 0.  1.
         21   -1    0    0  502  503 -0.00000000000E+00 -0.00000000000E+00 -0.36602562954E+03  0.36602562954E+03  0.00000000000E+00 0.  1.
         -6    2    1    2    0  503 -0.60434513270E+02 -0.30096848510E+01 -0.22437253065E+03  0.28914209625E+03  0.17204281652E+03 0.  0.
        -24    2    3    3    0    0 -0.34640241466E+02 -0.25103049697E+02 -0.23625393704E+03  0.25285547274E+03  0.79308624326E+02 0.  0.
          6    2    1    2  501    0  0.60434513270E+02  0.30096848510E+01 -0.33935717151E+02  0.18460091504E+03  0.17106863049E+03 0.  0.
         24    2    5    5    0    0  0.19638451306E+02 -0.18444248461E+02  0.42335233142E+02  0.95360017546E+02  0.81088851948E+02 0.  0.
          5    1    5    5  501    0  0.40796061965E+02  0.21453933312E+02 -0.76270950293E+02  0.89240897491E+02  0.47000000000E+01 0. -1.
        -11    1    6    6    0    0 -0.15359468323E+02  0.18004521738E+00 -0.17687530529E+02  0.23426361640E+02  0.00000000000E+00 0.  1.
         12    1    6    6    0    0  0.34997919629E+02 -0.18624293678E+02  0.60022763671E+02  0.71933655907E+02  0.00000000000E+00 0. -1.
         -5    1    3    3    0  503 -0.25794271804E+02  0.22093364846E+02  0.11881406393E+02  0.36286623514E+02  0.47000000000E+01 0.  1.
         11    1    4    4    0    0 -0.28977262976E+02  0.16970063378E+02 -0.40789932622E+02  0.52834490855E+02  0.00000000000E+00 0. -1.
        -12    1    4    4    0    0 -0.56629784901E+01 -0.42073113075E+02 -0.19546400442E+03  0.20002098188E+03  0.00000000000E+00 0.  1.
</event>
<event>
12    1  0.1598254E-001  0.2205180E+03  0.7818608E-02  0.1134094E+00
         21   -1    0    0  503  502  0.00000000000E+00  0.00000000000E+00  0.43284862677E+03  0.43284862677E+03  0.00000000000E+00 0.  1.
         21   -1    0    0  501  503 -0.00000000000E+00 -0.00000000000E+00 -0.41643308306E+03  0.41643308306E+03  0.00000000000E+00 0. -1.
          6    2    1    2  501    0 -0.11580687317E+03 -0.78320697083E+02  0.37202187843E+03  0.43085124154E+03  0.16639456372E+03 0.  0.
         24    2    3    3    0    0 -0.42589686439E+02 -0.55681520213E+02  0.32492270632E+03  0.34077510277E+03  0.75090561996E+02 0.  0.
         -6    2    1    2    0  502  0.11580687317E+03  0.78320697083E+02 -0.35560633473E+03  0.41843046829E+03  0.17053688173E+03 0.  0.
        -24    2    5    5    0    0  0.13272509682E+03  0.10558466846E+03 -0.29763680129E+03  0.35200677347E+03  0.80975487314E+02 0.  0.
          5    1    3    3  501    0 -0.73217186726E+02 -0.22639176870E+02  0.47099172116E+02  0.90076138768E+02  0.47000000000E+01 0. -1.
        -11    1    4    4    0    0 -0.11528785661E+02 -0.13368014031E+02  0.24195068452E+03  0.24259379719E+03  0.00000000000E+00 0.  1.
         12    1    4    4    0    0 -0.31060900779E+02 -0.42313506182E+02  0.82972021798E+02  0.98181305572E+02  0.00000000000E+00 0. -1.
         -5    1    5    5    0  502 -0.16918223656E+02 -0.27263971373E+02 -0.57969533434E+02  0.66423694818E+02  0.47000000000E+01 0.  1.
         13    1    6    6    0    0  0.21745832978E+02  0.13078773047E+02 -0.53093368680E+01  0.25925366233E+02  0.00000000000E+00 0. -1.
        -14    1    6    6    0    0  0.11097926384E+03  0.92505895409E+02 -0.29232746443E+03  0.32608140724E+03  0.00000000000E+00 0.  1.
</event>
<event>
12    1  0.1598254E-001  0.1749291E+03  0.7818608E-02  0.1172894E+00
         21   -1    0    0  503  502  0.00000000000E+00  0.00000000000E+00  0.43837947504E+03  0.43837947504E+03  0.00000000000E+00 0. -1.
         21   -1    0    0  501  503 -0.00000000000E+00 -0.00000000000E+00 -0.90157573372E+02  0.90157573372E+02  0.00000000000E+00 0. -1.
          6    2    1    2  501    0 -0.11435623858E+02  0.26272719496E+02  0.47961335631E+02  0.18103653526E+03  0.17220019774E+03 0.  0.
         24    2    3    3    0    0 -0.22728042333E+02  0.78722789352E+02  0.56462851935E+02  0.12651228082E+03  0.78124657299E+02 0.  0.
         -6    2    1    2    0  502  0.11435623858E+02 -0.26272719496E+02  0.30026056604E+03  0.34750051315E+03  0.17256642153E+03 0.  0.
        -24    2    5    5    0    0 -0.17613518326E+02  0.14505157761E+02  0.27864138542E+03  0.29276325979E+03  0.86883076505E+02 0.  0.
          5    1    3    3  501    0  0.11292418475E+02 -0.52450069856E+02 -0.85015163038E+01  0.54524254441E+02  0.47000000000E+01 0. -1.
        -13    1    4    4    0    0 -0.27231771240E+02  0.47360945796E+01  0.43088099072E+02  0.51191642271E+02  0.00000000000E+00 0.  1.
         14    1    4    4    0    0  0.45037289074E+01  0.73986694772E+02  0.13374752863E+02  0.75320638549E+02  0.00000000000E+00 0. -1.
         -5    1    5    5    0  502  0.29049142184E+02 -0.40777877257E+02  0.21619180617E+02  0.54737253363E+02  0.47000000000E+01 0.  1.
         11    1    6    6    0    0  0.34931003662E+02  0.11309564269E+02  0.12949155936E+03  0.13459623028E+03  0.00000000000E+00 0. -1.
        -12    1    6    6    0    0 -0.52544521987E+02  0.31955934916E+01  0.14914982606E+03  0.15816702951E+03  0.00000000000E+00 0.  1.
</event>
<event>
12    1  0.1598254E-001  0.1907784E+03  0.7818608E-02  0.1157889E+00
         21   -1    0    0  501  502  0.00000000000E+00  0.00000000000E+00  0.39261101972E+02  0.39261101972E+02  0.00000000000E+00 0. -1.
         21   -1    0    0  502  503 -0.00000000000E+00 -0.00000000000E+00 -0.10140998866E+04  0.10140998866E+04  0.00000000000E+00 0. -1.
         -6    2    1    2    0  503  0.40708750712E+02 -0.72511527014E+02 -0.64483833922E+03  0.67246776338E+03  0.17170115064E+03 0.  0.
        -24    2    3    3    0    0  0.30739664907E+02 -0.11784041327E+03 -0.51323695288E+03  0.53284288922E+03  0.75353067545E+02 0.  0.
          6    2    1    2  501    0 -0.40708750712E+02  0.72511527014E+02 -0.33000044542E+03  0.38089322520E+03  0.17106791368E+03 0.  0.
         24    2    5    5    0    0 -0.71234624379E+02  0.10382317203E+02 -0.26433137174E+03  0.28536111064E+03  0.79860660882E+02 0.  0.
          5    1    5    5  501    0  0.30525873667E+02  0.62129209811E+02 -0.65669073679E+02  0.95532114562E+02  0.47000000000E+01 0. -1.
        -11    1    6    6    0    0  0.63455554590E+01 -0.13172150973E+02 -0.11057894880E+03  0.11154136252E+03  0.00000000000E+00 0.  1.
         12    1    6    6    0    0 -0.77580179838E+02  0.23554468176E+02 -0.15375242294E+03  0.17381974812E+03  0.00000000000E+00 0. -1.
         -5    1    3    3    0  503  0.99690858048E+01  0.45328886251E+02 -0.13160138634E+03  0.13962487417E+03  0.47000000000E+01 0.  1.
         13    1    4    4    0    0  0.41281000641E+02 -0.27249255891E+02 -0.23098886642E+03  0.23622552650E+03  0.00000000000E+00 0. -1.
        -14    1    4    4    0    0 -0.10541335733E+02 -0.90591157374E+02 -0.28224808646E+03  0.29661736272E+03  0.00000000000E+00 0.  1.
</event>
<event>
12    1  0.1598254E-001  0.2050766E+03  0.7818608E-02  0.1145945E+00
         21   -1    0    0  503  502  0.00000000000E+00  0.00000000000E+00  0.24814820585E+03  0.24814820585E+03  0.00000000000E+00 0.  1.
         21   -1    0    0  501  503 -0.00000000000E+00 -0.00000000000E+00 -0.17643835870E+03  0.17643835870E+03  0.00000000000E+00 0. -1.
          6    2    1    2  501    0  0.71733722407E+02  0.83676681179E+02 -0.11303408599E+02  0.20334550026E+03  0.17051132375E+03 0.  0.
         24    2    3    3    0    0  0.11187151507E+01  0.10285589470E+03 -0.13800854786E+02  0.12997896349E+03  0.78252672535E+02 0.  0.
         -6    2    1    2    0  502 -0.71733722407E+02 -0.83676681179E+02  0.83013255753E+02  0.22124106428E+03  0.17294188038E+03 0.  0.
        -24    2    5    5    0    0 -0.24600174638E+02  0.20973175366E+02 -0.73738278841E+00  0.79081213213E+02  0.72168219270E+02 0.  0.
          5    1    3    3  501    0  0.70615007256E+02 -0.19179213517E+02  0.24974461872E+01  0.73366536775E+02  0.47000000000E+01 0. -1.
        -11    1    4    4    0    0 -0.17396904994E+02 -0.32618806177E+01 -0.13494669490E+02  0.22257544185E+02  0.00000000000E+00 0.  1.
         12    1    4    4    0    0  0.18515620145E+02  0.10611777531E+03 -0.30618529661E+00  0.10772141930E+03  0.00000000000E+00 0. -1.
         -5    1    5    5    0  502 -0.47133547769E+02 -0.10464985655E+03  0.83750638542E+02  0.14215985107E+03  0.47000000000E+01 0.  1.
         11    1    6    6    0    0 -0.22665793419E+02 -0.80718442617E+01 -0.29561684320E+02  0.38115430483E+02  0.00000000000E+00 0. -1.
        -12    1    6    6    0    0 -0.19343812198E+01  0.29045019628E+02  0.28824301531E+02  0.40965782730E+02  0.00000000000E+00 0.  1.
</event>
<event>
12    1  0.1598254E-001  0.1853938E+03  0.7818608E-02  0.1162991E+00
         21   -1    0    0  503  502  0.00000000000E+00  0.00000000000E+00  0.34657112961E+03  0.34657112961E+03  0.00000000000E+00 0.  1.
         21   -1    0    0  501  503 -0.00000000000E+00 -0.00000000000E+00 -0.28263750001E+03  0.28263750001E+03  0.00000000000E+00 0. -1.
          6    2    1    2  501    0  0.53653143967E+02  0.36082254637E+02 -0.22194726485E+03  0.28919102834E+03  0.17375348497E+03 0.  0.
         24    2    3    3    0    0  0.94443570927E+02  0.59302685870E+02 -0.14855026493E+03  0.20194277933E+03  0.79229465924E+02 0.  0.
         -6    2    1    2    0  502 -0.53653143967E+02 -0.36082254637E+02  0.28588089445E+03  0.34001760128E+03  0.17234701742E+03 0.  0.
        -24    2    5    5    0    0 -0.56248552082E+02  0.42091450841E+02  0.16841690901E+03  0.19881653101E+03  0.78918742488E+02 0.  0.
          5    1    3    3  501    0 -0.40790426961E+02 -0.23220431233E+02 -0.73396999922E+02  0.87248249013E+02  0.47000000000E+01 0. -1.
        -13    1    4    4    0    0 -0.94326845431E+01 -0.70627770936E+01 -0.51945803768E+01  0.12877966581E+02  0.00000000000E+00 0.  1.
         14    1    4    4    0    0  0.10387625547E+03  0.66365462964E+02 -0.14335568455E+03  0.18906481275E+03  0.00000000000E+00 0. -1.
         -5    1    5    5    0  502  0.25954081155E+01 -0.78173705478E+02  0.11746398544E+03  0.14120107027E+03  0.47000000000E+01 0.  1.
         13    1    6    6    0    0 -0.17133415092E+02  0.59629908843E+02  0.87763437187E+02  0.10747883907E+03  0.00000000000E+00 0. -1.
        -14    1    6    6    0    0 -0.39115136990E+02 -0.17538458002E+02  0.80653471828E+02  0.91337691939E+02  0.00000000000E+00 0.  1.
</event>
<event>
12    1  0.1598254E-001  0.2492457E+03  0.7818608E-02  0.1115403E+00
         21   -1    0    0  501  502  0.00000000000E+00  0.00000000000E+00  0.87270971747E+02  0.87270971747E+02  0.00000000000E+00 0. -1.
         21   -1    0    0  502  503 -0.00000000000E+00 -0.00000000000E+00 -0.71833412001E+03  0.71833412001E+03  0.00000000000E+00 0. -1.
         -6    2    1    2    0  503  0.16460876965E+02 -0.16583194632E+03 -0.23310155888E+03  0.34126197698E+03  0.18534347922E+03 0.  0.
        -24    2    3    3    0    0 -0.20058969058E+02 -0.16914569439E+03 -0.23868895905E+03  0.30387228428E+03  0.79707702333E+02 0.  0.
          6    2    1    2  501    0 -0.16460876965E+02  0.16583194632E+03 -0.39796158938E+03  0.46434311477E+03  0.17166801310E+03 0.  0.
         24    2    5    5    0    0 -0.72030151011E+01  0.73167778749E+02 -0.33435900968E+03  0.35147268417E+03  0.79571936600E+02 0.  0.
          5    1    5    5  501    0 -0.92578618636E+01  0.92664167575E+02 -0.63602579705E+02  0.11287043060E+03  0.47000000000E+01 0. -1.
        -13    1    6    6    0    0  0.24297009376E+02  0.19858329117E+02 -0.21229165011E+03  0.21459832852E+03  0.00000000000E+00 0.  1.
         14    1    6    6    0    0 -0.31500024477E+02  0.53309449632E+02 -0.12206735957E+03  0.13687435565E+03  0.00000000000E+00 0. -1.
         -5    1    3    3    0  503  0.36519846023E+02  0.33137480645E+01  0.55874001699E+01  0.37389692703E+02  0.47000000000E+01 0.  1.
         13    1    4    4    0    0 -0.15640169013E+02 -0.17316738691E+03 -0.20123891715E+03  0.26594860510E+03  0.00000000000E+00 0. -1.
        -14    1    4    4    0    0 -0.44188000448E+01  0.40216925240E+01 -0.37450041896E+02  0.37923679181E+02  0.00000000000E+00 0.  1.
</event>
<event>
12    1  0.1598254E-001  0.1818647E+03  0.7818608E-02  0.1166726E+00
         21   -1    0    0  501  502  0.00000000000E+00  0.00000000000E+00  0.15015369950E+04  0.15015369950E+04  0.00000000000E+00 0. -1.
         21   -1    0    0  502  503 -0.00000000000E+00 -0.00000000000E+00 -0.30564806008E+02  0.30564806008E+02  0.00000000000E+00 0. -1.
         -6    2    1    2    0  503  0.54753009939E+02  0.42223688679E+01  0.11444607908E+04  0.11583579483E+04  0.17025543828E+03 0.  0.
        -24    2    3    3    0    0  0.48300799588E+02  0.64198293060E+02  0.60535826756E+03  0.61587074749E+03  0.79898419506E+02 0.  0.
          6    2    1    2  501    0 -0.54753009939E+02 -0.42223688679E+01  0.32651139823E+03  0.37374385273E+03  0.17337547052E+03 0.  0.
         24    2    5    5    0    0 -0.47222320747E+02  0.81047930629E+01  0.34068590516E+03  0.35296701833E+03  0.78887228437E+02 0.  0.
          5    1    5    5  501    0 -0.75306891925E+01 -0.12327161931E+02 -0.14174506924E+02  0.20776834396E+02  0.47000000000E+01 0. -1.
        -11    1    6    6    0    0  0.10111922717E+01  0.32609534189E+02  0.19182771774E+03  0.19458231554E+03  0.00000000000E+00 0.  1.
         12    1    6    6    0    0 -0.48233513018E+02 -0.24504741126E+02  0.14885818742E+03  0.15838470279E+03  0.00000000000E+00 0. -1.
         -5    1    3    3    0  503  0.64522103513E+01 -0.59975924192E+02  0.53910252325E+03  0.54248720084E+03  0.47000000000E+01 0.  1.
         13    1    4    4    0    0  0.17864228101E+02  0.66805784528E+02  0.25587766119E+03  0.26505758051E+03  0.00000000000E+00 0. -1.
        -14    1    4    4    0    0  0.30436571486E+02 -0.26074914680E+01  0.34948060637E+03  0.35081316698E+03  0.00000000000E+00 0.  1.
</event>
<event>
12    1  0.1598254E-001  0.1758108E+03  0.7818608E-02  0.1171932E+00
         21   -1    0    0  501  502  0.00000000000E+00  0.00000000000E+00  0.59009518191E+02  0.59009518191E+02  0.00000000000E+00 0.  1.
         21   -1    0    0  502  503 -0.00000000000E+00 -0.00000000000E+00 -0.19366904651E+04  0.19366904651E+04  0.00000000000E+00 0.  1.
         -6    2    1    2    0  503 -0.32342528016E+02  0.18937783639E+02 -0.17911417544E+04  0.17997446905E+04  0.17171921283E+03 0.  0.
        -24    2    3    3    0    0 -0.83656013012E+02  0.35794533564E+02 -0.13005236259E+04  0.13061401304E+04  0.79754383294E+02 0.  0.
          6    2    1    2  501    0  0.32342528016E+02 -0.18937783639E+02 -0.86539192567E+02  0.19595529279E+03  0.17176951463E+03 0.  0.
         24    2    5    5    0    0 -0.28637716176E+02 -0.44333993221E+02 -0.10567017200E+02  0.95171270882E+02  0.78487497132E+02 0.  0.
          5    1    5    5  501    0  0.60980244192E+02  0.25396209581E+02 -0.75972175367E+02  0.10078402191E+03  0.47000000000E+01 0. -1.
        -13    1    6    6    0    0  0.14237897209E+02 -0.87439412526E+01  0.24262578370E+02  0.29459241924E+02  0.00000000000E+00 0.  1.
         14    1    6    6    0    0 -0.42875613384E+02 -0.35590051968E+02 -0.34829595570E+02  0.65712028958E+02  0.00000000000E+00 0. -1.
         -5    1    3    3    0  503  0.51313484995E+02 -0.16856749924E+02 -0.49061812848E+03  0.49360456010E+03  0.47000000000E+01 0.  1.
         11    1    4    4    0    0 -0.16170444056E+02  0.61506671129E+01 -0.41514668012E+02  0.44975344657E+02  0.00000000000E+00 0. -1.
        -12    1    4    4    0    0 -0.67485568955E+02  0.29643866451E+02 -0.12590089579E+04  0.12611647858E+04  0.00000000000E+00 0.  1.
</event>
<event>
12    1  0.1598254E-001  0.1903112E+03  0.7818608E-02  0.1158217E+00
         21   -1    0    0  501  502  0.00000000000E+00  0.00000000000E+00  0.39383993037E+03  0.39383993037E+03  0.00000000000E+00 0.  1.
         21   -1    0    0  502  503 -0.00000000000E+00 -0.00000000000E+00 -0.91963905824E+02  0.91963905824E+02  0.00000000000E+00 0.  1.
         -6    2    1    2    0  503  0.44850427736E+02 -0.67104051455E+02  0.15800509064E+03  0.24723057829E+03  0.17217094873E+03 0.  0.
        -24    2    3    3    0    0  0.75980557371E+02  0.60172483243E+01  0.10069620318E+03  0.14913772415E+03  0.79328954694E+02 0.  0.
          6    2    1    2  501    0 -0.44850427736E+02  0.67104051455E+02  0.14387093390E+03  0.23857325790E+03  0.17234801761E+03 0.  0.
         24    2    5    5    0    0 -0.34680687482E+02  0.83190239206E+02  0.16845096816E+03  0.20713351971E+03  0.80032495454E+02 0.  0.
          5    1    5    5  501    0 -0.10169740253E+02 -0.16086187750E+02 -0.24580034261E+02  0.31439738189E+02  0.47000000000E+01 0. -1.
        -13    1    6    6    0    0  0.10080807267E+02  0.11850495653E+02  0.92264670625E+02  0.93567229135E+02  0.00000000000E+00 0.  1.
         14    1    6    6    0    0 -0.44761494750E+02  0.71339743552E+02  0.76186297540E+02  0.11356629058E+03  0.00000000000E+00 0. -1.
         -5    1    3    3    0  503 -0.31130129636E+02 -0.73121299780E+02  0.57308887461E+02  0.98092854147E+02  0.47000000000E+01 0.  1.
         11    1    4    4    0    0  0.21026671650E+02  0.37172508134E+02  0.21442077265E+02  0.47787853677E+02  0.00000000000E+00 0. -1.
        -12    1    4    4    0    0  0.54953885721E+02 -0.31155259809E+02  0.79254125913E+02  0.10134987047E+03  0.00000000000E+00 0.  1.
</event>
<event>
12    1  0.1598254E-001  0.2166181E+03  0.7818608E-02  0.1136499E+00
         21   -1    0    0  501  502  0.00000000000E+00  0.00000000000E+00  0.22096494156E+02  0.22096494156E+02  0.00000000000E+00 0. -1.
         21   -1    0    0  502  503 -0.00000000000E+00 -0.00000000000E+00 -0.21301738898E+04  0.21301738898E+04  0.00000000000E+00 0. -1.
         -6    2    1    2    0  503 -0.23605331118E+01  0.13078919699E+03 -0.11275311914E+04  0.11480820253E+04  0.17220442218E+03 0.  0.
        -24    2    3    3    0    0  0.43833277930E+02  0.10389927727E+03 -0.51835358291E+03  0.53654593914E+03  0.80465469740E+02 0.  0.
          6    2    1    2  501    0  0.23605331118E+01 -0.13078919699E+03 -0.98054620424E+03  0.10041883587E+04  0.17266156169E+03 0.  0.
         24    2    5    5    0    0  0.41954126098E+02 -0.39777768776E+02 -0.69305313803E+03  0.70000899418E+03  0.79671326103E+02 0.  0.
          5    1    5    5  501    0 -0.39593592986E+02 -0.91011428214E+02 -0.28749306621E+03  0.30417936450E+03  0.47000000000E+01 0. -1.
        -13    1    6    6    0    0  0.60461389739E+02 -0.45411858961E+02 -0.46198447390E+03  0.46813189456E+03  0.00000000000E+00 0.  1.
         14    1    6    6    0    0 -0.18507263641E+02  0.56340901850E+01 -0.23106866414E+03  0.23187709962E+03  0.00000000000E+00 0. -1.
         -5    1    3    3    0  503 -0.46193811041E+02  0.26889919716E+02 -0.60917760851E+03  0.61153608616E+03  0.47000000000E+01 0.  1.
         13    1    4    4    0    0 -0.91054543679E+00  0.80629589130E+02 -0.22785385097E+03  0.24170092498E+03  0.00000000000E+00 0. -1.
        -14    1    4    4    0    0  0.44743823366E+02  0.23269688144E+02 -0.29049973194E+03  0.29484501416E+03  0.00000000000E+00 0.  1.
</event>
<event>
12    1  0.1598254E-001  0.1729170E+03  0.7818608E-02  0.1174989E+00
         21   -1    0    0  501  502  0.00000000000E+00  0.00000000000E+00  0.12167212951E+04  0.12167212951E+04  0.00000000000E+00 0.  1.
         21   -1    0    0  502  503 -0.00000000000E+00 -0.00000000000E+00 -0.25317225113E+03  0.25317225113E+03  0.00000000000E+00 0.  1.
         -6    2    1    2    0  503 -0.11702287740E+02 -0.84522097627E+01 -0.21679815298E+03  0.27694769760E+03  0.17172712273E+03 0.  0.
        -24    2    3    3    0    0  0.51128343494E+02  0.59149640613E+00 -0.18516749112E+03  0.20586981347E+03  0.74033255729E+02 0.  0.
          6    2    1    2  501    0  0.11702287740E+02  0.84522097627E+01  0.11803471969E+04  0.11929458486E+04  0.17231340353E+03 0.  0.
         24    2    5    5    0    0  0.29056973778E+02 -0.36437619500E+02  0.37656408314E+03  0.38770944487E+03  0.79662394463E+02 0.  0.
          5    1    5    5  501    0 -0.17354686038E+02  0.44889829263E+02  0.80378311376E+03  0.80523640371E+03  0.47000000000E+01 0. -1.
        -13    1    6    6    0    0  0.96057395870E+01 -0.18281747492E+02  0.34822449024E+03  0.34883633430E+03  0.00000000000E+00 0.  1.
         14    1    6    6    0    0  0.19451234191E+02 -0.18155872008E+02  0.28339592904E+02  0.38873110577E+02  0.00000000000E+00 0. -1.
         -5    1    3    3    0  503 -0.62830631234E+02 -0.90437061688E+01 -0.31630661859E+02  0.71077884128E+02  0.47000000000E+01 0.  1.
         11    1    4    4    0    0  0.44588528864E+02  0.11215175890E+02 -0.42353201991E+02  0.62511685271E+02  0.00000000000E+00 0. -1.
        -12    1    4    4    0    0  0.65398146298E+01 -0.10623679484E+02 -0.14281428913E+03  0.14335812820E+03  0.00000000000E+00 0.  1.
</event>
<event>
12    1  0.1598254E-001  0.1876954E+03  0.7818608E-02  0.1160571E+00
         21   -1    0    0  503  502  0.00000000000E+00  0.00000000000E+00  0.11694157539E+03  0.11694157539E+03  0.00000000000E+00 0. -1.
         21   -1    0    0  501  503 -0.00000000000E+00 -0.00000000000E+00 -0.37084678724E+03  0.37084678724E+03  0.00000000000E+00 0. -1.
          6    2    1    2  501    0  0.72529685302E+02 -0.16857476377E+02 -0.23269641186E+03  0.29896016107E+03  0.17229285550E+03 0.  0.
         24    2    3    3    0    0 -0.18075159895E+02 -0.27064270649E+02 -0.67225611819E+02  0.10997314488E+03  0.80719412534E+02 0.  0.
         -6    2    1    2    0  502 -0.72529685302E+02  0.16857476377E+02 -0.21208799989E+02  0.18882820156E+03  0.17222527907E+03 0.  0.
        -24    2    5    5    0    0 -0.85555949405E+02  0.25818491452E+02 -0.69869265153E+02  0.13744810602E+03  0.77613482445E+02 0.  0.
          5    1    3    3  501    0  0.90604845197E+02  0.10206794272E+02 -0.16547080004E+03  0.18898701619E+03  0.47000000000E+01 0. -1.
        -13    1    4    4    0    0 -0.10092312946E+02  0.28038538825E+02 -0.33679156207E+02  0.44969990025E+02  0.00000000000E+00 0.  1.
         14    1    4    4    0    0 -0.79828469490E+01 -0.55102809474E+02 -0.33546455613E+02  0.65003154858E+02  0.00000000000E+00 0. -1.
         -5    1    5    5    0  502  0.13026264103E+02 -0.89610150757E+01  0.48660465164E+02  0.51380095540E+02  0.47000000000E+01 0.  1.
         11    1    6    6    0    0 -0.72728144189E+02  0.42330260824E+02 -0.24741744100E+02  0.87711959503E+02  0.00000000000E+00 0. -1.
        -12    1    6    6    0    0 -0.12827805215E+02 -0.16511769372E+02 -0.45127521053E+02  0.49736146521E+02  0.00000000000E+00 0.  1.
</event>
<event>
12    1  0.1598254E-001  0.2035199E+03  0.7818608E-02  0.1146858E+00
         21   -1    0    0  503  502  0.00000000000E+00  0.00000000000E+00  0.81231940963E+03  0.81231940963E+03  0.00000000000E+00 0.  1.
         21   -1    0    0  501  503 -0.00000000000E+00 -0.00000000000E+00 -0.33117474646E+03  0.33117474646E+03  0.00000000000E+00 0.  1.
          6    2    1    2  501    0  0.82405476396E+02  0.70403760991E+02 -0.28535902048E+03  0.35049979896E+03  0.17225848716E+03 0.  0.
         24    2    3    3    0    0  0.10464946029E+03  0.89558286855E+02 -0.27798471733E+03  0.31987038454E+03  0.77906120120E+02 0.  0.
         -6    2    1    2    0  502 -0.82405476396E+02 -0.70403760991E+02  0.76650368365E+03  0.79299435713E+03  0.17194418073E+03 0.  0.
        -24    2    5    5    0    0 -0.42558274951E+02 -0.80956961595E+02  0.28345188751E+03  0.30816418350E+03  0.79088273858E+02 0.  0.
          5    1    3    3  501    0 -0.22243983899E+02 -0.19154525864E+02 -0.73743031529E+01  0.30629414421E+02  0.47000000000E+01 0. -1.
        -11    1    4    4    0    0  0.37230723255E+02  0.37648680589E+02 -0.19094454247E+03  0.19814986299E+03  0.00000000000E+00 0.  1.
         12    1    4    4    0    0  0.67418737039E+02  0.51909606267E+02 -0.87040174864E+02  0.12172052155E+03  0.00000000000E+00 0. -1.
         -5    1    5    5    0  502 -0.39847201445E+02  0.10553200604E+02  0.48305179615E+03  0.48483017363E+03  0.47000000000E+01 0.  1.
         11    1    6    6    0    0  0.30340462773E+01 -0.53387721785E+02  0.21428118489E+03  0.22085262161E+03  0.00000000000E+00 0. -1.
        -12    1    6    6    0    0 -0.45592321228E+02 -0.27569239810E+02  0.69170702618E+02  0.87311561888E+02  0.00000000000E+00 0.  1.
</event>
<event>
12    1  0.1598254E-001  0.1882035E+03  0.7818608E-02  0.1160227E+00
         21   -1    0    0  503  502  0.00000000000E+00  0.00000000000E+00  0.85118019654E+02  0.85118019654E+02  0.00000000000E+00 0.  1.
         21   -1    0    0  501  503 -0.00000000000E+00 -0.00000000000E+00 -0.43240815170E+03  0.43240815170E+03  0.00000000000E+00 0.  1.
          6    2    1    2  501    0 -0.57626077452E+02  0.48016111646E+02 -0.22608331162E+03  0.29416699437E+03  0.17261009532E+03 0.  0.
         24    2    3    3    0    0 -0.37784974251E+02  0.99046644269E+02 -0.15419692219E+03  0.20368203639E+03  0.80447119990E+02 0.  0.
         -6    2    1    2    0  502  0.57626077452E+02 -0.48016111646E+02 -0.12120682043E+03  0.22335917698E+03  0.17196487096E+03 0.  0.
        -24    2    5    5    0    0  0.53332699307E+02 -0.28946356901E+02  0.61188362855E+00  0.99892682337E+02  0.79346740259E+02 0.  0.
          5    1    3    3  501    0 -0.19841103200E+02 -0.51030532623E+02 -0.71886389431E+02  0.90484957985E+02  0.47000000000E+01 0. -1.
        -13    1    4    4    0    0 -0.46046824830E+02  0.10175345694E+03 -0.15856624635E+03  0.19395187691E+03  0.00000000000E+00 0.  1.
         14    1    4    4    0    0  0.82618505782E+01 -0.27068126693E+01  0.43693241623E+01  0.97301594766E+01  0.00000000000E+00 0. -1.
         -5    1    5    5    0  502  0.42933781446E+01 -0.19069754745E+02 -0.12181870405E+03  0.12346649464E+03  0.47000000000E+01 0.  1.
         13    1    6    6    0    0  0.54284721586E+01  0.73035525823E+01 -0.30790013665E+02  0.32106621308E+02  0.00000000000E+00 0. -1.
        -14    1    6    6    0    0  0.47904227149E+02 -0.36249909483E+02  0.31401897294E+02  0.67786061029E+02  0.00000000000E+00 0.  1.
</event>
<event>
12    1  0.1598254E-001  0.3040659E+03  0.7818608E-02  0.1083345E+00
         21   -1    0    0  503  502  0.00000000000E+00  0.00000000000E+00  0.16664687738E+03  0.16664687738E+03  0.00000000000E+00 0. -1.
         21   -1    0    0  501  503 -0.00000000000E+00 -0.00000000000E+00 -0.65725708292E+03  0.65725708292E+03  0.00000000000E+00 0. -1.
          6    2    1    2  501    0 -0.22771406591E+03 -0.10339030553E+03 -0.40967817657E+03  0.51018844997E+03  0.17295315851E+03 0.  0.
         24    2    3    3    0    0 -0.45151715952E+02  0.45393620298E+01 -0.10533946812E+03  0.13921410555E+03  0.78897911115E+02 0.  0.
         -6    2    1    2    0  502  0.22771406591E+03  0.10339030553E+03 -0.80932028980E+02  0.31371551033E+03  0.17124303494E+03 0.  0.
        -24    2    5    5    0    0  0.14420760280E+03  0.11041286295E+03 -0.17661727625E+01  0.19833800609E+03  0.79674414229E+02 0.  0.
          5    1    3    3  501    0 -0.18256234996E+03 -0.10792966756E+03 -0.30433870844E+03  0.37097434442E+03  0.47000000000E+01 0. -1.
        -11    1    4    4    0    0 -0.39552088707E+02 -0.32687424843E+02 -0.45837911058E+02  0.68803703056E+02  0.00000000000E+00 0.  1.
         12    1    4    4    0    0 -0.55996272449E+01  0.37226786873E+02 -0.59501557066E+02  0.70410402495E+02  0.00000000000E+00 0. -1.
         -5    1    5    5    0  502  0.83506463111E+02 -0.70225574199E+01 -0.79165856217E+02  0.11537750424E+03  0.47000000000E+01 0.  1.
         13    1    6    6    0    0  0.91192160551E+02  0.86049294527E+02 -0.36309998161E+02  0.13053316514E+03  0.00000000000E+00 0. -1.
        -14    1    6    6    0    0  0.53015442246E+02  0.24363568424E+02  0.34543825399E+02  0.67804840949E+02  0.00000000000E+00 0.  1.
</event>
<event>
12    1  0.1598254E-001  0.2469132E+03  0.7818608E-02  0.1115309E+00
         21   -1    0    0  503  502  0.00000000000E+00  0.00000000000E+00  0.89993375544E+03  0.89993375544E+03  0.00000000000E+00 0. -1.
         21   -1    0    0  501  503 -0.00000000000E+00 -0.00000000000E+00 -0.20394379964E+03  0.20394379964E+03  0.00000000000E+00 0.  1.
          6    2    1    2  501    0 -0.14757868215E+03  0.98646405875E+02 -0.10321209283E+03  0.26740277389E+03  0.17129193374E+03 0.  0.
         24    2    3    3    0    0 -0.49066601536E+02  0.74524381172E+02 -0.89347759870E+01  0.12885024027E+03  0.92526425527E+02 0.  0.
         -6    2    1    2    0  502  0.14757868215E+03 -0.98646405875E+02  0.79920204863E+03  0.83647478120E+03  0.17162623410E+03 0.  0.
        -24    2    5    5    0    0  0.79211144946E+02 -0.28862015381E+02  0.63198624402E+03  0.64275540526E+03  0.81366313394E+02 0.  0.
          5    1    3    3  501    0 -0.98512080615E+02  0.24122024703E+02 -0.94277316838E+02  0.13855253362E+03  0.47000000000E+01 0. -1.
        -13    1    4    4    0    0 -0.58898082293E+02  0.90557650346E+02 -0.15058733406E+02  0.10907079163E+03  0.00000000000E+00 0.  1.
         14    1    4    4    0    0  0.98314807569E+01 -0.16033269174E+02  0.61239574193E+01  0.19779448646E+02  0.00000000000E+00 0. -1.
         -5    1    5    5    0  502  0.68367537204E+02 -0.69784390494E+02  0.16721580461E+03  0.19371937593E+03  0.47000000000E+01 0.  1.
         11    1    6    6    0    0  0.75739509777E+02 -0.84538859430E+01  0.28075444602E+03  0.29091407750E+03  0.00000000000E+00 0. -1.
        -12    1    6    6    0    0  0.34716351687E+01 -0.20408129438E+02  0.35123179800E+03  0.35184132776E+03  0.00000000000E+00 0.  1.
</event>
<event>
12    1  0.1598254E-001  0.1844019E+03  0.7818608E-02  0.1163909E+00
         21   -1    0    0  501  502  0.00000000000E+00  0.00000000000E+00  0.68984439943E+02  0.68984439943E+02  0.00000000000E+00 0.  1.
         21   -1    0    0  502  503 -0.00000000000E+00 -0.00000000000E+00 -0.50785608864E+03  0.50785608864E+03  0.00000000000E+00 0. -1.
         -6    2    1    2    0  503 -0.16586483990E+02  0.63293169698E+02 -0.27495542360E+03  0.33106574823E+03  0.17240332916E+03 0.  0.
        -24    2    3    3    0    0  0.50236841329E+02  0.55458577870E+02 -0.16663283349E+03  0.20346241300E+03  0.89616171638E+02 0.  0.
          6    2    1    2  501    0  0.16586483990E+02 -0.63293169698E+02 -0.16391622509E+03  0.24577478034E+03  0.17104261756E+03 0.  0.
         24    2    5    5    0    0  0.51817328006E+02 -0.65504392962E+02 -0.48823526457E+02  0.12529855382E+03  0.79624932492E+02 0.  0.
          5    1    5    5  501    0 -0.35230844016E+02  0.22112232639E+01 -0.11509269864E+03  0.12047622653E+03  0.47000000000E+01 0. -1.
        -13    1    6    6    0    0  0.41769065407E+02 -0.81850953544E+02 -0.52396119043E+02  0.10578084284E+03  0.00000000000E+00 0.  1.
         14    1    6    6    0    0  0.10048262600E+02  0.16346560582E+02  0.35725925857E+01  0.19517710980E+02  0.00000000000E+00 0. -1.
         -5    1    3    3    0  503 -0.66823325319E+02  0.78345918284E+01 -0.10832259011E+03  0.12760333524E+03  0.47000000000E+01 0.  1.
         13    1    4    4    0    0 -0.24467846045E+02  0.14696885912E+01 -0.37848032939E+02  0.45092228510E+02  0.00000000000E+00 0. -1.
        -14    1    4    4    0    0  0.74704687374E+02  0.53988889279E+02 -0.12878480055E+03  0.15837018449E+03  0.00000000000E+00 0.  1.
</event>
<event>
12    1  0.1598254E-001  0.2115539E+03  0.7818608E-02  0.1141667E+00
         21   -1    0    0  501  502  0.00000000000E+00  0.00000000000E+00  0.83942132047E+02  0.83942132047E+02  0.00000000000E+00 0. -1.
         21   -1    0    0  502  503 -0.00000000000E+00 -0.00000000000E+00 -0.51783397433E+03  0.51783397433E+03  0.00000000000E+00 0.  1.
         -6    2    1    2    0  503 -0.10030890598E+03  0.70715908499E+02 -0.19846759094E+03  0.28526446527E+03  0.16408477735E+03 0.  0.
        -24    2    3    3    0    0 -0.30987336382E+02 -0.40393337919E+01 -0.14976823368E+03  0.17218244345E+03  0.78992017181E+02 0.  0.
          6    2    1    2  501    0  0.10030890598E+03 -0.70715908499E+02 -0.23542425134E+03  0.31651164110E+03  0.17231489925E+03 0.  0.
         24    2    5    5    0    0  0.82769903843E+02 -0.24637244314E+02 -0.23908959523E+03  0.26684893241E+03  0.81158286023E+02 0.  0.
          5    1    5    5  501    0  0.17539002140E+02 -0.46078664185E+02  0.36653438939E+01  0.49662708696E+02  0.47000000000E+01 0. -1.
        -13    1    6    6    0    0 -0.10558372636E+01  0.95351973202E+01 -0.10273113836E+03  0.10317810605E+03  0.00000000000E+00 0.  1.
         14    1    6    6    0    0  0.83825741107E+02 -0.34172441634E+02 -0.13635845687E+03  0.16367082636E+03  0.00000000000E+00 0. -1.
         -5    1    3    3    0  503 -0.69321569601E+02  0.74755242290E+02 -0.48699357265E+02  0.11308202182E+03  0.47000000000E+01 0.  1.
         13    1    4    4    0    0 -0.44350103873E+02 -0.21071648419E+02 -0.49945743652E+02  0.70039441671E+02  0.00000000000E+00 0. -1.
        -14    1    4    4    0    0  0.13362767490E+02  0.17032314627E+02 -0.99822490027E+02  0.10214300178E+03  0.00000000000E+00 0.  1.
</event>
<event>
12    1  0.1598254E-001  0.2218445E+03  0.7818608E-02  0.1132603E+00
         21   -1    0    0  503  502  0.00000000000E+00  0.00000000000E+00  0.10135733022E+03  0.10135733022E+03  0.00000000000E+00 0.  1.
         21   -1    0    0  501  503 -0.00000000000E+00 -0.00000000000E+00 -0.51087271355E+03  0.51087271355E+03  0.00000000000E+00 0.  1.
          6    2    1    2  501    0 -0.34897158374E+02  0.13499565791E+03 -0.27407357357E+03  0.35230797449E+03  0.17193878516E+03 0.  0.
         24    2    3    3    0    0 -0.17222846289E+02  0.13930438832E+03 -0.12825016419E+03  0.20527905492E+03  0.77388931603E+02 0.  0.
         -6    2    1    2    0  502  0.34897158374E+02 -0.13499565791E+03 -0.13544180976E+03  0.25992206928E+03  0.17254958404E+03 0.  0.
        -24    2    5    5    0    0  0.13752793917E+02 -0.35798292568E+01 -0.47329884824E+02  0.10022546480E+03  0.87195592079E+02 0.  0.
          5    1    3    3  501    0 -0.17674312086E+02 -0.43087304102E+01 -0.14582340938E+03  0.14702891957E+03  0.47000000000E+01 0. -1.
        -13    1    4    4    0    0  0.18049687639E+01  0.10992623174E+03 -0.12997249916E+03  0.17023479337E+03  0.00000000000E+00 0.  1.
         14    1    4    4    0    0 -0.19027815053E+02  0.29378156582E+02  0.17223349692E+01  0.35044261550E+02  0.00000000000E+00 0. -1.
         -5    1    5    5    0  502  0.21144364457E+02 -0.13141582865E+03 -0.88111924938E+02  0.15969660449E+03  0.47000000000E+01 0.  1.
         13    1    6    6    0    0 -0.18924891507E+02  0.32082338965E+02 -0.85186761152E+01  0.38209891845E+02  0.00000000000E+00 0. -1.
        -14    1    6    6    0    0  0.32677685424E+02 -0.35662168222E+02 -0.38811208709E+02  0.62015572951E+02  0.00000000000E+00 0.  1.
</event>
<event>
12    1  0.1598254E-001  0.2255195E+03  0.7818608E-02  0.1130138E+00
         21   -1    0    0  503  502  0.00000000000E+00  0.00000000000E+00  0.17487565401E+03  0.17487565401E+03  0.00000000000E+00 0.  1.
         21   -1    0    0  501  503 -0.00000000000E+00 -0.00000000000E+00 -0.48975918490E+03  0.48975918490E+03  0.00000000000E+00 0.  1.
          6    2    1    2  501    0 -0.44089627606E+02  0.13800108048E+03  0.55149883035E+02  0.23216491924E+03  0.17283184501E+03 0.  0.
         24    2    3    3    0    0 -0.19635840212E+02  0.16229709484E+03  0.19925890965E+02  0.18265629728E+03  0.78996003628E+02 0.  0.
         -6    2    1    2    0  502  0.44089627606E+02 -0.13800108048E+03 -0.37003341392E+03  0.43246991967E+03  0.17063795160E+03 0.  0.
        -24    2    5    5    0    0 -0.36610406505E+02 -0.52005981478E+02 -0.12986773855E+03  0.16487079003E+03  0.79194721514E+02 0.  0.
          5    1    3    3  501    0 -0.24453787393E+02 -0.24296014357E+02  0.35223992070E+02  0.49508621965E+02  0.47000000000E+01 0. -1.
        -11    1    4    4    0    0 -0.67329987630E+01 -0.79643921302E+01 -0.16145798684E+01  0.10553278282E+02  0.00000000000E+00 0.  1.
         12    1    4    4    0    0 -0.12902841449E+02  0.17026148697E+03  0.21540470833E+02  0.17210301899E+03  0.00000000000E+00 0. -1.
         -5    1    5    5    0  502  0.80700034111E+02 -0.85995099006E+02 -0.24016567537E+03  0.26759912964E+03  0.47000000000E+01 0.  1.
         13    1    6    6    0    0  0.98592653342E+01 -0.32493852920E+01 -0.80984076765E+02  0.81646704203E+02  0.00000000000E+00 0. -1.
        -14    1    6    6    0    0 -0.46469671839E+02 -0.48756596186E+02 -0.48883661784E+02  0.83224085828E+02  0.00000000000E+00 0.  1.
</event>
<event>
12    1  0.1598254E-001  0.2240453E+03  0.7818608E-02  0.1132840E+00
         21   -1    0    0  503  502  0.00000000000E+00  0.00000000000E+00  0.12839859600E+04  0.12839859600E+04  0.00000000000E+00 0.  1.
         21   -1    0    0  501  503 -0.00000000000E+00 -0.00000000000E+00 -0.37499985310E+02  0.37499985310E+02  0.00000000000E+00 0.  1.
          6    2    1    2  501    0 -0.11711672686E+03 -0.47528376678E+02  0.56082409822E+03  0.60014794518E+03  0.17227481724E+03 0.  0.
         24    2    3    3    0    0 -0.99725360495E+02  0.24872252731E+01  0.51301458661E+03  0.52865067626E+03  0.79600487536E+02 0.  0.
         -6    2    1    2    0  502  0.11711672686E+03  0.47528376678E+02  0.68566187648E+03  0.72133800015E+03  0.18498926264E+03 0.  0.
        -24    2    5    5    0    0 -0.19650430758E+02  0.14888415737E+02  0.21442956369E+03  0.22955287931E+03  0.78145263862E+02 0.  0.
          5    1    3    3  501    0 -0.17391366364E+02 -0.50015601951E+02  0.47809511605E+02  0.71497268916E+02  0.47000000000E+01 0. -1.
        -13    1    4    4    0    0 -0.57844141312E+02 -0.28490917373E+02  0.38632615519E+03  0.39167023788E+03  0.00000000000E+00 0.  1.
         14    1    4    4    0    0 -0.41881219183E+02  0.30978142647E+02  0.12668843142E+03  0.13698043838E+03  0.00000000000E+00 0. -1.
         -5    1    5    5    0  502  0.13676715762E+03  0.32639960942E+02  0.47123231279E+03  0.49178512084E+03  0.47000000000E+01 0.  1.
         11    1    6    6    0    0  0.25035519549E+01  0.24798781813E+02  0.15942013129E+02  0.29587077152E+02  0.00000000000E+00 0. -1.
        -12    1    6    6    0    0 -0.22153982713E+02 -0.99103660764E+01  0.19848755056E+03  0.19996580216E+03  0.00000000000E+00 0.  1.
</event>
<event>
12    1  0.1598254E-001  0.1799675E+03  0.7818608E-02  0.1170006E+00
         21   -1    0    0  503  502  0.00000000000E+00  0.00000000000E+00  0.28662759807E+03  0.28662759807E+03  0.00000000000E+00 0. -1.
         21   -1    0    0  501  503 -0.00000000000E+00 -0.00000000000E+00 -0.35496085365E+03  0.35496085365E+03  0.00000000000E+00 0.  1.
          6    2    1    2  501    0  0.51654539200E+02 -0.75104798551E+01 -0.30168993775E+03  0.34689599955E+03  0.16308101434E+03 0.  0.
         24    2    3    3    0    0  0.86747180947E+02 -0.23488679149E+02 -0.27462330631E+03  0.29955163458E+03  0.78971070391E+02 0.  0.
         -6    2    1    2    0  502 -0.51654539200E+02  0.75104798551E+01  0.23335668216E+03  0.29469245217E+03  0.17223153464E+03 0.  0.
        -24    2    5    5    0    0 -0.38292508180E+02 -0.17948601689E+02  0.38089882762E+02  0.97264182522E+02  0.78873402028E+02 0.  0.
          5    1    3    3  501    0 -0.35092641746E+02  0.15978199294E+02 -0.27066631438E+02  0.47344364974E+02  0.47000000000E+01 0. -1.
        -11    1    4    4    0    0  0.20913495214E+02 -0.41465418621E+02 -0.15525916661E+03  0.16205605216E+03  0.00000000000E+00 0.  1.
         12    1    4    4    0    0  0.65833685733E+02  0.17976739472E+02 -0.11936413970E+03  0.13749558242E+03  0.00000000000E+00 0. -1.
         -5    1    5    5    0  502 -0.13362031020E+02  0.25459081544E+02  0.19526679940E+03  0.19742826964E+03  0.47000000000E+01 0.  1.
         11    1    6    6    0    0  0.81029559080E+01 -0.36842242318E+02  0.71784757737E+01  0.38399729529E+02  0.00000000000E+00 0. -1.
        -12    1    6    6    0    0 -0.46395464088E+02  0.18893640629E+02  0.30911406989E+02  0.58864452993E+02  0.00000000000E+00 0.  1.
</event>
<event>
12    1  0.1598254E-001  0.2131854E+03  0.7818608E-02  0.1139112E+00
         21   -1    0    0  503  502  0.00000000000E+00  0.00000000000E+00  0.41378360205E+03  0.41378360205E+03  0.00000000000E+00 0. -1.
         21   -1    0    0  501  503 -0.00000000000E+00 -0.00000000000E+00 -0.16023474485E+03  0.16023474485E+03  0.00000000000E+00 0. -1.
          6    2    1    2  501    0  0.81538045810E+02  0.94936019843E+02 -0.34420176067E+02  0.21572492888E+03  0.17231133347E+03 0.  0.
         24    2    3    3    0    0 -0.77791423318E+01  0.29335797964E+02 -0.56483814973E+02  0.10263273919E+03  0.80137093168E+02 0.  0.
         -6    2    1    2    0  502 -0.81538045810E+02 -0.94936019843E+02  0.28796903327E+03  0.35829341801E+03  0.17258826290E+03 0.  0.
        -24    2    5    5    0    0 -0.90929372251E+02 -0.10209004442E+03  0.30069386905E+03  0.34031041143E+03  0.81877013449E+02 0.  0.
          5    1    3    3  501    0  0.89317188142E+02  0.65600221879E+02  0.22063638905E+02  0.11309218969E+03  0.47000000000E+01 0. -1.
        -11    1    4    4    0    0  0.25103909840E+01 -0.11639605865E+02  0.15270923871E+02  0.19364493370E+02  0.00000000000E+00 0.  1.
         12    1    4    4    0    0 -0.10289533316E+02  0.40975403829E+02 -0.71754738844E+02  0.83268245816E+02  0.00000000000E+00 0. -1.
         -5    1    5    5    0  502  0.93913264415E+01  0.71540245815E+01 -0.12724835786E+02  0.17983006584E+02  0.47000000000E+01 0.  1.
         11    1    6    6    0    0 -0.90359704193E+01 -0.41692419877E+02  0.16662032516E+03  0.17199488188E+03  0.00000000000E+00 0. -1.
        -12    1    6    6    0    0 -0.81893401832E+02 -0.60397624547E+02  0.13407354389E+03  0.16831552955E+03  0.00000000000E+00 0.  1.
</event>
<event>
12    1  0.1598254E-001  0.3657819E+03  0.7818608E-02  0.1056637E+00
         21   -1    0    0  503  502  0.00000000000E+00  0.00000000000E+00  0.14675393012E+04  0.14675393012E+04  0.00000000000E+00 0.  1.
         21   -1    0    0  501  503 -0.00000000000E+00 -0.00000000000E+00 -0.10049867657E+03  0.10049867657E+03  0.00000000000E+00 0. -1.
          6    2    1    2  501    0  0.29472651718E+03 -0.12414252448E+03  0.43722391926E+03  0.57005361020E+03  0.17754232344E+03 0.  0.
         24    2    3    3    0    0  0.12098866471E+03 -0.52291470626E+02  0.29901753961E+03  0.33666443157E+03  0.80986391498E+02 0.  0.
         -6    2    1    2    0  502 -0.29472651718E+03  0.12414252448E+03  0.92981670535E+03  0.99798436756E+03  0.17070033985E+03 0.  0.
        -24    2    5    5    0    0 -0.93289330330E+02 -0.75371798182E+01  0.26775521212E+03  0.29352429375E+03  0.75524493847E+02 0.  0.
          5    1    3    3  501    0  0.17373785247E+03 -0.71851053853E+02  0.13820637965E+03  0.23338917862E+03  0.47000000000E+01 0. -1.
        -13    1    4    4    0    0  0.13284187942E+03 -0.46163263333E+02  0.28117528754E+03  0.31438440504E+03  0.00000000000E+00 0.  1.
         14    1    4    4    0    0 -0.11853214712E+02 -0.61282072921E+01  0.17842252068E+02  0.22280026537E+02  0.00000000000E+00 0. -1.
         -5    1    5    5    0  502 -0.20143718685E+03  0.13167970430E+03  0.66206149324E+03  0.70446007381E+03  0.47000000000E+01 0.  1.
         13    1    6    6    0    0 -0.41889527496E+02  0.29432679830E+02  0.76405975004E+02  0.91972214131E+02  0.00000000000E+00 0. -1.
        -14    1    6    6    0    0 -0.51399802834E+02 -0.36969859649E+02  0.19134923711E+03  0.20155207962E+03  0.00000000000E+00 0.  1.
</event>
<event>
12    1  0.1598254E-001  0.2018234E+03  0.7818608E-02  0.1148323E+00
         21   -1    0    0  501  502  0.00000000000E+00  0.00000000000E+00  0.13232025411E+04  0.13232025411E+04  0.00000000000E+00 0.  1.
         21   -1    0    0  502  503 -0.00000000000E+00 -0.00000000000E+00 -0.37435053309E+03  0.37435053309E+03  0.00000000000E+00 0. -1.
         -6    2    1    2    0  503  0.75103996371E+02  0.71962505017E+02 -0.33885374394E+03  0.39412728724E+03  0.17232308715E+03 0.  0.
        -24    2    3    3    0    0  0.11700689491E+03  0.63076299605E+02 -0.22951398291E+03  0.27660243499E+03  0.78504813008E+02 0.  0.
          6    2    1    2  501    0 -0.75103996371E+02 -0.71962505017E+02  0.12877057519E+04  0.13034257869E+04  0.17295509836E+03 0.  0.
         24    2    5    5    0    0 -0.11745795555E+03 -0.67318520201E+02  0.10723311718E+04  0.10838267792E+04  0.80362868708E+02 0.  0.
          5    1    5    5  501    0  0.42353959183E+02 -0.46439848156E+01  0.21537458010E+03  0.21959900775E+03  0.47000000000E+01 0. -1.
        -11    1    6    6    0    0 -0.15051140779E+02 -0.95793685190E+00  0.41443094966E+03  0.41470527669E+03  0.00000000000E+00 0.  1.
         12    1    6    6    0    0 -0.10240681478E+03 -0.66360583349E+02  0.65790022219E+03  0.66912150249E+03  0.00000000000E+00 0. -1.
         -5    1    3    3    0  503 -0.41902898540E+02  0.88862054116E+01 -0.10933976103E+03  0.11752485225E+03  0.47000000000E+01 0.  1.
         13    1    4    4    0    0  0.86364691480E+02  0.78325143006E+02 -0.14960324681E+03  0.18967029134E+03  0.00000000000E+00 0. -1.
        -14    1    4    4    0    0  0.30642203432E+02 -0.15248843401E+02 -0.79910736102E+02  0.86932143656E+02  0.00000000000E+00 0.  1.
</event>
<event>
12    1  0.1598254E-001  0.2126846E+03  0.7818608E-02  0.1139972E+00
         21   -1    0    0  501  502  0.00000000000E+00  0.00000000000E+00  0.14263652593E+04  0.14263652593E+04  0.00000000000E+00 0. -1.
         21   -1    0    0  502  503 -0.00000000000E+00 -0.00000000000E+00 -0.31983120514E+02  0.31983120514E+02  0.00000000000E+00 0. -1.
         -6    2    1    2    0  503  0.77243956374E+01 -0.12438324932E+03  0.58819593608E+03  0.62457926920E+03  0.16909744319E+03 0.  0.
        -24    2    3    3    0    0  0.40627783067E+02 -0.41048744406E+02  0.16641709289E+03  0.19336382980E+03  0.79745254997E+02 0.  0.
          6    2    1    2  501    0 -0.77243956374E+01  0.12438324932E+03  0.80618620268E+03  0.83376911059E+03  0.17234812845E+03 0.  0.
         24    2    5    5    0    0 -0.40409497699E+02  0.12544190223E+03  0.76808441375E+03  0.78333823748E+03  0.79350673060E+02 0.  0.
          5    1    5    5  501    0  0.32685102061E+02 -0.10586529075E+01  0.38101788928E+02  0.50430873106E+02  0.47000000000E+01 0. -1.
        -13    1    6    6    0    0  0.23926659122E+02  0.25993294972E+02  0.16734987845E+03  0.17103835306E+03  0.00000000000E+00 0.  1.
         14    1    6    6    0    0 -0.64336156821E+02  0.99448607256E+02  0.60073453530E+03  0.61229988443E+03  0.00000000000E+00 0. -1.
         -5    1    3    3    0  503 -0.32903387429E+02 -0.83334504915E+02  0.42177884319E+03  0.43121543940E+03  0.47000000000E+01 0.  1.
         13    1    4    4    0    0 -0.42567051458E+01 -0.20465543747E+02  0.12138190555E+01  0.20938752977E+02  0.00000000000E+00 0. -1.
        -14    1    4    4    0    0  0.44884488213E+02 -0.20583200659E+02  0.16520327384E+03  0.17242507682E+03  0.00000000000E+00 0.  1.
</event>
<event>
12    1  0.1598254E-001  0.1826144E+03  0.7818608E-02  0.1165334E+00
         21   -1    0    0  503  502  0.00000000000E+00  0.00000000000E+00  0.49553247058E+03  0.49553247058E+03  0.00000000000E+00 0. -1.
         21   -1    0    0  501  503 -0.00000000000E+00 -0.00000000000E+00 -0.79136019494E+02  0.79136019494E+02  0.00000000000E+00 0. -1.
          6    2    1    2  501    0  0.30127316813E+02 -0.54693277348E+02  0.96868212905E+02  0.20671587419E+03  0.17160708658E+03 0.  0.
         24    2    3    3    0    0  0.15528531848E+02 -0.19952345669E+02  0.13167474363E+03  0.15520236686E+03  0.78168441023E+02 0.  0.
         -6    2    1    2    0  502 -0.30127316813E+02  0.54693277348E+02  0.31952823818E+03  0.36795261588E+03  0.17144043495E+03 0.  0.
        -24    2    5    5    0    0  0.11028395722E+01  0.61936211043E+02  0.31984747436E+03  0.33554930327E+03  0.80334410913E+02 0.  0.
          5    1    3    3  501    0  0.14598784965E+02 -0.34740931678E+02 -0.34806530720E+02  0.51513507327E+02  0.47000000000E+01 0. -1.
        -11    1    4    4    0    0  0.47605901605E+02 -0.12521602551E+02  0.78180688910E+02  0.92386863334E+02  0.00000000000E+00 0.  1.
         12    1    4    4    0    0 -0.32077369757E+02 -0.74307431181E+01  0.53494054715E+02  0.62815503530E+02  0.00000000000E+00 0. -1.
         -5    1    5    5    0  502 -0.31230156385E+02 -0.72429336952E+01 -0.31923618508E+00  0.32403312609E+02  0.47000000000E+01 0.  1.
         13    1    6    6    0    0  0.26305059918E+02  0.69440648244E+02  0.25443297040E+03  0.26504734716E+03  0.00000000000E+00 0. -1.
        -14    1    6    6    0    0 -0.25202220345E+02 -0.75044372009E+01  0.65414503961E+02  0.70501956118E+02  0.00000000000E+00 0.  1.
</event>
<event>
12    1  0.1598254E-001  0.1868662E+03  0.7818608E-02  0.1163059E+00
         21   -1    0    0  501  502  0.00000000000E+00  0.00000000000E+00  0.18728847541E+03  0.18728847541E+03  0.00000000000E+00 0. -1.
         21   -1    0    0  502  503 -0.00000000000E+00 -0.00000000000E+00 -0.20201209799E+03  0.20201209799E+03  0.00000000000E+00 0. -1.
         -6    2    1    2    0  503  0.67506469271E+02  0.20046244350E+02 -0.72713412297E+02  0.19364319811E+03  0.16508020033E+03 0.  0.
        -24    2    3    3    0    0  0.75770031956E+02 -0.38895561913E+00 -0.10685745831E+03  0.15273122255E+03  0.78530636796E+02 0.  0.
          6    2    1    2  501    0 -0.67506469271E+02 -0.20046244350E+02  0.57989789723E+02  0.19565737529E+03  0.17308962270E+03 0.  0.
         24    2    5    5    0    0  0.60486126791E+01 -0.12220633168E+02  0.84720175234E+02  0.11686528317E+03  0.79335091404E+02 0.  0.
          5    1    5    5  501    0 -0.73555081950E+02 -0.78256111818E+01 -0.26730385512E+02  0.78792092120E+02  0.47000000000E+01 0. -1.
        -13    1    6    6    0    0  0.15433050496E+01 -0.41547104712E+02  0.21005448980E+02  0.46580817803E+02  0.00000000000E+00 0.  1.
         14    1    6    6    0    0  0.45053076295E+01  0.29326471544E+02  0.63714726255E+02  0.70284465366E+02  0.00000000000E+00 0. -1.
         -5    1    3    3    0  503 -0.82635626854E+01  0.20435199969E+02  0.34144046017E+02  0.40911975563E+02  0.47000000000E+01 0.  1.
         13    1    4    4    0    0 -0.12123956939E+01 -0.13131403546E+02 -0.60605029474E+02  0.62023167122E+02  0.00000000000E+00 0. -1.
        -14    1    4    4    0    0  0.76982427650E+02  0.12742447927E+02 -0.46252428840E+02  0.90708055429E+02  0.00000000000E+00 0.  1.
</event>
<event>
12    1  0.1598254E-001  0.2179022E+03  0.7818608E-02  0.1135816E+00
         21   -1    0    0  503  502  0.00000000000E+00  0.00000000000E+00  0.83060982278E+02  0.83060982278E+02  0.00000000000E+00 0.  1.
         21   -1    0    0  501  503 -0.00000000000E+00 -0.00000000000E+00 -0.58556146091E+03  0.58556146091E+03  0.00000000000E+00 0.  1.
          6    2    1    2  501    0 -0.12958053362E+03 -0.10295243361E+02 -0.31234616821E+03  0.38084315367E+03  0.17488359607E+03 0.  0.
         24    2    3    3    0    0 -0.10594978809E+03  0.46149955234E+02 -0.27657063729E+03  0.30980477537E+03  0.78310315205E+02 0.  0.
         -6    2    1    2    0  502  0.12958053362E+03  0.10295243361E+02 -0.19015431042E+03  0.28777928952E+03  0.17251420513E+03 0.  0.
        -24    2    5    5    0    0  0.53466577129E+02  0.57692030334E+01 -0.18990917171E+03  0.21138577208E+03  0.75673592249E+02 0.  0.
          5    1    3    3  501    0 -0.23630745532E+02 -0.56445198595E+02 -0.35775530917E+02  0.71038378298E+02  0.47000000000E+01 0. -1.
        -13    1    4    4    0    0 -0.14361341368E+02 -0.19644806875E+02 -0.29697414254E+02  0.38394048711E+02  0.00000000000E+00 0.  1.
         14    1    4    4    0    0 -0.91588446718E+02  0.65794762110E+02 -0.24687322304E+03  0.27141072666E+03  0.00000000000E+00 0. -1.
         -5    1    5    5    0  502  0.76113956490E+02  0.45260403274E+01 -0.24513871267E+00  0.76393517438E+02  0.47000000000E+01 0.  1.
         11    1    6    6    0    0  0.34617705705E+02 -0.21679909346E+02 -0.16451484161E+03  0.16950969626E+03  0.00000000000E+00 0. -1.
        -12    1    6    6    0    0  0.18848871424E+02  0.27449112379E+02 -0.25394330100E+02  0.41876075814E+02  0.00000000000E+00 0.  1.
</event>
<event>
12    1  0.1598254E-001  0.1788665E+03  0.7818608E-02  0.1169012E+00
         21   -1    0    0  501  502  0.00000000000E+00  0.00000000000E+00  0.23960110344E+03  0.23960110344E+03  0.00000000000E+00 0.  1.
         21   -1    0    0  502  503 -0.00000000000E+00 -0.00000000000E+00 -0.34591522192E+03  0.34591522192E+03  0.00000000000E+00 0.  1.
         -6    2    1    2    0  503  0.46422907003E+02 -0.61108208577E+01 -0.28270616167E+03  0.33430452559E+03  0.17217524084E+03 0.  0.
        -24    2    3    3    0    0  0.18780183149E+02  0.88820854933E+01 -0.29034087752E+03  0.30160458202E+03  0.78967791018E+02 0.  0.
          6    2    1    2  501    0 -0.46422907003E+02  0.61108208577E+01  0.17639204318E+03  0.25121179977E+03  0.17262904454E+03 0.  0.
         24    2    5    5    0    0 -0.41543369192E+02  0.55174571952E+01  0.20396049875E+03  0.22281687572E+03  0.79316966626E+02 0.  0.
          5    1    5    5  501    0 -0.48795378106E+01  0.59336366242E+00 -0.27568455568E+02  0.28394924055E+02  0.47000000000E+01 0. -1.
        -13    1    6    6    0    0 -0.31413336147E+01 -0.17100874005E+02  0.15742393040E+03  0.15838119122E+03  0.00000000000E+00 0.  1.
         14    1    6    6    0    0 -0.38402035577E+02  0.22618331200E+02  0.46536568350E+02  0.64435684496E+02  0.00000000000E+00 0. -1.
         -5    1    3    3    0  503  0.27642723854E+02 -0.14992906351E+02  0.76347158519E+01  0.32699943563E+02  0.47000000000E+01 0.  1.
         13    1    4    4    0    0  0.30669356954E+02  0.36921332833E+02 -0.13430072560E+03  0.14262005179E+03  0.00000000000E+00 0. -1.
        -14    1    4    4    0    0 -0.11889173805E+02 -0.28039247340E+02 -0.15604015192E+03  0.15898453024E+03  0.00000000000E+00 0.  1.
</event>
<event>
12    1  0.1598254E-001  0.2025742E+03  0.7818608E-02  0.1147613E+00
         21   -1    0    0  501  502  0.00000000000E+00  0.00000000000E+00  0.29289891445E+03  0.29289891445E+03  0.00000000000E+00 0.  1.
         21   -1    0    0  502  503 -0.00000000000E+00 -0.00000000000E+00 -0.27523868898E+03  0.27523868898E+03  0.00000000000E+00 0.  1.
         -6    2    1    2    0  503 -0.87118474941E+02 -0.61564870580E+02 -0.19028269765E+03  0.27792771084E+03  0.17221046851E+03 0.  0.
        -24    2    3    3    0    0  0.18912177703E+02 -0.25102413801E+02 -0.11631086413E+03  0.14351814195E+03  0.77983577192E+02 0.  0.
          6    2    1    2  501    0  0.87118474941E+02  0.61564870580E+02  0.20794292312E+03  0.29020989259E+03  0.17205133104E+03 0.  0.
         24    2    5    5    0    0  0.20248416041E+02 -0.18635062752E+02  0.14831335877E+03  0.16987116637E+03  0.78115919353E+02 0.  0.
          5    1    5    5  501    0  0.66870058901E+02  0.80199933332E+02  0.59629564350E+02  0.12033872622E+03  0.47000000000E+01 0. -1.
        -13    1    6    6    0    0 -0.16812983511E+02  0.11436331920E+02  0.99674299881E+02  0.10172724394E+03  0.00000000000E+00 0.  1.
         14    1    6    6    0    0  0.37061399551E+02 -0.30071394671E+02  0.48639058892E+02  0.68143922430E+02  0.00000000000E+00 0. -1.
         -5    1    3    3    0  503 -0.10603065264E+03 -0.36462456779E+02 -0.73971833519E+02  0.13440956889E+03  0.47000000000E+01 0.  1.
         13    1    4    4    0    0 -0.10195031978E+02 -0.42287909728E+02 -0.36284977913E+02  0.56646320343E+02  0.00000000000E+00 0. -1.
        -14    1    4    4    0    0  0.29107209681E+02  0.17185495927E+02 -0.80025886215E+02  0.86871821612E+02  0.00000000000E+00 0.  1.
</event>
<event>
12    1  0.1598254E-001  0.1853720E+03  0.7818608E-02  0.1162723E+00
         21   -1    0    0  501  502  0.00000000000E+00  0.00000000000E+00  0.14529997734E+03  0.14529997734E+03  0.00000000000E+00 0.  1.
         21   -1    0    0  502  503 -0.00000000000E+00 -0.00000000000E+00 -0.26084265177E+03  0.26084265177E+03  0.00000000000E+00 0.  1.
         -6    2    1    2    0  503  0.67982838819E+02 -0.23195531025E+02 -0.11994117723E+03  0.22071840755E+03  0.17079528800E+03 0.  0.
        -24    2    3    3    0    0  0.10401386855E+02  0.42423962245E+02 -0.29794550892E+02  0.95139564796E+02  0.79093868951E+02 0.  0.
          6    2    1    2  501    0 -0.67982838819E+02  0.23195531025E+02  0.43985027990E+01  0.18542422156E+03  0.17088913389E+03 0.  0.
         24    2    5    5    0    0 -0.32160929758E+02 -0.45526289104E+02  0.33365780780E+02  0.10255630905E+03  0.79357121898E+02 0.  0.
          5    1    5    5  501    0 -0.35821909061E+02  0.68721820129E+02 -0.28967277981E+02  0.82867912513E+02  0.47000000000E+01 0. -1.
        -11    1    6    6    0    0 -0.10831275824E+02  0.12973141668E+02  0.36487543220E+02  0.40211438061E+02  0.00000000000E+00 0.  1.
         12    1    6    6    0    0 -0.21329653934E+02 -0.58499430771E+02 -0.31217624404E+01  0.62344870986E+02  0.00000000000E+00 0. -1.
         -5    1    3    3    0  503  0.57581451965E+02 -0.65619493271E+02 -0.90146626340E+02  0.12557884276E+03  0.47000000000E+01 0.  1.
         13    1    4    4    0    0  0.21177153469E+01  0.23394607128E+02  0.26339014476E+02  0.35292152733E+02  0.00000000000E+00 0. -1.
        -14    1    4    4    0    0  0.82836715076E+01  0.19029355117E+02 -0.56133565368E+02  0.59847412063E+02  0.00000000000E+00 0.  1.
</event>
<event>
12    1  0.1598254E-001  0.1750234E+03  0.7818608E-02  0.1172888E+00
         21   -1    0    0  503  502  0.00000000000E+00  0.00000000000E+00  0.18921534275E+03  0.18921534275E+03  0.00000000000E+00 0.  1.
         21   -1    0    0  501  503 -0.00000000000E+00 -0.00000000000E+00 -0.72907947879E+03  0.72907947879E+03  0.00000000000E+00 0.  1.
          6    2    1    2  501    0 -0.16050487356E+02 -0.25498629449E+02 -0.67501917062E+03  0.69716119120E+03  0.17168298565E+03 0.  0.
         24    2    3    3    0    0  0.45491818510E+02 -0.40535785136E+02 -0.51863783406E+03  0.52836905902E+03  0.80473624119E+02 0.  0.
         -6    2    1    2    0  502  0.16050487356E+02  0.25498629449E+02  0.13515503459E+03  0.22113363033E+03  0.17241055896E+03 0.  0.
        -24    2    5    5    0    0  0.27145760573E+02  0.10774917951E+02  0.13139175569E+01  0.85946991288E+02  0.80821827239E+02 0.  0.
          5    1    3    3  501    0 -0.61542305866E+02  0.15037155687E+02 -0.15638133656E+03  0.16879213218E+03  0.47000000000E+01 0. -1.
        -13    1    4    4    0    0  0.42647999669E+02 -0.32490476428E+02 -0.14436789146E+03  0.15400185395E+03  0.00000000000E+00 0.  1.
         14    1    4    4    0    0  0.28438188410E+01 -0.80453087083E+01 -0.37426994260E+03  0.37436720507E+03  0.00000000000E+00 0. -1.
         -5    1    5    5    0  502 -0.11095273216E+02  0.14723711498E+02  0.13384111703E+03  0.13518663905E+03  0.47000000000E+01 0.  1.
         13    1    6    6    0    0  0.23889784502E+02  0.36084541522E+02  0.25964066504E+02  0.50467303175E+02  0.00000000000E+00 0. -1.
        -14    1    6    6    0    0  0.32559760709E+01 -0.25309623571E+02 -0.24650148947E+02  0.35479688113E+02  0.00000000000E+00 0.  1.
</event>
<event>
12    1  0.1598254E-001  0.2537519E+03  0.7818608E-02  0.1111140E+00
         21   -1    0    0  503  502  0.00000000000E+00  0.00000000000E+00  0.59223469329E+03  0.59223469329E+03  0.00000000000E+00 0. -1.
         21   -1    0    0  501  503 -0.00000000000E+00 -0.00000000000E+00 -0.11080412149E+03  0.11080412149E+03  0.00000000000E+00 0.  1.
          6    2    1    2  501    0  0.15523041980E+03  0.10108037110E+03  0.18755750710E+03  0.31554369764E+03  0.17342514810E+03 0.  0.
         24    2    3    3    0    0  0.52491403754E+02  0.75474318297E+02  0.16838913513E+03  0.20783811819E+03  0.79937865591E+02 0.  0.
         -6    2    1    2    0  502 -0.15523041980E+03 -0.10108037110E+03  0.29387306470E+03  0.38749511714E+03  0.17168972885E+03 0.  0.
        -24    2    5    5    0    0 -0.92285909160E+02 -0.71208745250E+02  0.28325953379E+03  0.31686182124E+03  0.81105337951E+02 0.  0.
          5    1    3    3  501    0  0.10273901605E+03  0.25606052804E+02  0.19168371972E+02  0.10770557944E+03  0.47000000000E+01 0. -1.
        -13    1    4    4    0    0  0.31441193840E+02  0.88730534543E+02  0.14922320436E+03  0.17643475040E+03  0.00000000000E+00 0.  1.
         14    1    4    4    0    0  0.21050209913E+02 -0.13256216245E+02  0.19165930771E+02  0.31403367795E+02  0.00000000000E+00 0. -1.
         -5    1    5    5    0  502 -0.62944510643E+02 -0.29871625850E+02  0.10613530911E+02  0.70633295898E+02  0.47000000000E+01 0.  1.
         11    1    6    6    0    0 -0.60759963344E+02 -0.34242870513E+01  0.17516082785E+03  0.18543142802E+03  0.00000000000E+00 0. -1.
        -12    1    6    6    0    0 -0.31525945816E+02 -0.67784458199E+02  0.10809870595E+03  0.13143039321E+03  0.00000000000E+00 0.  1.
</event>
<event>
12    1  0.1598254E-001  0.1722491E+03  0.7818608E-02  0.1175524E+00
         21   -1    0    0  501  502  0.00000000000E+00  0.00000000000E+00  0.13665600497E+04  0.13665600497E+04  0.00000000000E+00 0. -1.
         21   -1    0    0  502  503 -0.00000000000E+00 -0.00000000000E+00 -0.42031248459E+02  0.42031248459E+02  0.00000000000E+00 0. -1.
         -6    2    1    2    0  503  0.59715522262E+00  0.31856258702E+01  0.17254802764E+03  0.24380399188E+03  0.17221225220E+03 0.  0.
        -24    2    3    3    0    0  0.10877491669E+02  0.29518208464E+02  0.18824689943E+02  0.87432495834E+02  0.79375234931E+02 0.  0.
          6    2    1    2  501    0 -0.59715522262E+00 -0.31856258702E+01  0.11519807736E+04  0.11647873063E+04  0.17221864392E+03 0.  0.
         24    2    5    5    0    0  0.62858775885E+02  0.51701328887E+01  0.85663755481E+03  0.86255199930E+03  0.78677158126E+02 0.  0.
          5    1    5    5  501    0 -0.63455931108E+02 -0.83557587590E+01  0.29534321883E+03  0.30223530702E+03  0.47000000000E+01 0. -1.
        -11    1    6    6    0    0  0.53360628263E+00  0.32691659001E+02  0.28336970104E+03  0.28524974455E+03  0.00000000000E+00 0.  1.
         12    1    6    6    0    0  0.62325169603E+02 -0.27521526112E+02  0.57326785378E+03  0.57730225475E+03  0.00000000000E+00 0. -1.
         -5    1    3    3    0  503 -0.10280336446E+02 -0.26332582594E+02  0.15372333769E+03  0.15637149604E+03  0.47000000000E+01 0.  1.
         11    1    4    4    0    0  0.20280897667E+02 -0.23605356564E+02  0.10499135196E+02  0.32844474552E+02  0.00000000000E+00 0. -1.
        -12    1    4    4    0    0 -0.94034059989E+01  0.53123565028E+02  0.83255547477E+01  0.54588021282E+02  0.00000000000E+00 0.  1.
</event>
<event>
12    1  0.1598254E-001  0.1824515E+03  0.7818608E-02  0.1166185E+00
         21   -1    0    0  501  502  0.00000000000E+00  0.00000000000E+00  0.33607035460E+03  0.33607035460E+03  0.00000000000E+00 0.  1.
         21   -1    0    0  502  503 -0.00000000000E+00 -0.00000000000E+00 -0.10903716036E+03  0.10903716036E+03  0.00000000000E+00 0.  1.
         -6    2    1    2    0  503  0.24329090098E+02 -0.51395429472E+02  0.39953413614E+02  0.18378895861E+03  0.17014320807E+03 0.  0.
        -24    2    3    3    0    0  0.16525286826E+02 -0.27330313450E+01 -0.38513385334E+02  0.91009344075E+02  0.80739490301E+02 0.  0.
          6    2    1    2  501    0 -0.24329090098E+02  0.51395429472E+02  0.18707978062E+03  0.26131855635E+03  0.17336420847E+03 0.  0.
         24    2    5    5    0    0 -0.33922693407E+02  0.73470444448E+02  0.20259034431E+03  0.23230112889E+03  0.79826759549E+02 0.  0.
          5    1    5    5  501    0  0.95936033085E+01 -0.22075014975E+02 -0.15510563687E+02  0.29017427462E+02  0.47000000000E+01 0. -1.
        -13    1    6    6    0    0 -0.50346652764E+01  0.80196882547E+02  0.11886741033E+03  0.14347943777E+03  0.00000000000E+00 0.  1.
         14    1    6    6    0    0 -0.28888028130E+02 -0.67264380993E+01  0.83722933978E+02  0.88821691116E+02  0.00000000000E+00 0. -1.
         -5    1    3    3    0  503  0.78038032728E+01 -0.48662398127E+02  0.78466798947E+02  0.92779614539E+02  0.47000000000E+01 0.  1.
         13    1    4    4    0    0  0.44648828599E+02  0.14167066019E+02 -0.10825362865E+02  0.48077147753E+02  0.00000000000E+00 0. -1.
        -14    1    4    4    0    0 -0.28123541774E+02 -0.16900097364E+02 -0.27688022468E+02  0.42932196322E+02  0.00000000000E+00 0.  1.
</event>
<event>
12    1  0.1598254E-001  0.2178133E+03  0.7818608E-02  0.1136187E+00
         21   -1    0    0  501  502  0.00000000000E+00  0.00000000000E+00  0.15163286245E+03  0.15163286245E+03  0.00000000000E+00 0.  1.
         21   -1    0    0  502  503 -0.00000000000E+00 -0.00000000000E+00 -0.30915380387E+03  0.30915380387E+03  0.00000000000E+00 0.  1.
         -6    2    1    2    0  503  0.36935766771E+02 -0.12931894607E+03 -0.63444061829E+02  0.22352503490E+03  0.16688514483E+03 0.  0.
        -24    2    3    3    0    0 -0.17002407174E+02 -0.14355197309E+02 -0.49582792690E+01  0.83636983588E+02  0.80469913327E+02 0.  0.
          6    2    1    2  501    0 -0.36935766771E+02  0.12931894607E+03 -0.94076879592E+02  0.23726163142E+03  0.17133295594E+03 0.  0.
         24    2    5    5    0    0 -0.33853116027E+01  0.15563245041E+03 -0.65641062419E+02  0.18579592195E+03  0.77320473261E+02 0.  0.
          5    1    5    5  501    0 -0.33550455168E+02 -0.26313504338E+02 -0.28435817173E+02  0.51465709466E+02  0.47000000000E+01 0. -1.
        -11    1    6    6    0    0  0.23451533815E+02  0.25180050931E+02 -0.35103589595E+02  0.49155583667E+02  0.00000000000E+00 0.  1.
         12    1    6    6    0    0 -0.26836845417E+02  0.13045239948E+03 -0.30537472823E+02  0.13664033829E+03  0.00000000000E+00 0. -1.
         -5    1    3    3    0  503  0.53938173945E+02 -0.11496374876E+03 -0.58485782560E+02  0.13988805131E+03  0.47000000000E+01 0.  1.
         11    1    4    4    0    0 -0.36246631854E+02 -0.11214598560E+02 -0.32454492807E+02  0.49928745678E+02  0.00000000000E+00 0. -1.
        -12    1    4    4    0    0  0.19244224680E+02 -0.31405987487E+01  0.27496213538E+02  0.33708237910E+02  0.00000000000E+00 0.  1.
</event>
<event>
12    1  0.1598254E-001  0.1851298E+03  0.7818608E-02  0.1163083E+00
         21   -1    0    0  501  502  0.00000000000E+00  0.00000000000E+00  0.51394244664E+03  0.51394244664E+03  0.00000000000E+00 0. -1.
         21   -1    0    0  502  503 -0.00000000000E+00 -0.00000000000E+00 -0.21863520948E+03  0.21863520948E+03  0.00000000000E+00 0. -1.
         -6    2    1    2    0  503  0.65516007405E+02 -0.20325111987E+02 -0.15802565839E+03  0.24290047022E+03  0.17123980939E+03 0.  0.
        -24    2    3    3    0    0 -0.12663602331E+02 -0.49878820719E+02 -0.52598856663E+02  0.10828110459E+03  0.79434843170E+02 0.  0.
          6    2    1    2  501    0 -0.65516007405E+02  0.20325111987E+02  0.45333289555E+03  0.48967718590E+03  0.17195224569E+03 0.  0.
         24    2    5    5    0    0 -0.10742628513E+03 -0.77601323495E+01  0.35200737400E+03  0.37638904157E+03  0.78478614111E+02 0.  0.
          5    1    5    5  501    0  0.41910277723E+02  0.28085244337E+02  0.10132552155E+03  0.11328814433E+03  0.47000000000E+01 0. -1.
        -11    1    6    6    0    0 -0.92957864064E+02 -0.36725943248E+02  0.28381767728E+03  0.30090269746E+03  0.00000000000E+00 0.  1.
         12    1    6    6    0    0 -0.14468421064E+02  0.28965810898E+02  0.68189696715E+02  0.75486344111E+02  0.00000000000E+00 0. -1.
         -5    1    3    3    0  503  0.78179609736E+02  0.29553708732E+02 -0.10542680173E+03  0.13461936562E+03  0.47000000000E+01 0.  1.
         13    1    4    4    0    0  0.31411582940E+02 -0.33710138110E+02 -0.36046234756E+02  0.58501213614E+02  0.00000000000E+00 0. -1.
        -14    1    4    4    0    0 -0.44075185271E+02 -0.16168682609E+02 -0.16552621906E+02  0.49779890980E+02  0.00000000000E+00 0.  1.
</event>
<event>
12    1  0.1598254E-001  0.1713539E+03  0.7818608E-02  0.1176836E+00
         21   -1    0    0  503  502  0.00000000000E+00  0.00000000000E+00  0.26806924978E+03  0.26806924978E+03  0.00000000000E+00 0. -1.
         21   -1    0    0  501  503 -0.00000000000E+00 -0.00000000000E+00 -0.12300939912E+03  0.12300939912E+03  0.00000000000E+00 0. -1.
          6    2    1    2  501    0  0.54173175041E+01 -0.12346354964E+02  0.52393991675E+01  0.16991826067E+03  0.16930145952E+03 0.  0.
         24    2    3    3    0    0 -0.24711234501E+02  0.51466519188E+02  0.26698342850E+02  0.96010285342E+02  0.72427382064E+02 0.  0.
         -6    2    1    2    0  502 -0.54173175041E+01  0.12346354964E+02  0.13982045149E+03  0.22116038822E+03  0.17082265322E+03 0.  0.
        -24    2    5    5    0    0  0.34666793969E+02 -0.77635676175E+01  0.14917954803E+02  0.88367810654E+02  0.79525247551E+02 0.  0.
          5    1    3    3  501    0  0.30128552005E+02 -0.63812874152E+02 -0.21458943683E+02  0.73907975330E+02  0.47000000000E+01 0. -1.
        -11    1    4    4    0    0  0.17146087688E+02  0.46055219924E+02  0.77674768991E+01  0.49753445133E+02  0.00000000000E+00 0.  1.
         12    1    4    4    0    0 -0.41857322188E+02  0.54112992641E+01  0.18930865951E+02  0.46256840209E+02  0.00000000000E+00 0. -1.
         -5    1    5    5    0  502 -0.40084111473E+02  0.20109922581E+02  0.12490249669E+03  0.13279257757E+03  0.47000000000E+01 0.  1.
         13    1    6    6    0    0  0.37228117224E+02  0.30820586073E+02  0.10387873750E+02  0.49434291327E+02  0.00000000000E+00 0. -1.
        -14    1    6    6    0    0 -0.25613232554E+01 -0.38584153691E+02  0.45300810525E+01  0.38933519327E+02  0.00000000000E+00 0.  1.
</event>
<event>
12    1  0.1598254E-001  0.2027632E+03  0.7818608E-02  0.1147610E+00
         21   -1    0    0  503  502  0.00000000000E+00  0.00000000000E+00  0.17159921737E+03  0.17159921737E+03  0.00000000000E+00 0.  1.
         21   -1    0    0  501  503 -0.00000000000E+00 -0.00000000000E+00 -0.28053376176E+03  0.28053376176E+03  0.00000000000E+00 0. -1.
          6    2    1    2  501    0  0.32743990677E+02  0.10286912960E+03 -0.14201843943E+03  0.24755229295E+03  0.17163529317E+03 0.  0.
         24    2    3    3    0    0  0.22673163692E+02  0.13915024436E+03 -0.94572700169E+02  0.18679927642E+03  0.77930168732E+02 0.  0.
         -6    2    1    2    0  502 -0.32743990677E+02 -0.10286912960E+03  0.33083895033E+02  0.20458068618E+03  0.17060037016E+03 0.  0.
        -24    2    5    5    0    0 -0.74338273171E+02 -0.93464625411E+02  0.57872505475E+02  0.15503177860E+03  0.80148676996E+02 0.  0.
          5    1    3    3  501    0  0.10070826986E+02 -0.36281114758E+02 -0.47445739257E+02  0.60753016533E+02  0.47000000000E+01 0. -1.
        -11    1    4    4    0    0  0.14845053278E+02 -0.57843852375E+01 -0.86822258852E+01  0.18144303947E+02  0.00000000000E+00 0.  1.
         12    1    4    4    0    0  0.78281104139E+01  0.14493462959E+03 -0.85890474284E+02  0.16865497247E+03  0.00000000000E+00 0. -1.
         -5    1    5    5    0  502  0.41594282494E+02 -0.94045041865E+01 -0.24788610441E+02  0.49548907584E+02  0.47000000000E+01 0.  1.
         11    1    6    6    0    0 -0.12155428168E+02 -0.27073378828E+02 -0.19585254940E+02  0.35557059583E+02  0.00000000000E+00 0. -1.
        -12    1    6    6    0    0 -0.62182845003E+02 -0.66391246583E+02  0.77457760414E+02  0.11947471902E+03  0.00000000000E+00 0.  1.
</event>
<event>
12    1  0.1598254E-001  0.1819024E+03  0.7818608E-02  0.1166264E+00
         21   -1    0    0  501  502  0.00000000000E+00  0.00000000000E+00  0.47968392041E+02  0.47968392041E+02  0.00000000000E+00 0.  1.
         21   -1    0    0  502  503 -0.00000000000E+00 -0.00000000000E+00 -0.10485594327E+04  0.10485594327E+04  0.00000000000E+00 0.  1.
         -6    2    1    2    0  503 -0.24025096649E+01 -0.54157961983E+02 -0.17646544444E+03  0.25256604783E+03  0.17236791620E+03 0.  0.
        -24    2    3    3    0    0 -0.55212003076E+02 -0.41954737683E+01 -0.62185459482E+02  0.11704078161E+03  0.82252938577E+02 0.  0.
          6    2    1    2  501    0  0.24025096649E+01  0.54157961983E+02 -0.82412559626E+03  0.84396177695E+03  0.17363647555E+03 0.  0.
         24    2    5    5    0    0 -0.35311396178E+02  0.54226434258E+02 -0.77562194669E+03  0.78234167143E+03  0.79257086744E+02 0.  0.
          5    1    5    5  501    0  0.37713905843E+02 -0.68472274430E-01 -0.48503649571E+02  0.61620105518E+02  0.47000000000E+01 0. -1.
        -11    1    6    6    0    0  0.50442446192E+01  0.58289924031E+02 -0.35737072066E+03  0.36212841870E+03  0.00000000000E+00 0.  1.
         12    1    6    6    0    0 -0.40355640797E+02 -0.40634897730E+01 -0.41825122603E+03  0.42021325273E+03  0.00000000000E+00 0. -1.
         -5    1    3    3    0  503  0.52809493411E+02 -0.49962488215E+02 -0.11427998495E+03  0.13552526622E+03  0.47000000000E+01 0.  1.
         11    1    4    4    0    0 -0.27625447856E+02  0.28422416170E+02  0.22846929759E+01  0.39701623797E+02  0.00000000000E+00 0. -1.
        -12    1    4    4    0    0 -0.27586555220E+02 -0.32617889938E+02 -0.64470152458E+02  0.77339157811E+02  0.00000000000E+00 0.  1.
</event>
<event>
12    1  0.1598254E-001  0.1877824E+03  0.7818608E-02  0.1160941E+00
         21   -1    0    0  503  502  0.00000000000E+00  0.00000000000E+00  0.39172503146E+03  0.39172503146E+03  0.00000000000E+00 0.  1.
         21   -1    0    0  501  503 -0.00000000000E+00 -0.00000000000E+00 -0.30154609488E+03  0.30154609488E+03  0.00000000000E+00 0.  1.
          6    2    1    2  501    0 -0.24481930911E+02  0.66283032486E+02 -0.24596458278E+03  0.30823254559E+03  0.17180198148E+03 0.  0.
         24    2    3    3    0    0  0.36690332257E+02 -0.41902744566E+01 -0.15107099827E+03  0.17505816685E+03  0.80369001359E+02 0.  0.
         -6    2    1    2    0  502  0.24481930911E+02 -0.66283032486E+02  0.33614351935E+03  0.38503858075E+03  0.17398114187E+03 0.  0.
        -24    2    5    5    0    0  0.67334618767E+01 -0.89656142549E+02  0.13036341841E+03  0.17712309222E+03  0.79337289669E+02 0.  0.
          5    1    3    3  501    0 -0.61172263168E+02  0.70473306943E+02 -0.94893584505E+02  0.13317437874E+03  0.47000000000E+01 0. -1.
        -11    1    4    4    0    0 -0.25802852360E+02  0.70853839413E-01 -0.45006986755E+02  0.51878907727E+02  0.00000000000E+00 0.  1.
         12    1    4    4    0    0  0.62493184617E+02 -0.42611282960E+01 -0.10606401152E+03  0.12317925912E+03  0.00000000000E+00 0. -1.
         -5    1    5    5    0  502  0.17748469035E+02  0.23373110063E+02  0.20578010095E+03  0.20791548854E+03  0.47000000000E+01 0.  1.
         11    1    6    6    0    0 -0.10299155033E+02 -0.21876313225E+01 -0.75282339746E+01  0.12943439727E+02  0.00000000000E+00 0. -1.
        -12    1    6    6    0    0  0.17032616910E+02 -0.87468511227E+02  0.13789165238E+03  0.16417965249E+03  0.00000000000E+00 0.  1.
</event>
<event>
12    1  0.1598254E-001  0.1757296E+03  0.7818608E-02  0.1172055E+00
         21   -1    0    0  503  502  0.00000000000E+00  0.00000000000E+00  0.18056960718E+03  0.18056960718E+03  0.00000000000E+00 0.  1.
         21   -1    0    0  501  503 -0.00000000000E+00 -0.00000000000E+00 -0.24339848386E+03  0.24339848386E+03  0.00000000000E+00 0.  1.
          6    2    1    2  501    0  0.38317470048E+02 -0.80152428550E+01 -0.14719281693E+03  0.22923048561E+03  0.17131379848E+03 0.  0.
         24    2    3    3    0    0  0.17253621434E+02  0.62119283088E+02 -0.71611445413E+02  0.12388737398E+03  0.77867769547E+02 0.  0.
         -6    2    1    2    0  502 -0.38317470048E+02  0.80152428550E+01  0.84363940246E+02  0.19473760543E+03  0.17109350638E+03 0.  0.
        -24    2    5    5    0    0 -0.61459250022E+02 -0.49524214917E+02  0.66085783926E+02  0.12991081946E+03  0.79243945499E+02 0.  0.
          5    1    3    3  501    0  0.21063848614E+02 -0.70134525943E+02 -0.75581371513E+02  0.10534311163E+03  0.47000000000E+01 0. -1.
        -13    1    4    4    0    0  0.33759636680E+02  0.83724851445E+01 -0.55327539424E+02  0.65352491881E+02  0.00000000000E+00 0.  1.
         14    1    4    4    0    0 -0.16506015246E+02  0.53746797944E+02 -0.16283905988E+02  0.58534882102E+02  0.00000000000E+00 0. -1.
         -5    1    5    5    0  502  0.23141779974E+02  0.57539457772E+02  0.18278156319E+02  0.64826785972E+02  0.47000000000E+01 0.  1.
         13    1    6    6    0    0 -0.13410055721E+01  0.77586311806E+01 -0.13024897558E+02  0.15219809793E+02  0.00000000000E+00 0. -1.
        -14    1    6    6    0    0 -0.60118244449E+02 -0.57282846097E+02  0.79110681484E+02  0.11469100966E+03  0.00000000000E+00 0.  1.
</event>
<event>
12    1  0.1598254E-001  0.1860507E+03  0.7818608E-02  0.1162189E+00
         21   -1    0    0  501  502  0.00000000000E+00  0.00000000000E+00  0.10608458464E+03  0.10608458464E+03  0.00000000000E+00 0.  1.
         21   -1    0    0  502  503 -0.00000000000E+00 -0.00000000000E+00 -0.40785613823E+03  0.40785613823E+03  0.00000000000E+00 0. -1.
         -6    2    1    2    0  503  0.21913236490E+02 -0.68093095559E+02 -0.26658315083E+03  0.32508684082E+03  0.17174987094E+03 0.  0.
        -24    2    3    3    0    0  0.67002732580E+02 -0.13379698856E+02 -0.10833552826E+03  0.15161921131E+03  0.81138252638E+02 0.  0.
          6    2    1    2  501    0 -0.21913236490E+02  0.68093095559E+02 -0.35188402758E+02  0.18885388205E+03  0.17120369588E+03 0.  0.
         24    2    5    5    0    0  0.22867633858E+02  0.82853784601E+02  0.16671051300E+02  0.11860648164E+03  0.80011844332E+02 0.  0.
          5    1    5    5  501    0 -0.44780870349E+02 -0.14760689042E+02 -0.51859454058E+02  0.70247400417E+02  0.47000000000E+01 0. -1.
        -13    1    6    6    0    0  0.17534021499E+02  0.17154139101E+02  0.41468736762E+02  0.48180520201E+02  0.00000000000E+00 0.  1.
         14    1    6    6    0    0  0.53336123598E+01  0.65699645501E+02 -0.24797685462E+02  0.70425961434E+02  0.00000000000E+00 0. -1.
         -5    1    3    3    0  503 -0.45089496090E+02 -0.54713396703E+02 -0.15824762257E+03  0.17346762951E+03  0.47000000000E+01 0.  1.
         11    1    4    4    0    0  0.13241525744E+02 -0.34054493453E+02 -0.78865396307E+02  0.86918336748E+02  0.00000000000E+00 0. -1.
        -12    1    4    4    0    0  0.53761206836E+02  0.20674794597E+02 -0.29470131952E+02  0.64700874564E+02  0.00000000000E+00 0.  1.
</event>
<event>
12    1  0.1598254E-001  0.2008216E+03  0.7818608E-02  0.1149302E+00
         21   -1    0    0  501  502  0.00000000000E+00  0.00000000000E+00  0.69281690888E+03  0.69281690888E+03  0.00000000000E+00 0.  1.
         21   -1    0    0  502  503 -0.00000000000E+00 -0.00000000000E+00 -0.66313734808E+02  0.66313734808E+02  0.00000000000E+00 0.  1.
         -6    2    1    2    0  503  0.55173496872E+02 -0.84662159139E+02  0.17856378060E+03  0.26872725477E+03  0.17354399375E+03 0.  0.
        -24    2    3    3    0    0  0.85713112371E+02 -0.63882915935E+02  0.18933485728E+03  0.22996450002E+03  0.74888039818E+02 0.  0.
          6    2    1    2  501    0 -0.55173496872E+02  0.84662159139E+02  0.44793939348E+03  0.49040338892E+03  0.17214525171E+03 0.  0.
         24    2    5    5    0    0 -0.13700148548E+02  0.11254682945E+03  0.38939073406E+03  0.41328251639E+03  0.79516109653E+02 0.  0.
          5    1    5    5  501    0 -0.41473348325E+02 -0.27884670314E+02  0.58548659423E+02  0.77120872531E+02  0.47000000000E+01 0. -1.
        -11    1    6    6    0    0 -0.32324229612E+02  0.32591436289E+02  0.22379138551E+03  0.22845052368E+03  0.00000000000E+00 0.  1.
         12    1    6    6    0    0  0.18624081065E+02  0.79955393164E+02  0.16559934855E+03  0.18483199271E+03  0.00000000000E+00 0. -1.
         -5    1    3    3    0  503 -0.30539615498E+02 -0.20779243204E+02 -0.10771076683E+02  0.38762754750E+02  0.47000000000E+01 0.  1.
         11    1    4    4    0    0  0.61765967859E+02 -0.54793746206E+02  0.18678908133E+03  0.20422426475E+03  0.00000000000E+00 0. -1.
        -12    1    4    4    0    0  0.23947144511E+02 -0.90891697289E+01  0.25457759516E+01  0.25740235271E+02  0.00000000000E+00 0.  1.
</event>
<event>
12    1  0.1598254E-001  0.1940107E+03  0.7818608E-02  0.1155024E+00
         21   -1    0    0  501  502  0.00000000000E+00  0.00000000000E+00  0.52368873055E+02  0.52368873055E+02  0.00000000000E+00 0. -1.
         21   -1    0    0  502  503 -0.00000000000E+00 -0.00000000000E+00 -0.82688574410E+03  0.82688574410E+03  0.00000000000E+00 0. -1.
         -6    2    1    2    0  503 -0.10067869206E+02 -0.91552182899E+02 -0.54733782692E+03  0.58050643987E+03  0.17007605878E+03 0.  0.
        -24    2    3    3    0    0 -0.62456820460E+02 -0.84775121365E+02 -0.45407801834E+03  0.47322171275E+03  0.81634962221E+02 0.  0.
          6    2    1    2  501    0  0.10067869206E+02  0.91552182899E+02 -0.22717904413E+03  0.29874817729E+03  0.17075418343E+03 0.  0.
         24    2    5    5    0    0 -0.60412794318E+02  0.63301118678E+02 -0.13120925894E+03  0.17628211574E+03  0.78757713000E+02 0.  0.
          5    1    5    5  501    0  0.70480663524E+02  0.28251064221E+02 -0.95969785194E+02  0.12246606155E+03  0.47000000000E+01 0. -1.
        -11    1    6    6    0    0 -0.72548062683E+02  0.43363940424E+02 -0.66663570942E+02  0.10764610731E+03  0.00000000000E+00 0.  1.
         12    1    6    6    0    0  0.12135268365E+02  0.19937178254E+02 -0.64545687993E+02  0.68636008433E+02  0.00000000000E+00 0. -1.
         -5    1    3    3    0  503  0.52388951254E+02 -0.67770615339E+01 -0.93259808575E+02  0.10728472711E+03  0.47000000000E+01 0.  1.
         13    1    4    4    0    0  0.48657371668E+00 -0.44163325774E+02 -0.76929371666E+02  0.88706055725E+02  0.00000000000E+00 0. -1.
        -14    1    4    4    0    0 -0.62943394177E+02 -0.40611795591E+02 -0.37714864667E+03  0.38451565703E+03  0.00000000000E+00 0.  1.
</event>
<event>
12    1  0.1598254E-001  0.2078008E+03  0.7818608E-02  0.1144537E+00
         21   -1    0    0  503  502  0.00000000000E+00  0.00000000000E+00  0.35427933024E+03  0.35427933024E+03  0.00000000000E+00 0. -1.
         21   -1    0    0  501  503 -0.00000000000E+00 -0.00000000000E+00 -0.18225063642E+03  0.18225063642E+03  0.00000000000E+00 0.  1.
          6    2    1    2  501    0 -0.80893040263E+02  0.65238259193E+02 -0.73565881625E+02  0.21481914164E+03  0.17301910372E+03 0.  0.
         24    2    3    3    0    0 -0.88127498122E+02  0.10541573599E+03 -0.46976890010E+02  0.16587395294E+03  0.80177345610E+02 0.  0.
         -6    2    1    2    0  502  0.80893040263E+02 -0.65238259193E+02  0.24559457545E+03  0.32171082502E+03  0.17994845101E+03 0.  0.
        -24    2    5    5    0    0  0.10743425072E+03 -0.74091602421E+02  0.12457837721E+03  0.19741348887E+03  0.80128832153E+02 0.  0.
          5    1    3    3  501    0  0.72344578588E+01 -0.40177476795E+02 -0.26588991615E+02  0.48945188704E+02  0.47000000000E+01 0. -1.
        -11    1    4    4    0    0 -0.55230503685E+02  0.51944455498E+02 -0.65738169805E+02  0.10035009698E+03  0.00000000000E+00 0.  1.
         12    1    4    4    0    0 -0.32896994437E+02  0.53471280491E+02  0.18761279795E+02  0.65523855960E+02  0.00000000000E+00 0. -1.
         -5    1    5    5    0  502 -0.26541210458E+02  0.88533432277E+01  0.12101619823E+03  0.12429733615E+03  0.47000000000E+01 0.  1.
         13    1    6    6    0    0  0.16223974666E+02 -0.57473783943E+02  0.58202751991E+02  0.83390728106E+02  0.00000000000E+00 0. -1.
        -14    1    6    6    0    0  0.91210276055E+02 -0.16617818478E+02  0.66375625223E+02  0.11402276077E+03  0.00000000000E+00 0.  1.
</event>
<event>
12    1  0.1598254E-001  0.2074981E+03  0.7818608E-02  0.1144052E+00
         21   -1    0    0  501  502  0.00000000000E+00  0.00000000000E+00  0.96439366300E+03  0.96439366300E+03  0.00000000000E+00 0.  1.
         21   -1    0    0  502  503 -0.00000000000E+00 -0.00000000000E+00 -0.72954278866E+02  0.72954278866E+02  0.00000000000E+00 0.  1.
         -6    2    1    2    0  503  0.33533099175E+02  0.11019535993E+03  0.11810197751E+03  0.23665685776E+03  0.16967882939E+03 0.  0.
        -24    2    3    3    0    0  0.67824688620E+02  0.38765282352E+02  0.25158358865E+02  0.11443257483E+03  0.79742934861E+02 0.  0.
          6    2    1    2  501    0 -0.33533099175E+02 -0.11019535993E+03  0.77333740662E+03  0.80069108410E+03  0.17259195115E+03 0.  0.
         24    2    5    5    0    0 -0.23847704226E+02 -0.10649218030E+03  0.77698479685E+03  0.78873642517E+03  0.80563492916E+02 0.  0.
          5    1    5    5  501    0 -0.96853949485E+01 -0.37031796220E+01 -0.36473902363E+01  0.11954658931E+02  0.47000000000E+01 0. -1.
        -13    1    6    6    0    0 -0.19513787161E+02 -0.88459465849E+02  0.35603460622E+03  0.36737787878E+03  0.00000000000E+00 0.  1.
         14    1    6    6    0    0 -0.43339170649E+01 -0.18032714454E+02  0.42095019063E+03  0.42135854640E+03  0.00000000000E+00 0. -1.
         -5    1    3    3    0  503 -0.34291589445E+02  0.71430077573E+02  0.92943618648E+02  0.12222428292E+03  0.47000000000E+01 0.  1.
         13    1    4    4    0    0  0.78027011501E+02  0.42589955755E+02  0.38784081675E+02  0.96986204413E+02  0.00000000000E+00 0. -1.
        -14    1    4    4    0    0 -0.10202322881E+02 -0.38246734030E+01 -0.13625722810E+02  0.17446370422E+02  0.00000000000E+00 0.  1.
</event>
<event>
12    1  0.1598254E-001  0.1995145E+03  0.7818608E-02  0.1150758E+00
         21   -1    0    0  501  502  0.00000000000E+00  0.00000000000E+00  0.57736139446E+02  0.57736139446E+02  0.00000000000E+00 0. -1.
         21   -1    0    0  502  503 -0.00000000000E+00 -0.00000000000E+00 -0.86650466667E+03  0.86650466667E+03  0.00000000000E+00 0. -1.
         -6    2    1    2    0  503  0.79346508130E+02 -0.54247377021E+02 -0.61670626955E+03  0.64730411793E+03  0.17157316783E+03 0.  0.
        -24    2    3    3    0    0  0.10051080028E+03  0.10284694661E+02 -0.39194455626E+03  0.41245899173E+03  0.79332772302E+02 0.  0.
          6    2    1    2  501    0 -0.79346508130E+02  0.54247377021E+02 -0.19206225767E+03  0.27693668818E+03  0.17483527154E+03 0.  0.
         24    2    5    5    0    0 -0.10801398248E+03  0.73924312363E+02 -0.12441394508E+03  0.20073045441E+03  0.87647368627E+02 0.  0.
          5    1    5    5  501    0  0.28667474349E+02 -0.19676935342E+02 -0.67648312592E+02  0.76206233778E+02  0.47000000000E+01 0. -1.
        -13    1    6    6    0    0 -0.88126850070E+02  0.19095603022E+02 -0.10686134567E+03  0.13982249804E+03  0.00000000000E+00 0.  1.
         14    1    6    6    0    0 -0.19887132408E+02  0.54828709341E+02 -0.17552599406E+02  0.60907956371E+02  0.00000000000E+00 0. -1.
         -5    1    3    3    0  503 -0.21164292147E+02 -0.64532071682E+02 -0.22476171329E+03  0.23484512620E+03  0.47000000000E+01 0.  1.
         11    1    4    4    0    0  0.18099554131E+02 -0.30007271618E+02 -0.14047712751E+03  0.14478208992E+03  0.00000000000E+00 0. -1.
        -12    1    4    4    0    0  0.82411246146E+02  0.40291966279E+02 -0.25146742875E+03  0.26767690181E+03  0.00000000000E+00 0.  1.
</event>
<event>
12    1  0.1598254E-001  0.3384243E+03  0.7818608E-02  0.1067639E+00
         21   -1    0    0  503  502  0.00000000000E+00  0.00000000000E+00  0.54687942303E+03  0.54687942303E+03  0.00000000000E+00 0. -1.
         21   -1    0    0  501  503 -0.00000000000E+00 -0.00000000000E+00 -0.24692785533E+03  0.24692785533E+03  0.00000000000E+00 0.  1.
          6    2    1    2  501    0  0.28819520187E+03 -0.30451789842E+02  0.30635882384E+03  0.45532229141E+03  0.17169412986E+03 0.  0.
         24    2    3    3    0    0  0.13327104017E+03 -0.78848790189E+02  0.16335173999E+03  0.23895020090E+03  0.80219110510E+02 0.  0.
         -6    2    1    2    0  502 -0.28819520187E+03  0.30451789842E+02 -0.64072561422E+01  0.33848498695E+03  0.17477770902E+03 0.  0.
        -24    2    5    5    0    0 -0.24118195578E+03  0.36947685361E+02 -0.62318613636E+02  0.26499613158E+03  0.82495290161E+02 0.  0.
          5    1    3    3  501    0  0.15492416170E+03  0.48397000346E+02  0.14300708385E+03  0.21637209051E+03  0.47000000000E+01 0. -1.
        -11    1    4    4    0    0 -0.41094308368E+01 -0.81483518785E+00  0.35385366805E+02  0.35632507098E+02  0.00000000000E+00 0.  1.
         12    1    4    4    0    0  0.13738047101E+03 -0.78033955001E+02  0.12796637318E+03  0.20331769380E+03  0.00000000000E+00 0. -1.
         -5    1    5    5    0  502 -0.47013246090E+02 -0.64958955183E+01  0.55911357494E+02  0.73488855368E+02  0.47000000000E+01 0.  1.
         13    1    6    6    0    0 -0.78178949205E+02 -0.26475196203E+02 -0.16261004571E+02  0.84126716223E+02  0.00000000000E+00 0. -1.
        -14    1    6    6    0    0 -0.16300300658E+03  0.63422881564E+02 -0.46057609066E+02  0.18086941536E+03  0.00000000000E+00 0.  1.
</event>
<event>
12    1  0.1598254E-001  0.2087086E+03  0.7818608E-02  0.1142622E+00
         21   -1    0    0  503  502  0.00000000000E+00  0.00000000000E+00  0.10879802201E+03  0.10879802201E+03  0.00000000000E+00 0. -1.
         21   -1    0    0  501  503 -0.00000000000E+00 -0.00000000000E+00 -0.93484282472E+03  0.93484282472E+03  0.00000000000E+00 0. -1.
          6    2    1    2  501    0  0.96243299587E+02 -0.69416840750E+02 -0.80774824477E+03  0.83427602825E+03  0.17169098372E+03 0.  0.
         24    2    3    3    0    0  0.52334581382E+01 -0.48247115496E+02 -0.26003874202E+03  0.27863339318E+03  0.87528550798E+02 0.  0.
         -6    2    1    2    0  502 -0.96243299587E+02  0.69416840750E+02 -0.18296557934E+02  0.20936481847E+03  0.17151499260E+03 0.  0.
        -24    2    5    5    0    0 -0.61730364214E+02  0.51504352017E+02  0.54798423909E+02  0.12643734214E+03  0.80747743508E+02 0.  0.
          5    1    3    3  501    0  0.91009841448E+02 -0.21169725254E+02 -0.54770950275E+03  0.55564263508E+03  0.47000000000E+01 0. -1.
        -13    1    4    4    0    0 -0.10670080385E+01 -0.59491221310E+02 -0.25895053448E+03  0.26569855707E+03  0.00000000000E+00 0.  1.
         14    1    4    4    0    0  0.63004661766E+01  0.11244105814E+02 -0.10882075400E+01  0.12934836113E+02  0.00000000000E+00 0. -1.
         -5    1    5    5    0  502 -0.34512935372E+02  0.17912488733E+02 -0.73094981843E+02  0.82927476335E+02  0.47000000000E+01 0.  1.
         11    1    6    6    0    0 -0.28614804712E+02  0.64193165809E+02  0.57591149751E+02  0.90864240023E+02  0.00000000000E+00 0. -1.
        -12    1    6    6    0    0 -0.33115559503E+02 -0.12688813791E+02 -0.27927258422E+01  0.35573102117E+02  0.00000000000E+00 0.  1.
</event>
<event>
12    1  0.1598254E-001  0.1792631E+03  0.7818608E-02  0.1169089E+00
         21   -1    0    0  503  502  0.00000000000E+00  0.00000000000E+00  0.23154293769E+03  0.23154293769E+03  0.00000000000E+00 0. -1.
         21   -1    0    0  501  503 -0.00000000000E+00 -0.00000000000E+00 -0.15784978816E+03  0.15784978816E+03  0.00000000000E+00 0. -1.
          6    2    1    2  501    0  0.38023227527E+02 -0.92239201421E+01 -0.33719014688E+02  0.18240676934E+03  0.17494116444E+03 0.  0.
         24    2    3    3    0    0  0.20565867092E+02 -0.19775504131E+02  0.47894536116E+02  0.98151460707E+02  0.80782406477E+02 0.  0.
         -6    2    1    2    0  502 -0.38023227527E+02  0.92239201421E+01  0.10741216421E+03  0.20698595651E+03  0.17255424259E+03 0.  0.
        -24    2    5    5    0    0 -0.16868752348E+02 -0.14420622321E+02  0.13770593251E+03  0.16286817545E+03  0.84086916768E+02 0.  0.
          5    1    3    3  501    0  0.17457360435E+02  0.10551583989E+02 -0.81613550804E+02  0.84255308633E+02  0.47000000000E+01 0. -1.
        -11    1    4    4    0    0  0.21043439047E+02  0.19540621853E+02  0.51189774223E+02  0.58694592718E+02  0.00000000000E+00 0.  1.
         12    1    4    4    0    0 -0.47757195441E+00 -0.39316125984E+02 -0.32952381061E+01  0.39456867990E+02  0.00000000000E+00 0. -1.
         -5    1    5    5    0  502 -0.21154475179E+02  0.23644542463E+02 -0.30293768295E+02  0.44117781062E+02  0.47000000000E+01 0.  1.
         11    1    6    6    0    0 -0.38618405065E+02  0.21591096061E+02  0.80510062414E+02  0.91866352865E+02  0.00000000000E+00 0. -1.
        -12    1    6    6    0    0  0.21749652716E+02 -0.36011718382E+02  0.57195870093E+02  0.71001822580E+02  0.00000000000E+00 0.  1.
</event>
<event>
12    1  0.1598254E-001  0.2741168E+03  0.7818608E-02  0.1099115E+00
         21   -1    0    0  503  502  0.00000000000E+00  0.00000000000E+00  0.32194610750E+03  0.32194610750E+03  0.00000000000E+00 0.  1.
         21   -1    0    0  501  503 -0.00000000000E+00 -0.00000000000E+00 -0.65010262911E+03  0.65010262911E+03  0.00000000000E+00 0. -1.
          6    2    1    2  501    0  0.52189365346E+02  0.20497830744E+03 -0.55354475053E+03  0.61716868663E+03  0.17246901328E+03 0.  0.
         24    2    3    3    0    0  0.78819279143E+02  0.16946874381E+03 -0.31690098167E+03  0.37635248128E+03  0.79264267437E+02 0.  0.
         -6    2    1    2    0  502 -0.52189365346E+02 -0.20497830744E+03  0.22538822893E+03  0.35488004998E+03  0.17435641589E+03 0.  0.
        -24    2    5    5    0    0 -0.23561042570E+02 -0.22398852343E+03  0.20354986751E+03  0.31389257376E+03  0.79812392187E+02 0.  0.
          5    1    3    3  501    0 -0.26629913797E+02  0.35509563632E+02 -0.23664376886E+03  0.24081620535E+03  0.47000000000E+01 0. -1.
        -11    1    4    4    0    0  0.91299008817E+02  0.11352674871E+03 -0.22545737006E+03  0.26843035856E+03  0.00000000000E+00 0.  1.
         12    1    4    4    0    0 -0.12479729674E+02  0.55941995099E+02 -0.91443611607E+02  0.10792212272E+03  0.00000000000E+00 0. -1.
         -5    1    5    5    0  502 -0.28628322776E+02  0.19010215993E+02  0.21838361421E+02  0.40987476217E+02  0.47000000000E+01 0.  1.
         11    1    6    6    0    0  0.18586609930E+02 -0.12866179958E+03  0.81668753463E+02  0.15352233072E+03  0.00000000000E+00 0. -1.
        -12    1    6    6    0    0 -0.42147652500E+02 -0.95326723855E+02  0.12188111404E+03  0.16037024304E+03  0.00000000000E+00 0.  1.
</event>
<event>
12    1  0.1598254E-001  0.1909564E+03  0.7818608E-02  0.1158045E+00
         21   -1    0    0  503  502  0.00000000000E+00  0.00000000000E+00  0.37049385910E+03  0.37049385910E+03  0.00000000000E+00 0.  1.
         21   -1    0    0  501  503 -0.00000000000E+00 -0.00000000000E+00 -0.13731541993E+03  0.13731541993E+03  0.00000000000E+00 0.  1.
          6    2    1    2  501    0 -0.38018553515E+02 -0.66284105338E+02  0.25303641282E+03  0.31582308955E+03  0.17285197323E+03 0.  0.
         24    2    3    3    0    0 -0.77431678292E+02 -0.89182744861E+02  0.17155484376E+03  0.22234005263E+03  0.77812645505E+02 0.  0.
         -6    2    1    2    0  502  0.38018553515E+02  0.66284105338E+02 -0.19857973647E+02  0.19198618948E+03  0.17500104229E+03 0.  0.
        -24    2    5    5    0    0  0.33581074974E+02 -0.32197823600E+02 -0.12561772144E+02  0.93023034220E+02  0.79568199270E+02 0.  0.
          5    1    3    3  501    0  0.39413124777E+02  0.22898639523E+02  0.81481569053E+02  0.93483036922E+02  0.47000000000E+01 0. -1.
        -11    1    4    4    0    0 -0.24971540985E+02 -0.80845587131E+02  0.12901551739E+03  0.15428736353E+03  0.00000000000E+00 0.  1.
         12    1    4    4    0    0 -0.52460137308E+02 -0.83371577297E+01  0.42539326374E+02  0.68052689099E+02  0.00000000000E+00 0. -1.
         -5    1    5    5    0  502  0.44374785411E+01  0.98481928938E+02 -0.72962015020E+01  0.98963155263E+02  0.47000000000E+01 0.  1.
         13    1    6    6    0    0  0.40985670169E+02 -0.33877748498E+02  0.22067083823E+02  0.57571548450E+02  0.00000000000E+00 0. -1.
        -14    1    6    6    0    0 -0.74045951950E+01  0.16799248981E+01 -0.34628855967E+02  0.35451485769E+02  0.00000000000E+00 0.  1.
</event>
<event>
12    1  0.1598254E-001  0.2239276E+03  0.7818608E-02  0.1131103E+00
         21   -1    0    0  503  502  0.00000000000E+00  0.00000000000E+00  0.53558482551E+03  0.53558482551E+03  0.00000000000E+00 0. -1.
         21   -1    0    0  501  503 -0.00000000000E+00 -0.00000000000E+00 -0.13071262219E+03  0.13071262219E+03  0.00000000000E+00 0. -1.
          6    2    1    2  501    0  0.10367147923E+03 -0.98441966378E+02  0.24142697559E+02  0.22459785669E+03  0.17153055423E+03 0.  0.
         24    2    3    3    0    0 -0.12759627366E+01 -0.18561019320E+02 -0.21714999381E+02  0.84884043316E+02  0.79922588124E+02 0.  0.
         -6    2    1    2    0  502 -0.10367147923E+03  0.98441966378E+02  0.38072950576E+03  0.44169959101E+03  0.17235131503E+03 0.  0.
        -24    2    5    5    0    0 -0.13955360715E+03  0.91232731855E+02  0.29225025812E+03  0.34583423006E+03  0.79952990461E+02 0.  0.
          5    1    3    3  501    0  0.10494744197E+03 -0.79880947058E+02  0.45857696939E+02  0.13971381337E+03  0.47000000000E+01 0. -1.
        -11    1    4    4    0    0 -0.75427530222E+01  0.22563813289E+02  0.16050444692E+02  0.28699051694E+02  0.00000000000E+00 0.  1.
         12    1    4    4    0    0  0.62667902855E+01 -0.41124832609E+02 -0.37765444072E+02  0.56184991622E+02  0.00000000000E+00 0. -1.
         -5    1    5    5    0  502  0.35882127915E+02  0.72092345234E+01  0.88479247646E+02  0.95865360950E+02  0.47000000000E+01 0.  1.
         11    1    6    6    0    0 -0.80963901514E+02  0.46108436802E+02  0.23344365925E+03  0.25135051887E+03  0.00000000000E+00 0. -1.
        -12    1    6    6    0    0 -0.58589705634E+02  0.45124295053E+02  0.58806598870E+02  0.94483711194E+02  0.00000000000E+00 0.  1.
</event>
<event>
12    1  0.1598254E-001  0.1909204E+03  0.7818608E-02  0.1158445E+00
         21   -1    0    0  503  502  0.00000000000E+00  0.00000000000E+00  0.58868060742E+03  0.58868060742E+03  0.00000000000E+00 0. -1.
         21   -1    0    0  501  503 -0.00000000000E+00 -0.00000000000E+00 -0.74415154506E+02  0.74415154506E+02  0.00000000000E+00 0. -1.
          6    2    1    2  501    0  0.71563959634E+02 -0.29699103184E+02  0.11711343447E+03  0.22397801168E+03  0.17449113483E+03 0.  0.
         24    2    3    3    0    0 -0.10852818865E+01 -0.58634601760E+02  0.10505893152E+03  0.14471530662E+03  0.80411109423E+02 0.  0.
         -6    2    1    2    0  502 -0.71563959634E+02  0.29699103184E+02  0.39715201845E+03  0.43911775025E+03  0.17056153077E+03 0.  0.
        -24    2    5    5    0    0 -0.75522275668E+02 -0.39825833042E+02  0.23774533863E+03  0.26510061145E+03  0.80410055679E+02 0.  0.
          5    1    3    3  501    0  0.72649241520E+02  0.28935498575E+02  0.12054502948E+02  0.79262705055E+02  0.47000000000E+01 0. -1.
        -11    1    4    4    0    0 -0.39169207553E+02 -0.16079972568E+02  0.41953845614E+02  0.59606354527E+02  0.00000000000E+00 0.  1.
         12    1    4    4    0    0  0.38083925667E+02 -0.42554629192E+02  0.63105085905E+02  0.85108952096E+02  0.00000000000E+00 0. -1.
         -5    1    5    5    0  502  0.39583160348E+01  0.69524936226E+02  0.15940667982E+03  0.17401713880E+03  0.47000000000E+01 0.  1.
         13    1    6    6    0    0 -0.47821521428E+02 -0.57257679730E+02  0.20762624573E+03  0.22062184325E+03  0.00000000000E+00 0. -1.
        -14    1    6    6    0    0 -0.27700754240E+02  0.17431846689E+02  0.30119092891E+02  0.44478768205E+02  0.00000000000E+00 0.  1.
</event>
<event>
12    1  0.1598254E-001  0.5475406E+03  0.7818608E-02  0.1002141E+00
         21   -1    0    0  501  502  0.00000000000E+00  0.00000000000E+00  0.20748841282E+03  0.20748841282E+03  0.00000000000E+00 0.  1.
         21   -1    0    0  502  503 -0.00000000000E+00 -0.00000000000E+00 -0.15179410612E+04  0.15179410612E+04  0.00000000000E+00 0. -1.
         -6    2    1    2    0  503 -0.51362331431E+03  0.79921882330E+02 -0.84961947427E+03  0.10107689758E+04  0.17205887095E+03 0.  0.
        -24    2    3    3    0    0 -0.48907838188E+03  0.58845790050E+02 -0.83918232747E+03  0.97645164187E+03  0.81057631005E+02 0.  0.
          6    2    1    2  501    0  0.51362331431E+03 -0.79921882330E+02 -0.46083317408E+03  0.71466049821E+03  0.16785707339E+03 0.  0.
         24    2    5    5    0    0  0.29999244988E+03 -0.99450266843E+02 -0.32701859326E+03  0.46178120668E+03  0.80093051846E+02 0.  0.
          5    1    5    5  501    0  0.21363086443E+03  0.19528384512E+02 -0.13381458083E+03  0.25287929152E+03  0.47000000000E+01 0. -1.
        -13    1    6    6    0    0  0.21117464601E+03 -0.81494642793E+02 -0.18051950371E+03  0.28952270920E+03  0.00000000000E+00 0.  1.
         14    1    6    6    0    0  0.88817803864E+02 -0.17955624050E+02 -0.14649908954E+03  0.17225849748E+03  0.00000000000E+00 0. -1.
         -5    1    3    3    0  503 -0.24544932423E+02  0.21076092280E+02 -0.10437146800E+02  0.34317333911E+02  0.47000000000E+01 0.  1.
         11    1    4    4    0    0 -0.41188841236E+03  0.77648669868E+02 -0.68662883807E+03  0.80445045928E+03  0.00000000000E+00 0. -1.
        -12    1    4    4    0    0 -0.77189969527E+02 -0.18802879818E+02 -0.15255348940E+03  0.17200118259E+03  0.00000000000E+00 0.  1.
</event>
<event>
12    1  0.1598254E-001  0.1962651E+03  0.7818608E-02  0.1153030E+00
         21   -1    0    0  503  502  0.00000000000E+00  0.00000000000E+00  0.25360952592E+03  0.25360952592E+03  0.00000000000E+00 0. -1.
         21   -1    0    0  501  503 -0.00000000000E+00 -0.00000000000E+00 -0.22927218236E+03  0.22927218236E+03  0.00000000000E+00 0.  1.
          6    2    1    2  501    0 -0.22246696867E+02  0.91085392070E+02 -0.12843830778E+03  0.23416422042E+03  0.17188664593E+03 0.  0.
         24    2    3    3    0    0 -0.17211278649E+02  0.66515618582E+02 -0.16109562564E+03  0.19272004572E+03  0.80427978927E+02 0.  0.
         -6    2    1    2    0  502  0.22246696867E+02 -0.91085392070E+02  0.15277565134E+03  0.24871748787E+03  0.17241961883E+03 0.  0.
        -24    2    5    5    0    0  0.35366641701E+02 -0.10111810753E+03  0.45147197641E+02  0.13972775267E+03  0.77523573160E+02 0.  0.
          5    1    3    3  501    0 -0.50354182179E+01  0.24569773488E+02  0.32657317865E+02  0.41444174694E+02  0.47000000000E+01 0. -1.
        -11    1    4    4    0    0 -0.31545886520E+01  0.25803295224E+02 -0.14408606935E+03  0.14641228382E+03  0.00000000000E+00 0.  1.
         12    1    4    4    0    0 -0.14056689997E+02  0.40712323358E+02 -0.17009556294E+02  0.46307761901E+02  0.00000000000E+00 0. -1.
         -5    1    5    5    0  502 -0.13119944833E+02  0.10032715461E+02  0.10762845370E+03  0.10898973520E+03  0.47000000000E+01 0.  1.
         13    1    6    6    0    0 -0.70087265961E+01 -0.43453887092E+02  0.51664226860E+02  0.67871605911E+02  0.00000000000E+00 0. -1.
        -14    1    6    6    0    0  0.42375368297E+02 -0.57664220440E+02 -0.65170292193E+01  0.71856146759E+02  0.00000000000E+00 0.  1.
</event>
<event>
12    1  0.1598254E-001  0.2233641E+03  0.7818608E-02  0.1131666E+00
         21   -1    0    0  501  502  0.00000000000E+00  0.00000000000E+00  0.92250960032E+02  0.92250960032E+02  0.00000000000E+00 0.  1.
         21   -1    0    0  502  503 -0.00000000000E+00 -0.00000000000E+00 -0.11347469679E+04  0.11347469679E+04  0.00000000000E+00 0.  1.
         -6    2    1    2    0  503  0.81076348395E+02  0.11514087921E+03 -0.96720802487E+03  0.99266454397E+03  0.17338032514E+03 0.  0.
        -24    2    3    3    0    0  0.77289911473E+01  0.14715711823E+02 -0.58469833560E+03  0.59041984053E+03  0.80294177611E+02 0.  0.
          6    2    1    2  501    0 -0.81076348395E+02 -0.11514087921E+03 -0.75287983000E+02  0.23433338396E+03  0.17150235602E+03 0.  0.
         24    2    5    5    0    0 -0.69501330844E+01 -0.63744293178E+02  0.16913377778E+02  0.10526175354E+03  0.81745551237E+02 0.  0.
          5    1    5    5  501    0 -0.74126215311E+02 -0.51396586033E+02 -0.92201360778E+02  0.12907163043E+03  0.47000000000E+01 0. -1.
        -13    1    6    6    0    0 -0.43873369813E+01 -0.28029469178E+02  0.49365494034E+02  0.56937262574E+02  0.00000000000E+00 0.  1.
         14    1    6    6    0    0 -0.25627961031E+01 -0.35714824000E+02 -0.32452116257E+02  0.48324490962E+02  0.00000000000E+00 0. -1.
         -5    1    3    3    0  503  0.73347357248E+02  0.10042516739E+03 -0.38250968927E+03  0.40224470344E+03  0.47000000000E+01 0.  1.
         11    1    4    4    0    0 -0.18319750742E+02 -0.80641187968E+01 -0.41036528238E+02  0.45657857254E+02  0.00000000000E+00 0. -1.
        -12    1    4    4    0    0  0.26048741890E+02  0.22779830620E+02 -0.54366180736E+03  0.54476198327E+03  0.00000000000E+00 0.  1.
</event>
<event>
12    1  0.1598254E-001  0.2266631E+03  0.7818608E-02  0.1129093E+00
         21   -1    0    0  503  502  0.00000000000E+00  0.00000000000E+00  0.79054041485E+02  0.79054041485E+02  0.00000000000E+00 0. -1.
         21   -1    0    0  501  503 -0.00000000000E+00 -0.00000000000E+00 -0.95216308630E+03  0.95216308630E+03  0.00000000000E+00 0. -1.
          6    2    1    2  501    0  0.86005116881E+00 -0.14690172427E+03 -0.72799618939E+03  0.76246612596E+03  0.17261310840E+03 0.  0.
         24    2    3    3    0    0 -0.54495512308E+02 -0.36386523006E+02 -0.33479705862E+03  0.35027018402E+03  0.79412791366E+02 0.  0.
         -6    2    1    2    0  502 -0.86005116881E+00  0.14690172427E+03 -0.14511285542E+03  0.26875100182E+03  0.17201309220E+03 0.  0.
        -24    2    5    5    0    0  0.14685592171E+02  0.11435821018E+03 -0.25096021220E+02  0.14334415261E+03  0.81389612080E+02 0.  0.
          5    1    3    3  501    0  0.55355563477E+02 -0.11051520126E+03 -0.39319913077E+03  0.41219594194E+03  0.47000000000E+01 0. -1.
        -11    1    4    4    0    0 -0.53607545376E+02 -0.14773646262E+02 -0.99522379917E+02  0.11400321772E+03  0.00000000000E+00 0.  1.
         12    1    4    4    0    0 -0.88796693161E+00 -0.21612876744E+02 -0.23527467870E+03  0.23626696630E+03  0.00000000000E+00 0. -1.
         -5    1    5    5    0  502 -0.15545643340E+02  0.32543514086E+02 -0.12001683420E+03  0.12540684921E+03  0.47000000000E+01 0.  1.
         11    1    6    6    0    0  0.23492730826E+02 -0.15371730708E+01  0.30926084834E+01  0.23745221202E+02  0.00000000000E+00 0. -1.
        -12    1    6    6    0    0 -0.88071386553E+01  0.11589538325E+03 -0.28188629704E+02  0.11959893141E+03  0.00000000000E+00 0.  1.
</event>
<event>
12    1  0.1598254E-001  0.2666439E+03  0.7818608E-02  0.1104590E+00
         21   -1    0    0  501  502  0.00000000000E+00  0.00000000000E+00  0.16422549582E+04  0.16422549582E+04  0.00000000000E+00 0.  1.
         21   -1    0    0  502  503 -0.00000000000E+00 -0.00000000000E+00 -0.45813358309E+02  0.45813358309E+02  0.00000000000E+00 0.  1.
         -6    2    1    2    0  503 -0.13674687069E+03  0.13303588402E+03  0.56137090918E+03  0.62147908715E+03  0.18628125243E+03 0.  0.
        -24    2    3    3    0    0 -0.22315453466E+02  0.86049798390E+02  0.40340538464E+03  0.42078668960E+03  0.80143536992E+02 0.  0.
          6    2    1    2  501    0  0.13674687069E+03 -0.13303588402E+03  0.10350706907E+04  0.10665892294E+04  0.17275125568E+03 0.  0.
         24    2    5    5    0    0  0.15557487622E+03 -0.14709357359E+03  0.85608083262E+03  0.88600248641E+03  0.79283998700E+02 0.  0.
          5    1    5    5  501    0 -0.18828005537E+02  0.14057689566E+02  0.17898985809E+03  0.18058674294E+03  0.47000000000E+01 0. -1.
        -11    1    6    6    0    0  0.81558586622E+02 -0.51280898189E+02  0.51832636636E+03  0.52720371360E+03  0.00000000000E+00 0.  1.
         12    1    6    6    0    0  0.74016289602E+02 -0.95812675400E+02  0.33775446626E+03  0.35879877281E+03  0.00000000000E+00 0. -1.
         -5    1    3    3    0  503 -0.11443141722E+03  0.46986085633E+02  0.15796552454E+03  0.20069239755E+03  0.47000000000E+01 0.  1.
         13    1    4    4    0    0  0.50076707905E+01  0.27276954499E+01  0.18976822310E+03  0.18985387957E+03  0.00000000000E+00 0. -1.
        -14    1    4    4    0    0 -0.27323124257E+02  0.83322102940E+02  0.21363716154E+03  0.23093281003E+03  0.00000000000E+00 0.  1.
</event>
<event>
12    1  0.1598254E-001  0.1739895E+03  0.7818608E-02  0.1174131E+00
         21   -1    0    0  501  502  0.00000000000E+00  0.00000000000E+00  0.74009107751E+02  0.74009107751E+02  0.00000000000E+00 0. -1.
         21   -1    0    0  502  503 -0.00000000000E+00 -0.00000000000E+00 -0.41319736243E+03  0.41319736243E+03  0.00000000000E+00 0. -1.
         -6    2    1    2    0  503  0.20733494387E+02 -0.10763060448E+02 -0.13566262566E+03  0.21944718064E+03  0.17090054368E+03 0.  0.
        -24    2    3    3    0    0 -0.26304087029E+02  0.46907219576E+02 -0.93951976753E+02  0.13400560121E+03  0.78983130961E+02 0.  0.
          6    2    1    2  501    0 -0.20733494387E+02  0.10763060448E+02 -0.20352562901E+03  0.26775928954E+03  0.17241413576E+03 0.  0.
         24    2    5    5    0    0 -0.14768348835E+02 -0.43149288836E+02 -0.19136748248E+03  0.21197367407E+03  0.78938963072E+02 0.  0.
          5    1    5    5  501    0 -0.59651455519E+01  0.53912349283E+02 -0.12158146533E+02  0.55785615474E+02  0.47000000000E+01 0. -1.
        -13    1    6    6    0    0 -0.40523941338E+02 -0.49675415409E+02 -0.12488150628E+03  0.14037530882E+03  0.00000000000E+00 0.  1.
         14    1    6    6    0    0  0.25755592503E+02  0.65261265727E+01 -0.66485976205E+02  0.71598365241E+02  0.00000000000E+00 0. -1.
         -5    1    3    3    0  503  0.47037581416E+02 -0.57670280024E+02 -0.41710648908E+02  0.85441579432E+02  0.47000000000E+01 0.  1.
         11    1    4    4    0    0 -0.46688189516E+02  0.37433309885E+02 -0.94112738427E+02  0.11152689032E+03  0.00000000000E+00 0. -1.
        -12    1    4    4    0    0  0.20384102487E+02  0.94739096915E+01  0.16076167443E+00  0.22478710892E+02  0.00000000000E+00 0.  1.
</event>
<event>
12    1  0.1598254E-001  0.1783216E+03  0.7818608E-02  0.1169814E+00
         21   -1    0    0  503  502  0.00000000000E+00  0.00000000000E+00  0.37063636504E+03  0.37063636504E+03  0.00000000000E+00 0. -1.
         21   -1    0    0  501  503 -0.00000000000E+00 -0.00000000000E+00 -0.12899436190E+03  0.12899436190E+03  0.00000000000E+00 0. -1.
          6    2    1    2  501    0  0.81006956165E+01 -0.44562655653E+02 -0.24626932366E+02  0.18001408085E+03  0.17247356887E+03 0.  0.
         24    2    3    3    0    0  0.70847534813E+02 -0.45400288159E+02 -0.18185475078E+02  0.11675706678E+03  0.78872947100E+02 0.  0.
         -6    2    1    2    0  502 -0.81006956165E+01  0.44562655653E+02  0.26626893550E+03  0.31961664609E+03  0.17089237227E+03 0.  0.
        -24    2    5    5    0    0 -0.37008347408E+02  0.30894384191E+02  0.27079510622E+03  0.28698153926E+03  0.81879994914E+02 0.  0.
          5    1    3    3  501    0 -0.62746839196E+02  0.83763250601E+00 -0.64414572887E+01  0.63257014072E+02  0.47000000000E+01 0. -1.
        -13    1    4    4    0    0 -0.11327078476E+02  0.10783970494E+02 -0.45068669557E+01  0.16276012294E+02  0.00000000000E+00 0.  1.
         14    1    4    4    0    0  0.82174613289E+02 -0.56184258653E+02 -0.13678608122E+02  0.10048105448E+03  0.00000000000E+00 0. -1.
         -5    1    5    5    0  502  0.28907651792E+02  0.13668271462E+02 -0.45261707240E+01  0.32635106837E+02  0.47000000000E+01 0.  1.
         11    1    6    6    0    0 -0.72699866345E+01 -0.43731630154E+01  0.21236905720E+03  0.21253845233E+03  0.00000000000E+00 0. -1.
        -12    1    6    6    0    0 -0.29738360774E+02  0.35267547207E+02  0.58426049023E+02  0.74443086932E+02  0.00000000000E+00 0.  1.
</event>
<event>
12    1  0.1598254E-001  0.1770697E+03  0.7818608E-02  0.1170800E+00
         21   -1    0    0  501  502  0.00000000000E+00  0.00000000000E+00  0.15414588490E+03  0.15414588490E+03  0.00000000000E+00 0.  1.
         21   -1    0    0  502  503 -0.00000000000E+00 -0.00000000000E+00 -0.21377876479E+03  0.21377876479E+03  0.00000000000E+00 0.  1.
         -6    2    1    2    0  503 -0.42445158198E+02  0.12656344568E+02 -0.71471448394E+02  0.19045968107E+03  0.17089455130E+03 0.  0.
        -24    2    3    3    0    0  0.97774095549E+01  0.49531613276E+02 -0.29372522718E+00  0.94671684430E+02  0.80085348891E+02 0.  0.
          6    2    1    2  501    0  0.42445158198E+02 -0.12656344568E+02  0.11838568503E+02  0.17746496862E+03  0.17144062783E+03 0.  0.
         24    2    5    5    0    0 -0.94248175764E+01  0.49704789769E+02 -0.46917976552E+01  0.94550865672E+02  0.79739951855E+02 0.  0.
          5    1    5    5  501    0  0.51869975774E+02 -0.62361134337E+02  0.16530366158E+02  0.82914102950E+02  0.47000000000E+01 0. -1.
        -13    1    6    6    0    0  0.31147157827E+02  0.27951407319E+01 -0.85190630386E+01  0.32411921996E+02  0.00000000000E+00 0.  1.
         14    1    6    6    0    0 -0.40571975403E+02  0.46909649037E+02  0.38272653834E+01  0.62138943676E+02  0.00000000000E+00 0. -1.
         -5    1    3    3    0  503 -0.52222567753E+02 -0.36875268707E+02 -0.71177723166E+02  0.95787996639E+02  0.47000000000E+01 0.  1.
         13    1    4    4    0    0  0.35327268451E+02 -0.35726070027E+01 -0.33253953375E+01  0.35662833190E+02  0.00000000000E+00 0. -1.
        -14    1    4    4    0    0 -0.25549858896E+02  0.53104220278E+02  0.30316701103E+01  0.59008851240E+02  0.00000000000E+00 0.  1.
</event>
<event>
12    1  0.1598254E-001  0.3863710E+03  0.7818608E-02  0.1048607E+00
         21   -1    0    0  501  502  0.00000000000E+00  0.00000000000E+00  0.50435414590E+03  0.50435414590E+03  0.00000000000E+00 0.  1.
         21   -1    0    0  502  503 -0.00000000000E+00 -0.00000000000E+00 -0.59874589908E+03  0.59874589908E+03  0.00000000000E+00 0.  1.
         -6    2    1    2    0  503 -0.11895529039E+03  0.32503151763E+03 -0.43941505553E+03  0.58510041330E+03  0.17164222691E+03 0.  0.
        -24    2    3    3    0    0 -0.55517920081E+01  0.66789695024E+02 -0.11379216968E+03  0.15428543425E+03  0.79772498930E+02 0.  0.
          6    2    1    2  501    0  0.11895529039E+03 -0.32503151763E+03  0.34502330235E+03  0.51799963168E+03  0.17171689110E+03 0.  0.
         24    2    5    5    0    0  0.45345582436E+01 -0.20591019903E+03  0.18145616125E+03  0.28549524002E+03  0.78495995677E+02 0.  0.
          5    1    5    5  501    0  0.11442073215E+03 -0.11912131859E+03  0.16356714111E+03  0.23250439165E+03  0.47000000000E+01 0. -1.
        -13    1    6    6    0    0  0.18727984646E+02 -0.49343818100E+02  0.87977570439E+02  0.10259435995E+03  0.00000000000E+00 0.  1.
         14    1    6    6    0    0 -0.14193426402E+02 -0.15656638093E+03  0.93478590807E+02  0.18290088007E+03  0.00000000000E+00 0. -1.
         -5    1    3    3    0  503 -0.11340349839E+03  0.25824182260E+03 -0.32562288586E+03  0.43081497906E+03  0.47000000000E+01 0.  1.
         11    1    4    4    0    0 -0.26889949636E+02 -0.66530841746E+01 -0.29396058973E+02  0.40391350603E+02  0.00000000000E+00 0. -1.
        -12    1    4    4    0    0  0.21338157628E+02  0.73442779198E+02 -0.84396110702E+02  0.11389408364E+03  0.00000000000E+00 0.  1.
</event>
<event>
12    1  0.1598254E-001  0.1983757E+03  0.7818608E-02  0.1151348E+00
         21   -1    0    0  503  502  0.00000000000E+00  0.00000000000E+00  0.88341161662E+03  0.88341161662E+03  0.00000000000E+00 0. -1.
         21   -1    0    0  501  503 -0.00000000000E+00 -0.00000000000E+00 -0.73883796074E+02  0.73883796074E+02  0.00000000000E+00 0. -1.
          6    2    1    2  501    0  0.18090778057E+02  0.94721276677E+02  0.70695912673E+03  0.73397223458E+03  0.17211809248E+03 0.  0.
         24    2    3    3    0    0 -0.14503338386E+02  0.38353929862E+02  0.16596980046E+03  0.18905830069E+03  0.80719858977E+02 0.  0.
         -6    2    1    2    0  502 -0.18090778057E+02 -0.94721276677E+02  0.10256869382E+03  0.22332317812E+03  0.17335947746E+03 0.  0.
        -24    2    5    5    0    0  0.33070993736E+02 -0.37243035126E+02  0.11211562672E+03  0.14564107546E+03  0.78489966339E+02 0.  0.
          5    1    3    3  501    0  0.32594116443E+02  0.56367346815E+02  0.54098932627E+03  0.54491393390E+03  0.47000000000E+01 0. -1.
        -13    1    4    4    0    0 -0.73179822711E+00 -0.24136076285E+02  0.28015904747E+02  0.36986168034E+02  0.00000000000E+00 0.  1.
         14    1    4    4    0    0 -0.13771540158E+02  0.62490006147E+02  0.13795389572E+03  0.15207213265E+03  0.00000000000E+00 0. -1.
         -5    1    5    5    0  502 -0.51161771793E+02 -0.57478241551E+02 -0.95469328984E+01  0.77682102653E+02  0.47000000000E+01 0.  1.
         11    1    6    6    0    0  0.49564143780E+02 -0.51197594785E+02  0.83172746609E+02  0.10952398750E+03  0.00000000000E+00 0. -1.
        -12    1    6    6    0    0 -0.16493150044E+02  0.13954559659E+02  0.28942880106E+02  0.36117087957E+02  0.00000000000E+00 0.  1.
</event>
<event>
12    1  0.1598254E-001  0.2364649E+03  0.7818608E-02  0.1123580E+00
         21   -1    0    0  503  502  0.00000000000E+00  0.00000000000E+00  0.81806008763E+03  0.81806008763E+03  0.00000000000E+00 0.  1.
         21   -1    0    0  501  503 -0.00000000000E+00 -0.00000000000E+00 -0.10029744512E+03  0.10029744512E+03  0.00000000000E+00 0.  1.
          6    2    1    2  501    0 -0.15170030649E+03 -0.55908229678E+02  0.94600979209E+02  0.25468609874E+03  0.17255999099E+03 0.  0.
         24    2    3    3    0    0 -0.14416739437E+03 -0.53505207375E+02  0.14213414850E+02  0.17377398726E+03  0.79676424814E+02 0.  0.
         -6    2    1    2    0  502  0.15170030649E+03  0.55908229678E+02  0.62316166330E+03  0.66367143401E+03  0.16121600597E+03 0.  0.
        -24    2    5    5    0    0  0.76486732472E+02  0.89502594720E+02  0.44971307979E+03  0.47159810374E+03  0.79385027633E+02 0.  0.
          5    1    3    3  501    0 -0.75329121249E+01 -0.24030223022E+01  0.80387564358E+02  0.80912111483E+02  0.47000000000E+01 0. -1.
        -11    1    4    4    0    0 -0.66232807001E+02 -0.24244806063E+02  0.46506434530E+02  0.84483393617E+02  0.00000000000E+00 0.  1.
         12    1    4    4    0    0 -0.77934587368E+02 -0.29260401312E+02 -0.32293019680E+02  0.89290593643E+02  0.00000000000E+00 0. -1.
         -5    1    5    5    0  502  0.75213574022E+02 -0.33594365042E+02  0.17344858351E+03  0.19207333027E+03  0.47000000000E+01 0.  1.
         13    1    6    6    0    0  0.17028111812E+02 -0.14338386003E+02  0.76330778772E+02  0.79510588559E+02  0.00000000000E+00 0. -1.
        -14    1    6    6    0    0  0.59458620659E+02  0.10384098072E+03  0.37338230102E+03  0.39208751518E+03  0.00000000000E+00 0.  1.
</event>
<event>
12    1  0.1598254E-001  0.2049113E+03  0.7818608E-02  0.1146582E+00
         21   -1    0    0  501  502  0.00000000000E+00  0.00000000000E+00  0.59766233944E+02  0.59766233944E+02  0.00000000000E+00 0. -1.
         21   -1    0    0  502  503 -0.00000000000E+00 -0.00000000000E+00 -0.13996941347E+04  0.13996941347E+04  0.00000000000E+00 0. -1.
         -6    2    1    2    0  503  0.34783495277E+02  0.98568711774E+02 -0.11941526822E+04  0.12116060716E+04  0.17624687769E+03 0.  0.
        -24    2    3    3    0    0  0.57393698534E+02  0.20707683299E+02 -0.36552229040E+03  0.37900534062E+03  0.79471118400E+02 0.  0.
          6    2    1    2  501    0 -0.34783495277E+02 -0.98568711774E+02 -0.14577521857E+03  0.24785429704E+03  0.17104284763E+03 0.  0.
         24    2    5    5    0    0  0.34627100972E+02 -0.76060307424E+02 -0.48228371513E+02  0.12594475472E+03  0.80943801091E+02 0.  0.
          5    1    5    5  501    0 -0.69410596249E+02 -0.22508404350E+02 -0.97546847056E+02  0.12190954232E+03  0.47000000000E+01 0. -1.
        -11    1    6    6    0    0  0.52901785885E+02 -0.27015592448E+02 -0.80102412068E+01  0.59938344567E+02  0.00000000000E+00 0.  1.
         12    1    6    6    0    0 -0.18274684914E+02 -0.49044714976E+02 -0.40218130307E+02  0.66006410152E+02  0.00000000000E+00 0. -1.
         -5    1    3    3    0  503 -0.22610203257E+02  0.77861028475E+02 -0.82863039182E+03  0.83260073102E+03  0.47000000000E+01 0.  1.
         13    1    4    4    0    0  0.14332716338E+02  0.11345147128E+02 -0.29683588236E+03  0.29739818456E+03  0.00000000000E+00 0. -1.
        -14    1    4    4    0    0  0.43060982196E+02  0.93625361715E+01 -0.68686408039E+02  0.81607156062E+02  0.00000000000E+00 0.  1.
</event>
<event>
12    1  0.1598254E-001  0.1951080E+03  0.7818608E-02  0.1154178E+00
         21   -1    0    0  501  502  0.00000000000E+00  0.00000000000E+00  0.64089407444E+03  0.64089407444E+03  0.00000000000E+00 0. -1.
         21   -1    0    0  502  503 -0.00000000000E+00 -0.00000000000E+00 -0.60660077206E+02  0.60660077206E+02  0.00000000000E+00 0. -1.
         -6    2    1    2    0  503 -0.77893147602E+02  0.48041616502E+02  0.23225694711E+03  0.30261160115E+03  0.17104137602E+03 0.  0.
        -24    2    3    3    0    0 -0.39530541518E+02  0.76273655343E+02  0.22587628354E+03  0.25432557387E+03  0.79253188265E+02 0.  0.
          6    2    1    2  501    0  0.77893147602E+02 -0.48041616502E+02  0.34797705012E+03  0.39894255049E+03  0.17231306341E+03 0.  0.
         24    2    5    5    0    0  0.11173366949E+03 -0.14749537885E+01  0.24833628888E+03  0.28377308276E+03  0.79810160615E+02 0.  0.
          5    1    5    5  501    0 -0.33840521883E+02 -0.46566662714E+02  0.99640761238E+02  0.11516946773E+03  0.47000000000E+01 0. -1.
        -11    1    6    6    0    0 -0.86946755498E+01  0.10248083378E+02  0.10977080579E+02  0.17352720071E+02  0.00000000000E+00 0.  1.
         12    1    6    6    0    0  0.12042834503E+03 -0.11723037166E+02  0.23735920830E+03  0.26642036269E+03  0.00000000000E+00 0. -1.
         -5    1    3    3    0  503 -0.38362606084E+02 -0.28232038841E+02  0.63806635749E+01  0.48286027278E+02  0.47000000000E+01 0.  1.
         11    1    4    4    0    0  0.16954697568E+02  0.11061638314E+02  0.11597374662E+02  0.23330681749E+02  0.00000000000E+00 0. -1.
        -12    1    4    4    0    0 -0.56485239087E+02  0.65212017029E+02  0.21427890887E+03  0.23099489213E+03  0.00000000000E+00 0.  1.
</event>
<event>
12    1  0.1598254E-001  0.3730569E+03  0.7818608E-02  0.1053687E+00
         21   -1    0    0  501  502  0.00000000000E+00  0.00000000000E+00  0.20675305731E+03  0.20675305731E+03  0.00000000000E+00 0.  1.
         21   -1    0    0  502  503 -0.00000000000E+00 -0.00000000000E+00 -0.67081225832E+03  0.67081225832E+03  0.00000000000E+00 0. -1.
         -6    2    1    2    0  503 -0.25689055577E+03  0.20860923416E+03 -0.24529456331E+03  0.44509635151E+03  0.16861426131E+03 0.  0.
        -24    2    3    3    0    0 -0.19188178351E+03  0.20846611537E+03 -0.15092010577E+03  0.33040202214E+03  0.78178499650E+02 0.  0.
          6    2    1    2  501    0  0.25689055577E+03 -0.20860923416E+03 -0.21876463770E+03  0.43246896412E+03  0.17222330854E+03 0.  0.
         24    2    5    5    0    0  0.16464977765E+03 -0.55600393805E+02 -0.86859837828E+02  0.21034054945E+03  0.80607457758E+02 0.  0.
          5    1    5    5  501    0  0.92240778117E+02 -0.15300884035E+03 -0.13190479987E+03  0.22212841467E+03  0.47000000000E+01 0. -1.
        -11    1    6    6    0    0  0.16565500150E+03 -0.66804299742E+02 -0.87841196884E+02  0.19904891322E+03  0.00000000000E+00 0.  1.
         12    1    6    6    0    0 -0.10052238473E+01  0.11203905937E+02  0.98135905612E+00  0.11291636233E+02  0.00000000000E+00 0. -1.
         -5    1    3    3    0  503 -0.65008772251E+02  0.14311878939E+00 -0.94374457545E+02  0.11469432937E+03  0.47000000000E+01 0.  1.
         11    1    4    4    0    0  0.60421771277E+01  0.18095972654E+02 -0.67175256651E+01  0.20226153411E+02  0.00000000000E+00 0. -1.
        -12    1    4    4    0    0 -0.19792396064E+03  0.19037014271E+03 -0.14420258010E+03  0.31017586873E+03  0.00000000000E+00 0.  1.
</event>
<event>
12    1  0.1598254E-001  0.1872422E+03  0.7818608E-02  0.1161097E+00
         21   -1    0    0  501  502  0.00000000000E+00  0.00000000000E+00  0.17011224634E+03  0.17011224634E+03  0.00000000000E+00 0. -1.
         21   -1    0    0  502  503 -0.00000000000E+00 -0.00000000000E+00 -0.20817141780E+03  0.20817141780E+03  0.00000000000E+00 0. -1.
         -6    2    1    2    0  503 -0.21303823802E+02  0.69840142969E+02  0.23594312009E+01  0.18725705545E+03  0.17241850081E+03 0.  0.
        -24    2    3    3    0    0 -0.15300137352E+02  0.71650109607E+02 -0.57374704649E+02  0.12701108284E+03  0.86441460075E+02 0.  0.
          6    2    1    2  501    0  0.21303823802E+02 -0.69840142969E+02 -0.40418602659E+02  0.19102660869E+03  0.17183132225E+03 0.  0.
         24    2    5    5    0    0  0.68301376194E+02 -0.15641235136E+02  0.38552271658E+01  0.10659584683E+03  0.80237681657E+02 0.  0.
          5    1    5    5  501    0 -0.46997552392E+02 -0.54198907833E+02 -0.44273829825E+02  0.84430761861E+02  0.47000000000E+01 0. -1.
        -13    1    6    6    0    0  0.59214376802E+02 -0.45906178185E+02  0.24397627075E+01  0.74964471970E+02  0.00000000000E+00 0.  1.
         14    1    6    6    0    0  0.90869993919E+01  0.30264943049E+02  0.14154644582E+01  0.31631374857E+02  0.00000000000E+00 0. -1.
         -5    1    3    3    0  503 -0.60036864493E+01 -0.18099666384E+01  0.59734135850E+02  0.60245972612E+02  0.47000000000E+01 0.  1.
         13    1    4    4    0    0  0.23018099691E+02  0.18919574426E+02  0.11724056532E+02  0.32019317785E+02  0.00000000000E+00 0. -1.
        -14    1    4    4    0    0 -0.38318237044E+02  0.52730535181E+02 -0.69098761181E+02  0.94991765051E+02  0.00000000000E+00 0.  1.
</event>
<event>
12    1  0.1598254E-001  0.1830746E+03  0.7818608E-02  0.1165391E+00
         21   -1    0    0  503  502  0.00000000000E+00  0.00000000000E+00  0.15371147896E+03  0.15371147896E+03  0.00000000000E+00 0.  1.
         21   -1    0    0  501  503 -0.00000000000E+00 -0.00000000000E+00 -0.99179937713E+03  0.99179937713E+03  0.00000000000E+00 0.  1.
          6    2    1    2  501    0  0.37024692221E+02 -0.48151625770E+02 -0.92635722123E+03  0.94427432942E+03  0.17270466404E+03 0.  0.
         24    2    3    3    0    0  0.29222369389E+01 -0.84907038619E+02 -0.44546857770E+03  0.46075606161E+03  0.81462567588E+02 0.  0.
         -6    2    1    2    0  502 -0.37024692221E+02  0.48151625770E+02  0.88269323069E+02  0.20123652667E+03  0.17033866082E+03 0.  0.
        -24    2    5    5    0    0 -0.55646282583E+02  0.36249204343E+02 -0.59973944217E+01  0.10429976744E+03  0.80199496050E+02 0.  0.
          5    1    3    3  501    0  0.34102455282E+02  0.36755412849E+02 -0.48088864353E+03  0.48351826781E+03  0.47000000000E+01 0. -1.
        -11    1    4    4    0    0 -0.19989735691E+01 -0.83351013559E+02 -0.44750642780E+03  0.45520697521E+03  0.00000000000E+00 0.  1.
         12    1    4    4    0    0  0.49212105079E+01 -0.15560250601E+01  0.20378501015E+01  0.55490864011E+01  0.00000000000E+00 0. -1.
         -5    1    5    5    0  502  0.18621590362E+02  0.11902421427E+02  0.94266717491E+02  0.96936759230E+02  0.47000000000E+01 0.  1.
         11    1    6    6    0    0 -0.90769438337E+01  0.11488006314E+02 -0.39289197550E+02  0.41928585029E+02  0.00000000000E+00 0. -1.
        -12    1    6    6    0    0 -0.46569338749E+02  0.24761198029E+02  0.33291803128E+02  0.62371182407E+02  0.00000000000E+00 0.  1.
</event>
<event>
12    1  0.1598254E-001  0.2459169E+03  0.7818608E-02  0.1116221E+00
         21   -1    0    0  503  502  0.00000000000E+00  0.00000000000E+00  0.95436531679E+03  0.95436531679E+03  0.00000000000E+00 0.  1.
         21   -1    0    0  501  503 -0.00000000000E+00 -0.00000000000E+00 -0.21095480135E+03  0.21095480135E+03  0.00000000000E+00 0. -1.
          6    2    1    2  501    0  0.14384442122E+03  0.97632393709E+02 -0.11602651835E+03  0.27191409130E+03  0.17393049838E+03 0.  0.
         24    2    3    3    0    0  0.77284380338E+02  0.72434295535E+02  0.27784120554E+01  0.13334322609E+03  0.80951181324E+02 0.  0.
         -6    2    1    2    0  502 -0.14384442122E+03 -0.97632393709E+02  0.85943703380E+03  0.89340602684E+03  0.17122795310E+03 0.  0.
        -24    2    5    5    0    0 -0.55356315764E+01 -0.36738895393E+02  0.39176467140E+03  0.40190132903E+03  0.81637802901E+02 0.  0.
          5    1    3    3  501    0  0.66560040878E+02  0.25198098174E+02 -0.11880493041E+03  0.13857086520E+03  0.47000000000E+01 0. -1.
        -13    1    4    4    0    0  0.59498682286E+02  0.30410083731E+01  0.13008900058E+02  0.60980098446E+02  0.00000000000E+00 0.  1.
         14    1    4    4    0    0  0.17785698052E+02  0.69393287162E+02 -0.10230488002E+02  0.72363127649E+02  0.00000000000E+00 0. -1.
         -5    1    5    5    0  502 -0.13830878964E+03 -0.60893498317E+02  0.46767236239E+03  0.49150469781E+03  0.47000000000E+01 0.  1.
         13    1    6    6    0    0 -0.15230686307E+02 -0.54770024427E+01  0.34172305802E+03  0.34210615274E+03  0.00000000000E+00 0. -1.
        -14    1    6    6    0    0  0.96950547309E+01 -0.31261892950E+02  0.50041613385E+02  0.59795176287E+02  0.00000000000E+00 0.  1.
</event>
<event>
12    1  0.1598254E-001  0.1912135E+03  0.7818608E-02  0.1159026E+00
         21   -1    0    0  503  502  0.00000000000E+00  0.00000000000E+00  0.12384648981E+04  0.12384648981E+04  0.00000000000E+00 0.  1.
         21   -1    0    0  501  503 -0.00000000000E+00 -0.00000000000E+00 -0.38742845613E+02  0.38742845613E+02  0.00000000000E+00 0.  1.
          6    2    1    2  501    0 -0.64103200848E+02  0.52712311926E+02  0.27867599022E+03  0.33796882736E+03  0.17226378770E+03 0.  0.
         24    2    3    3    0    0 -0.39966987734E+02 -0.24565389517E+02  0.20995651417E+03  0.23167274882E+03  0.85963400539E+02 0.  0.
         -6    2    1    2    0  502  0.64103200848E+02 -0.52712311926E+02  0.92104606230E+03  0.93923891639E+03  0.16418308377E+03 0.  0.
        -24    2    5    5    0    0 -0.21052323535E+02 -0.52051652157E+02  0.52615614084E+03  0.53524381756E+03  0.80579680315E+02 0.  0.
          5    1    3    3  501    0 -0.24136213114E+02  0.77277701443E+02  0.68719476056E+02  0.10629607854E+03  0.47000000000E+01 0. -1.
        -11    1    4    4    0    0 -0.23892045250E+02 -0.14017720806E+02  0.80412907232E+01  0.28844213966E+02  0.00000000000E+00 0.  1.
         12    1    4    4    0    0 -0.16074942484E+02 -0.10547668711E+02  0.20191522344E+03  0.20282853485E+03  0.00000000000E+00 0. -1.
         -5    1    5    5    0  502  0.85155524384E+02 -0.66065976974E+00  0.39488992146E+03  0.40399509883E+03  0.47000000000E+01 0.  1.
         13    1    6    6    0    0 -0.40172090840E+02 -0.35788099833E+01  0.14363299120E+03  0.14918793827E+03  0.00000000000E+00 0. -1.
        -14    1    6    6    0    0  0.19119767305E+02 -0.48472842173E+02  0.38252314963E+03  0.38605587929E+03  0.00000000000E+00 0.  1.
</event>
<event>
12    1  0.1598254E-001  0.2006387E+03  0.7818608E-02  0.1149232E+00
         21   -1    0    0  501  502  0.00000000000E+00  0.00000000000E+00  0.41056019502E+03  0.41056019502E+03  0.00000000000E+00 0. -1.
         21   -1    0    0  502  503 -0.00000000000E+00 -0.00000000000E+00 -0.37527818529E+03  0.37527818529E+03  0.00000000000E+00 0. -1.
         -6    2    1    2    0  503  0.92904142446E+02 -0.46682049918E+02 -0.32011144027E+03  0.37779256405E+03  0.17159689330E+03 0.  0.
        -24    2    3    3    0    0  0.39211675823E+02 -0.81932140786E+02 -0.27094976781E+03  0.29677151791E+03  0.80057016880E+02 0.  0.
          6    2    1    2  501    0 -0.92904142446E+02  0.46682049918E+02  0.35539345000E+03  0.40804581626E+03  0.17142488267E+03 0.  0.
         24    2    5    5    0    0 -0.33201357822E+02  0.13114303847E+02  0.19266792477E+02  0.64979589470E+02  0.50762413543E+02 0.  0.
          5    1    5    5  501    0 -0.59702784624E+02  0.33567746071E+02  0.33612665752E+03  0.34306622679E+03  0.47000000000E+01 0. -1.
        -13    1    6    6    0    0 -0.10607497838E+02  0.26071049848E+02 -0.59041202141E+01  0.28758951408E+02  0.00000000000E+00 0.  1.
         14    1    6    6    0    0 -0.22593859985E+02 -0.12956746001E+02  0.25170912691E+02  0.36220638062E+02  0.00000000000E+00 0. -1.
         -5    1    3    3    0  503  0.53692466623E+02  0.35250090868E+02 -0.49161672457E+02  0.81021046136E+02  0.47000000000E+01 0.  1.
         11    1    4    4    0    0  0.55977573599E+02 -0.63858472660E+02 -0.25125509756E+03  0.26521786766E+03  0.00000000000E+00 0. -1.
        -12    1    4    4    0    0 -0.16765897775E+02 -0.18073668127E+02 -0.19694670247E+02  0.31553650247E+02  0.00000000000E+00 0.  1.
</event>
<event>
12    1  0.1598254E-001  0.1978654E+03  0.7818608E-02  0.1152240E+00
         21   -1    0    0  503  502  0.00000000000E+00  0.00000000000E+00  0.25156083461E+03  0.25156083461E+03  0.00000000000E+00 0. -1.
         21   -1    0    0  501  503 -0.00000000000E+00 -0.00000000000E+00 -0.22552175247E+03  0.22552175247E+03  0.00000000000E+00 0. -1.
          6    2    1    2  501    0  0.64391136082E+02  0.68296748452E+02 -0.12205096982E+03  0.23248045543E+03  0.17418397937E+03 0.  0.
         24    2    3    3    0    0 -0.28671731208E+02  0.47808330180E+01 -0.46978765339E+02  0.97007599598E+02  0.79740488161E+02 0.  0.
         -6    2    1    2    0  502 -0.64391136082E+02 -0.68296748452E+02  0.14809005197E+03  0.24460213164E+03  0.17055461019E+03 0.  0.
        -24    2    5    5    0    0  0.45633746835E+01 -0.71579579058E+02  0.35778485623E+02  0.11268746427E+03  0.79207979677E+02 0.  0.
          5    1    3    3  501    0  0.93062867290E+02  0.63515915434E+02 -0.75072204485E+02  0.13547285583E+03  0.47000000000E+01 0. -1.
        -11    1    4    4    0    0  0.64834935207E+01 -0.30106513775E+02 -0.33038949650E+01  0.30973433485E+02  0.00000000000E+00 0.  1.
         12    1    4    4    0    0 -0.35155224729E+02  0.34887346793E+02 -0.43674870374E+02  0.66034166113E+02  0.00000000000E+00 0. -1.
         -5    1    5    5    0  502 -0.68954510765E+02  0.32828306060E+01  0.11231156634E+03  0.13191466736E+03  0.47000000000E+01 0.  1.
         11    1    6    6    0    0 -0.19920341398E+02  0.93566842916E+01  0.10808910153E+02  0.24519381742E+02  0.00000000000E+00 0. -1.
        -12    1    6    6    0    0  0.24483716081E+02 -0.80936263350E+02  0.24969575470E+02  0.88168082532E+02  0.00000000000E+00 0.  1.
</event>
<event>
12    1  0.1598254E-001  0.3328087E+03  0.7818608E-02  0.1069957E+00
         21   -1    0    0  503  502  0.00000000000E+00  0.00000000000E+00  0.17363275868E+04  0.17363275868E+04  0.00000000000E+00 0. -1.
         21   -1    0    0  501  503 -0.00000000000E+00 -0.00000000000E+00 -0.25176381675E+03  0.25176381675E+03  0.00000000000E+00 0. -1.
          6    2    1    2  501    0  0.88147924983E+01  0.28429619784E+03 -0.11672728968E+03  0.35268525944E+03  0.17279931540E+03 0.  0.
         24    2    3    3    0    0 -0.12522916004E+02  0.14412706088E+03  0.13397745216E+02  0.16018253358E+03  0.67450065849E+02 0.  0.
         -6    2    1    2    0  502 -0.88147924983E+01 -0.28429619784E+03  0.16012910597E+04  0.16354061441E+04  0.17180852579E+03 0.  0.
        -24    2    5    5    0    0 -0.46967373118E+02 -0.74780279746E+02  0.67287073890E+03  0.68286274800E+03  0.75818711119E+02 0.  0.
          5    1    3    3  501    0  0.21337708503E+02  0.14016913696E+03 -0.13012503490E+03  0.19250272587E+03  0.47000000000E+01 0. -1.
        -11    1    4    4    0    0  0.92201605234E+01  0.50467027472E+01  0.16285834572E+02  0.19383213779E+02  0.00000000000E+00 0.  1.
         12    1    4    4    0    0 -0.21743076528E+02  0.13908035813E+03 -0.28880893560E+01  0.14079931980E+03  0.00000000000E+00 0. -1.
         -5    1    5    5    0  502  0.38152580620E+02 -0.20951591809E+03  0.92842032081E+03  0.95254339609E+03  0.47000000000E+01 0.  1.
         13    1    6    6    0    0 -0.19208504162E+02  0.13556599121E+02  0.11806806551E+03  0.12038611259E+03  0.00000000000E+00 0. -1.
        -14    1    6    6    0    0 -0.27758868956E+02 -0.88336878867E+02  0.55480267339E+03  0.56247663540E+03  0.00000000000E+00 0.  1.
</event>
<event>
12    1  0.1598254E-001  0.1735214E+03  0.7818608E-02  0.1174460E+00
         21   -1    0    0  501  502  0.00000000000E+00  0.00000000000E+00  0.14190674327E+02  0.14190674327E+02  0.00000000000E+00 0.  1.
         21   -1    0    0  502  503 -0.00000000000E+00 -0.00000000000E+00 -0.23562954058E+04  0.23562954058E+04  0.00000000000E+00 0.  1.
         -6    2    1    2    0  503 -0.39434259695E+01  0.17795828397E+02 -0.15566829826E+04  0.15663242290E+04  0.17256140933E+03 0.  0.
        -24    2    3    3    0    0 -0.77445761097E+01 -0.56874529744E+02 -0.97294761954E+03  0.97780135332E+03  0.78573059070E+02 0.  0.
          6    2    1    2  501    0  0.39434259695E+01 -0.17795828397E+02 -0.78542174895E+03  0.80416185118E+03  0.17162959260E+03 0.  0.
         24    2    5    5    0    0  0.55352629339E+01 -0.68316176526E+02 -0.66835814074E+03  0.67656554290E+03  0.79627824499E+02 0.  0.
          5    1    5    5  501    0 -0.15918369645E+01  0.50520348129E+02 -0.11706360821E+03  0.12759630828E+03  0.47000000000E+01 0. -1.
        -13    1    6    6    0    0 -0.35005372852E+02 -0.16740921137E+02 -0.28606565826E+03  0.28868528782E+03  0.00000000000E+00 0.  1.
         14    1    6    6    0    0  0.40540635786E+02 -0.51575255389E+02 -0.38229248248E+03  0.38788025508E+03  0.00000000000E+00 0. -1.
         -5    1    3    3    0  503  0.38011501402E+01  0.74670358141E+02 -0.58373536303E+03  0.58852287566E+03  0.47000000000E+01 0.  1.
         11    1    4    4    0    0 -0.38801413839E+02 -0.23970664788E+02 -0.31311490109E+03  0.31641915835E+03  0.00000000000E+00 0. -1.
        -12    1    4    4    0    0  0.31056837730E+02 -0.32903864957E+02 -0.65983271844E+03  0.66138219497E+03  0.00000000000E+00 0.  1.
</event>
<event>
12    1  0.1598254E-001  0.1793943E+03  0.7818608E-02  0.1168457E+00
         21   -1    0    0  503  502  0.00000000000E+00  0.00000000000E+00  0.38866900439E+02  0.38866900439E+02  0.00000000000E+00 0. -1.
         21   -1    0    0  501  503 -0.00000000000E+00 -0.00000000000E+00 -0.13630045267E+04  0.13630045267E+04  0.00000000000E+00 0. -1.
          6    2    1    2  501    0 -0.29717451133E+02  0.39180323652E+02 -0.11014197905E+04  0.11158896701E+04  0.17223813820E+03 0.  0.
         24    2    3    3    0    0 -0.50566575599E+02  0.78237396068E+01 -0.33202889558E+03  0.34556353101E+03  0.80949224835E+02 0.  0.
         -6    2    1    2    0  502  0.29717451133E+02 -0.39180323652E+02 -0.22271783579E+03  0.28598175707E+03  0.17252277049E+03 0.  0.
        -24    2    5    5    0    0  0.12896018893E+02 -0.31937075675E+01 -0.25137744150E+02  0.84393117186E+02  0.79459329069E+02 0.  0.
          5    1    3    3  501    0  0.20849124466E+02  0.31356584045E+02 -0.76939089489E+03  0.77032613904E+03  0.47000000000E+01 0. -1.
        -13    1    4    4    0    0 -0.39436097827E+02 -0.24369140276E+02 -0.27694793639E+03  0.28080103326E+03  0.00000000000E+00 0.  1.
         14    1    4    4    0    0 -0.11130477772E+02  0.32192879883E+02 -0.55080959186E+02  0.64762497755E+02  0.00000000000E+00 0. -1.
         -5    1    5    5    0  502  0.16821432240E+02 -0.35986616084E+02 -0.19758009164E+03  0.20158863988E+03  0.47000000000E+01 0.  1.
         13    1    6    6    0    0  0.19568746216E+02 -0.37545209069E+02 -0.25447975025E+02  0.49398157713E+02  0.00000000000E+00 0. -1.
        -14    1    6    6    0    0 -0.66727273227E+01  0.34351501502E+02  0.31023087474E+00  0.34994959473E+02  0.00000000000E+00 0.  1.
</event>
<event>
12    1  0.1598254E-001  0.2172387E+03  0.7818608E-02  0.1136470E+00
         21   -1    0    0  503  502  0.00000000000E+00  0.00000000000E+00  0.38542665040E+03  0.38542665040E+03  0.00000000000E+00 0.  1.
         21   -1    0    0  501  503 -0.00000000000E+00 -0.00000000000E+00 -0.12101231170E+03  0.12101231170E+03  0.00000000000E+00 0. -1.
          6    2    1    2  501    0  0.10591342785E+03  0.79596640051E+02  0.12661703474E+03  0.25144486637E+03  0.17216087834E+03 0.  0.
         24    2    3    3    0    0  0.12863201835E+03  0.44430487960E+02  0.13631496234E+03  0.20821371549E+03  0.79062746935E+02 0.  0.
         -6    2    1    2    0  502 -0.10591342785E+03 -0.79596640051E+02  0.13779730395E+03  0.25499409573E+03  0.16876199978E+03 0.  0.
        -24    2    5    5    0    0 -0.12723778760E+03 -0.50790718513E+02  0.14891754558E+03  0.21717532779E+03  0.78864034495E+02 0.  0.
          5    1    3    3  501    0 -0.22718590501E+02  0.35166152091E+02 -0.96979276001E+01  0.43231150887E+02  0.47000000000E+01 0. -1.
        -11    1    4    4    0    0  0.13484802511E+03  0.49673428566E+02  0.11087815288E+03  0.18150868896E+03  0.00000000000E+00 0.  1.
         12    1    4    4    0    0 -0.62160067585E+01 -0.52429406059E+01  0.25436809461E+02  0.26705026527E+02  0.00000000000E+00 0. -1.
         -5    1    5    5    0  502  0.21324359752E+02 -0.28805921539E+02 -0.11120241625E+02  0.37818767938E+02  0.47000000000E+01 0.  1.
         11    1    6    6    0    0 -0.81401426101E+02 -0.32550411106E+02  0.37551890691E+02  0.95372249260E+02  0.00000000000E+00 0. -1.
        -12    1    6    6    0    0 -0.45836361504E+02 -0.18240307407E+02  0.11136565489E+03  0.12180307853E+03  0.00000000000E+00 0.  1.
</event>
<event>
12    1  0.1598254E-001  0.1801537E+03  0.7818608E-02  0.1167884E+00
         21   -1    0    0  503  502  0.00000000000E+00  0.00000000000E+00  0.19582017580E+03  0.19582017580E+03  0.00000000000E+00 0.  1.
         21   -1    0    0  501  503 -0.00000000000E+00 -0.00000000000E+00 -0.73552797480E+03  0.73552797480E+03  0.00000000000E+00 0.  1.
          6    2    1    2  501    0  0.37984630847E+02  0.39937018860E+02 -0.68018937538E+03  0.70364262846E+03  0.17151549361E+03 0.  0.
         24    2    3    3    0    0  0.11902902106E+02 -0.53254003577E+01 -0.60963810379E+03  0.61573065493E+03  0.85414184156E+02 0.  0.
         -6    2    1    2    0  502 -0.37984630847E+02 -0.39937018860E+02  0.14048157638E+03  0.22770552215E+03  0.17051959964E+03 0.  0.
        -24    2    5    5    0    0 -0.10633452328E+02 -0.90889593867E+02  0.92257363911E+02  0.15226073085E+03  0.79359437887E+02 0.  0.
          5    1    3    3  501    0  0.26081728741E+02  0.45262419217E+02 -0.70551271589E+02  0.87911973532E+02  0.47000000000E+01 0. -1.
        -11    1    4    4    0    0  0.34655188407E+02 -0.16548095985E+01 -0.55921622780E+03  0.56029145087E+03  0.00000000000E+00 0.  1.
         12    1    4    4    0    0 -0.22752286300E+02 -0.36705907593E+01 -0.50421875987E+02  0.55439204057E+02  0.00000000000E+00 0. -1.
         -5    1    5    5    0  502 -0.27351178519E+02  0.50952575007E+02  0.48224212467E+02  0.75444791300E+02  0.47000000000E+01 0.  1.
         11    1    6    6    0    0  0.25611210673E+02 -0.78444599928E+02  0.67791347978E+02  0.10679492605E+03  0.00000000000E+00 0. -1.
        -12    1    6    6    0    0 -0.36244663002E+02 -0.12444993939E+02  0.24466015933E+02  0.45465804798E+02  0.00000000000E+00 0.  1.
</event>
<event>
12    1  0.1598254E-001  0.1854913E+03  0.7818608E-02  0.1162989E+00
         21   -1    0    0  501  502  0.00000000000E+00  0.00000000000E+00  0.70138009038E+03  0.70138009038E+03  0.00000000000E+00 0. -1.
         21   -1    0    0  502  503 -0.00000000000E+00 -0.00000000000E+00 -0.58656022140E+02  0.58656022140E+02  0.00000000000E+00 0.  1.
         -6    2    1    2    0  503  0.63249998104E+02 -0.18811608724E+02  0.16285387599E+03  0.24556315410E+03  0.17153844713E+03 0.  0.
        -24    2    3    3    0    0 -0.25976119257E+01  0.35518367745E+02  0.43358244076E+02  0.98631366739E+02  0.81116626783E+02 0.  0.
          6    2    1    2  501    0 -0.63249998104E+02  0.18811608724E+02  0.47987019225E+03  0.51447295842E+03  0.17335681312E+03 0.  0.
         24    2    5    5    0    0 -0.40586529856E+02  0.45571250383E+02  0.46543284624E+03  0.47625989554E+03  0.80447178150E+02 0.  0.
          5    1    5    5  501    0 -0.22663468248E+02 -0.26759641659E+02  0.14437346003E+02  0.38213062876E+02  0.47000000000E+01 0. -1.
        -13    1    6    6    0    0 -0.13065195200E+02  0.29056447663E+02  0.48095446130E+02  0.57690106733E+02  0.00000000000E+00 0.  1.
         14    1    6    6    0    0 -0.27521334655E+02  0.16514802719E+02  0.41733740012E+03  0.41856978881E+03  0.00000000000E+00 0. -1.
         -5    1    3    3    0  503  0.65847610029E+02 -0.54329976468E+02  0.11949563191E+03  0.14693178736E+03  0.47000000000E+01 0.  1.
         11    1    4    4    0    0  0.38917399089E+02  0.22526715153E+02  0.24634348699E+02  0.51272487586E+02  0.00000000000E+00 0. -1.
        -12    1    4    4    0    0 -0.41515011014E+02  0.12991652592E+02  0.18723895377E+02  0.47358879154E+02  0.00000000000E+00 0.  1.
</event>
<event>
12    1  0.1598254E-001  0.2169837E+03  0.7818608E-02  0.1136285E+00
         21   -1    0    0  503  502  0.00000000000E+00  0.00000000000E+00  0.92866709739E+02  0.92866709739E+02  0.00000000000E+00 0. -1.
         21   -1    0    0  501  503 -0.00000000000E+00 -0.00000000000E+00 -0.53636894315E+03  0.53636894315E+03  0.00000000000E+00 0.  1.
          6    2    1    2  501    0  0.45863739220E+02 -0.12276649522E+03 -0.29775379870E+03  0.36842807085E+03  0.17293589513E+03 0.  0.
         24    2    3    3    0    0  0.84912193416E+02 -0.11009007096E+03 -0.28132945168E+03  0.32396097422E+03  0.80464576834E+02 0.  0.
         -6    2    1    2    0  502 -0.45863739220E+02  0.12276649522E+03 -0.14574843471E+03  0.26080758204E+03  0.17205491480E+03 0.  0.
        -24    2    5    5    0    0 -0.87022843003E+02  0.11738502895E+03 -0.14126692532E+03  0.21879322818E+03  0.81005631189E+02 0.  0.
          5    1    3    3  501    0 -0.39048454196E+02 -0.12676424258E+02 -0.16424347025E+02  0.44467096625E+02  0.47000000000E+01 0. -1.
        -11    1    4    4    0    0  0.50770363242E+02 -0.52874452939E+02 -0.22523790501E+03  0.23686589330E+03  0.00000000000E+00 0.  1.
         12    1    4    4    0    0  0.34141830174E+02 -0.57215618020E+02 -0.56091546666E+02  0.87095080920E+02  0.00000000000E+00 0. -1.
         -5    1    5    5    0  502  0.41159103783E+02  0.53814662692E+01 -0.44815093890E+01  0.42014353855E+02  0.47000000000E+01 0.  1.
         11    1    6    6    0    0 -0.52999194829E+02  0.10538914471E+03 -0.65629420322E+02  0.13499261938E+03  0.00000000000E+00 0. -1.
        -12    1    6    6    0    0 -0.34023648174E+02  0.11995884238E+02 -0.75637504997E+02  0.83800608804E+02  0.00000000000E+00 0.  1.
</event>
<event>
12    1  0.1598254E-001  0.2262879E+03  0.7818608E-02  0.1129393E+00
         21   -1    0    0  501  502  0.00000000000E+00  0.00000000000E+00  0.32420465223E+03  0.32420465223E+03  0.00000000000E+00 0. -1.
         21   -1    0    0  502  503 -0.00000000000E+00 -0.00000000000E+00 -0.21908437938E+03  0.21908437938E+03  0.00000000000E+00 0. -1.
         -6    2    1    2    0  503  0.88451006645E+02  0.11671514115E+03 -0.91509055097E+02  0.24350694181E+03  0.17168494049E+03 0.  0.
        -24    2    3    3    0    0 -0.70901791357E+01  0.92789608375E+02 -0.25550838443E+02  0.12487673636E+03  0.79253844559E+02 0.  0.
          6    2    1    2  501    0 -0.88451006645E+02 -0.11671514115E+03  0.19662932795E+03  0.29978208980E+03  0.17251146051E+03 0.  0.
         24    2    5    5    0    0 -0.15991221545E+02 -0.12897909944E+03  0.13655851567E+03  0.20474831887E+03  0.79889414936E+02 0.  0.
          5    1    5    5  501    0 -0.72459785100E+02  0.12263958295E+02  0.60070812273E+02  0.95033770928E+02  0.47000000000E+01 0. -1.
        -13    1    6    6    0    0  0.22204137609E+02 -0.10198759433E+03  0.10668393648E+03  0.14925131633E+03  0.00000000000E+00 0.  1.
         14    1    6    6    0    0 -0.38195359154E+02 -0.26991505118E+02  0.29874579197E+02  0.55497002546E+02  0.00000000000E+00 0. -1.
         -5    1    3    3    0  503  0.95541185780E+02  0.23925532775E+02 -0.65958216653E+02  0.11863020544E+03  0.47000000000E+01 0.  1.
         13    1    4    4    0    0  0.95769373499E+01  0.26775985986E+02 -0.45741801747E+02  0.53860779623E+02  0.00000000000E+00 0. -1.
        -14    1    4    4    0    0 -0.16667116486E+02  0.66013622388E+02  0.20190963303E+02  0.71015956741E+02  0.00000000000E+00 0.  1.
</event>
<event>
12    1  0.1598254E-001  0.2245681E+03  0.7818608E-02  0.1130608E+00
         21   -1    0    0  501  502  0.00000000000E+00  0.00000000000E+00  0.35861927416E+03  0.35861927416E+03  0.00000000000E+00 0. -1.
         21   -1    0    0  502  503 -0.00000000000E+00 -0.00000000000E+00 -0.18117467153E+03  0.18117467153E+03  0.00000000000E+00 0.  1.
         -6    2    1    2    0  503  0.23706127836E+02 -0.14221956542E+03 -0.39500467565E+02  0.22755044238E+03  0.17155329086E+03 0.  0.
        -24    2    3    3    0    0  0.12732694593E+01 -0.14771666076E+03  0.15395987020E+02  0.16780797911E+03  0.78106647314E+02 0.  0.
          6    2    1    2  501    0 -0.23706127836E+02  0.14221956542E+03  0.21694507019E+03  0.31224350331E+03  0.17216984811E+03 0.  0.
         24    2    5    5    0    0  0.22932615278E-02  0.38083583145E+02  0.17929952784E+03  0.19890476813E+03  0.77229701482E+02 0.  0.
          5    1    5    5  501    0 -0.23708421098E+02  0.10413598227E+03  0.37645542356E+02  0.11333873519E+03  0.47000000000E+01 0. -1.
        -11    1    6    6    0    0  0.33072902480E+00  0.28093363623E+02  0.10785280999E+02  0.30094330821E+02  0.00000000000E+00 0.  1.
         12    1    6    6    0    0 -0.32843576327E+00  0.99902195217E+01  0.16851424684E+03  0.16881043731E+03  0.00000000000E+00 0. -1.
         -5    1    3    3    0  503  0.22432858377E+02  0.54970953426E+01 -0.54896454584E+02  0.59742463275E+02  0.47000000000E+01 0.  1.
         13    1    4    4    0    0  0.36229654603E+02 -0.41349838292E+02  0.16214995440E+01  0.55000238728E+02  0.00000000000E+00 0. -1.
        -14    1    4    4    0    0 -0.34956385144E+02 -0.10636682247E+03  0.13774487476E+02  0.11280774038E+03  0.00000000000E+00 0.  1.
</event>
<event>
12    1  0.1598254E-001  0.2244111E+03  0.7818608E-02  0.1130835E+00
         21   -1    0    0  503  502  0.00000000000E+00  0.00000000000E+00  0.19693997687E+04  0.19693997687E+04  0.00000000000E+00 0. -1.
         21   -1    0    0  501  503 -0.00000000000E+00 -0.00000000000E+00 -0.38946272403E+02  0.38946272403E+02  0.00000000000E+00 0. -1.
          6    2    1    2  501    0 -0.98895145427E+02  0.10280532800E+03  0.37251599137E+03  0.43432901104E+03  0.17182648443E+03 0.  0.
         24    2    3    3    0    0 -0.63395145292E+02  0.33119640085E+02  0.89843137054E+02  0.14099920063E+03  0.81811553559E+02 0.  0.
         -6    2    1    2    0  502  0.98895145427E+02 -0.10280532800E+03  0.15579375050E+04  0.15740170301E+04  0.17323728356E+03 0.  0.
        -24    2    5    5    0    0  0.78596359593E+01 -0.92183240416E+02  0.11188296306E+04  0.11254213234E+04  0.78954982080E+02 0.  0.
          5    1    3    3  501    0 -0.35500000135E+02  0.69685687918E+02  0.28267285431E+03  0.29332981041E+03  0.47000000000E+01 0. -1.
        -11    1    4    4    0    0 -0.71886233925E+02  0.51240953895E+02  0.77612912574E+02  0.11754586416E+03  0.00000000000E+00 0.  1.
         12    1    4    4    0    0  0.84910886334E+01 -0.18121313810E+02  0.12230224480E+02  0.23453336462E+02  0.00000000000E+00 0. -1.
         -5    1    5    5    0  502  0.91035509468E+02 -0.10622087586E+02  0.43910787438E+03  0.44859570670E+03  0.47000000000E+01 0.  1.
         11    1    6    6    0    0 -0.31077403613E+02 -0.31588091294E+02  0.27767865191E+03  0.28119218739E+03  0.00000000000E+00 0. -1.
        -12    1    6    6    0    0  0.38937039572E+02 -0.60595149122E+02  0.84115097869E+03  0.84422913602E+03  0.00000000000E+00 0.  1.
</event>
<event>
12    1  0.1598254E-001  0.2041363E+03  0.7818608E-02  0.1146457E+00
         21   -1    0    0  501  502  0.00000000000E+00  0.00000000000E+00  0.16806067854E+03  0.16806067854E+03  0.00000000000E+00 0.  1.
         21   -1    0    0  502  503 -0.00000000000E+00 -0.00000000000E+00 -0.33821389892E+03  0.33821389892E+03  0.00000000000E+00 0.  1.
         -6    2    1    2    0  503 -0.33526671093E+02  0.10481317518E+03 -0.21665254109E+03  0.29767422865E+03  0.17193540495E+03 0.  0.
        -24    2    3    3    0    0 -0.60796813771E+02  0.31614159674E+02 -0.18558750403E+03  0.21347872354E+03  0.80216806822E+02 0.  0.
          6    2    1    2  501    0  0.33526671093E+02 -0.10481317518E+03  0.46499320708E+02  0.20860034881E+03  0.17100315592E+03 0.  0.
         24    2    5    5    0    0 -0.34903404694E+02 -0.10322523202E+03  0.39069531225E+02  0.13958956265E+03  0.78007189059E+02 0.  0.
          5    1    5    5  501    0  0.68430075787E+02 -0.15879431613E+01  0.74297894822E+01  0.69010786168E+02  0.47000000000E+01 0. -1.
        -11    1    6    6    0    0 -0.11606284105E+02 -0.10558549566E+03  0.17307640253E+02  0.10762228921E+03  0.00000000000E+00 0.  1.
         12    1    6    6    0    0 -0.23297120590E+02  0.23602636378E+01  0.21761890972E+02  0.31967273435E+02  0.00000000000E+00 0. -1.
         -5    1    3    3    0  503  0.27270142678E+02  0.73199015507E+02 -0.31065037062E+02  0.84195505109E+02  0.47000000000E+01 0.  1.
         11    1    4    4    0    0 -0.10668322691E+02 -0.26534086675E+02 -0.45769360215E+02  0.53969483963E+02  0.00000000000E+00 0. -1.
        -12    1    4    4    0    0 -0.50128491080E+02  0.58148246349E+02 -0.13981814381E+03  0.15950923958E+03  0.00000000000E+00 0.  1.
</event>
<event>
12    1  0.1598254E-001  0.2394670E+03  0.7818608E-02  0.1120162E+00
         21   -1    0    0  501  502  0.00000000000E+00  0.00000000000E+00  0.46709844135E+02  0.46709844135E+02  0.00000000000E+00 0. -1.
         21   -1    0    0  502  503 -0.00000000000E+00 -0.00000000000E+00 -0.12608609868E+04  0.12608609868E+04  0.00000000000E+00 0. -1.
         -6    2    1    2    0  503 -0.16648579919E+03 -0.73800950750E+01 -0.71370184805E+03  0.75277904042E+03  0.17185449849E+03 0.  0.
        -24    2    3    3    0    0 -0.14491055987E+03 -0.58820598846E+02 -0.60615864685E+03  0.63153859130E+03  0.83389171556E+02 0.  0.
          6    2    1    2  501    0  0.16648579919E+03  0.73800950750E+01 -0.50044929458E+03  0.55479179048E+03  0.17196641301E+03 0.  0.
         24    2    5    5    0    0  0.88082657579E+02  0.96418383514E+01 -0.43955931304E+03  0.45538430611E+03  0.79441531672E+02 0.  0.
          5    1    5    5  501    0  0.78403141615E+02 -0.22617432764E+01 -0.60889981543E+02  0.99407484376E+02  0.47000000000E+01 0. -1.
        -13    1    6    6    0    0 -0.61255432141E+01 -0.17939360146E+02 -0.10596541301E+03  0.10764762736E+03  0.00000000000E+00 0.  1.
         14    1    6    6    0    0  0.94208200793E+02  0.27581198497E+02 -0.33359390003E+03  0.34773667875E+03  0.00000000000E+00 0. -1.
         -5    1    3    3    0  503 -0.21575239322E+02  0.51440503771E+02 -0.10754320120E+03  0.12124044913E+03  0.47000000000E+01 0.  1.
         11    1    4    4    0    0 -0.99221213564E+02  0.22198444524E+01 -0.38584062964E+03  0.39840026156E+03  0.00000000000E+00 0. -1.
        -12    1    4    4    0    0 -0.45689346308E+02 -0.61040443298E+02 -0.22031801721E+03  0.23313832974E+03  0.00000000000E+00 0.  1.
</event>
<event>
12    1  0.1598254E-001  0.1947444E+03  0.7818608E-02  0.1155302E+00
         21   -1    0    0  501  502  0.00000000000E+00  0.00000000000E+00  0.35301236923E+03  0.35301236923E+03  0.00000000000E+00 0. -1.
         21   -1    0    0  502  503 -0.00000000000E+00 -0.00000000000E+00 -0.11283788033E+03  0.11283788033E+03  0.00000000000E+00 0. -1.
         -6    2    1    2    0  503 -0.67173968181E+02 -0.46532531083E+02  0.18351650016E+03  0.26758867707E+03  0.17677040424E+03 0.  0.
        -24    2    3    3    0    0 -0.32863631191E+02 -0.94643440895E+02  0.88932029224E+02  0.15596354097E+03  0.79864392123E+02 0.  0.
          6    2    1    2  501    0  0.67173968181E+02  0.46532531083E+02  0.56657988733E+02  0.19826157249E+03  0.17152231629E+03 0.  0.
         24    2    5    5    0    0  0.98409041517E+02  0.68814461752E+02  0.67032286604E+02  0.15823870031E+03  0.78271254180E+02 0.  0.
          5    1    5    5  501    0 -0.31235073336E+02 -0.22281930669E+02 -0.10374297871E+02  0.40022872173E+02  0.47000000000E+01 0. -1.
        -11    1    6    6    0    0  0.43413253638E+02  0.33759157655E+02  0.74494569396E+02  0.92594990072E+02  0.00000000000E+00 0.  1.
         12    1    6    6    0    0  0.54995787880E+02  0.35055304097E+02 -0.74622827914E+01  0.65643710242E+02  0.00000000000E+00 0. -1.
         -5    1    3    3    0  503 -0.34310336990E+02  0.48110909812E+02  0.94584470940E+02  0.11162513610E+03  0.47000000000E+01 0.  1.
         11    1    4    4    0    0 -0.22527823310E+02  0.39096498392E+01  0.38493042415E+02  0.44771670723E+02  0.00000000000E+00 0. -1.
        -12    1    4    4    0    0 -0.10335807882E+02 -0.98553090734E+02  0.50438986809E+02  0.11119187024E+03  0.00000000000E+00 0.  1.
</event>
<event>
12    1  0.1598254E-001  0.1856128E+03  0.7818608E-02  0.1165824E+00
         21   -1    0    0  501  502  0.00000000000E+00  0.00000000000E+00  0.88202771839E+02  0.88202771839E+02  0.00000000000E+00 0.  1.
         21   -1    0    0  502  503 -0.00000000000E+00 -0.00000000000E+00 -0.38022097441E+03  0.38022097441E+03  0.00000000000E+00 0.  1.
         -6    2    1    2    0  503 -0.71266752365E+01 -0.13343144089E+01 -0.19175669629E+03  0.25746288452E+03  0.17165062319E+03 0.  0.
        -24    2    3    3    0    0 -0.43169007313E+01 -0.34131250617E+02 -0.13263272908E+02  0.75898774504E+02  0.66341025485E+02 0.  0.
          6    2    1    2  501    0  0.71266752365E+01  0.13343144089E+01 -0.10026150629E+03  0.21096086173E+03  0.18547114504E+03 0.  0.
         24    2    5    5    0    0 -0.16588592033E+02 -0.70655189319E+02 -0.48140988443E+02  0.11885472225E+03  0.80879868140E+02 0.  0.
          5    1    5    5  501    0  0.23715267269E+02  0.71989503728E+02 -0.52120517844E+02  0.92106139475E+02  0.47000000000E+01 0. -1.
        -11    1    6    6    0    0  0.16174354703E+02 -0.46925347177E+02  0.73577440243E+01  0.50177030152E+02  0.00000000000E+00 0.  1.
         12    1    6    6    0    0 -0.32762946736E+02 -0.23729842141E+02 -0.55498732467E+02  0.68677692101E+02  0.00000000000E+00 0. -1.
         -5    1    3    3    0  503 -0.28097745052E+01  0.32796936208E+02 -0.17849342338E+03  0.18156411002E+03  0.47000000000E+01 0.  1.
         13    1    4    4    0    0 -0.20077367942E+02 -0.59127319850E+01  0.20402685376E+02  0.29228935553E+02  0.00000000000E+00 0. -1.
        -14    1    4    4    0    0  0.15760467211E+02 -0.28218518632E+02 -0.33665958285E+02  0.46669838951E+02  0.00000000000E+00 0.  1.
</event>
<event>
12    1  0.1598254E-001  0.2075275E+03  0.7818608E-02  0.1145279E+00
         21   -1    0    0  503  502  0.00000000000E+00  0.00000000000E+00  0.75720166660E+03  0.75720166660E+03  0.00000000000E+00 0.  1.
         21   -1    0    0  501  503 -0.00000000000E+00 -0.00000000000E+00 -0.12420093865E+03  0.12420093865E+03  0.00000000000E+00 0.  1.
          6    2    1    2  501    0 -0.53372865902E+02  0.10402382443E+03 -0.10521970058E+02  0.20779411260E+03  0.17145863207E+03 0.  0.
         24    2    3    3    0    0 -0.66052393538E+02  0.13614551610E+03 -0.35151160858E+01  0.17224471739E+03  0.82203201783E+02 0.  0.
         -6    2    1    2    0  502  0.53372865902E+02 -0.10402382443E+03  0.64352269801E+03  0.67360849266E+03  0.16111275452E+03 0.  0.
        -24    2    5    5    0    0  0.45445752844E+02 -0.12302143823E+03  0.62945894963E+03  0.64823867851E+03  0.82433150690E+02 0.  0.
          5    1    3    3  501    0  0.12679527637E+02 -0.32121691668E+02 -0.70068539721E+01  0.35549395203E+02  0.47000000000E+01 0. -1.
        -11    1    4    4    0    0 -0.15051808396E+02  0.11359363795E+03  0.95069572134E+01  0.11498023201E+03  0.00000000000E+00 0.  1.
         12    1    4    4    0    0 -0.51000585142E+02  0.22551878149E+02 -0.13022073299E+02  0.57264485380E+02  0.00000000000E+00 0. -1.
         -5    1    5    5    0  502  0.79271130583E+01  0.18997613800E+02  0.14063748377E+02  0.25369814148E+02  0.47000000000E+01 0.  1.
         13    1    6    6    0    0 -0.24141586691E+02 -0.25897085187E+02  0.14805900121E+03  0.15223318649E+03  0.00000000000E+00 0. -1.
        -14    1    6    6    0    0  0.69587339535E+02 -0.97124353044E+02  0.48139994842E+03  0.49600549202E+03  0.00000000000E+00 0.  1.
</event>
<event>
12    1  0.1598254E-001  0.2377843E+03  0.7818608E-02  0.1121377E+00
         21   -1    0    0  503  502  0.00000000000E+00  0.00000000000E+00  0.79067592727E+03  0.79067592727E+03  0.00000000000E+00 0.  1.
         21   -1    0    0  501  503 -0.00000000000E+00 -0.00000000000E+00 -0.71572749250E+02  0.71572749250E+02  0.00000000000E+00 0.  1.
          6    2    1    2  501    0 -0.15208699860E+03 -0.59120401141E+02  0.38492468634E+03  0.45244708842E+03  0.17296148905E+03 0.  0.
         24    2    3    3    0    0 -0.96734126269E+02 -0.68676069766E+02  0.13763970503E+03  0.19881900784E+03  0.80687147269E+02 0.  0.
         -6    2    1    2    0  502  0.15208699860E+03  0.59120401141E+02  0.33417849168E+03  0.40980158810E+03  0.17215225916E+03 0.  0.
        -24    2    5    5    0    0  0.11191730229E+03  0.26181290253E+02  0.32882670474E+03  0.35736761866E+03  0.79835271721E+02 0.  0.
          5    1    3    3  501    0 -0.55352872327E+02  0.95556686258E+01  0.24728498130E+03  0.25362808058E+03  0.47000000000E+01 0. -1.
        -13    1    4    4    0    0 -0.92838284980E+02 -0.56105448242E+02  0.14698477690E+03  0.18267811341E+03  0.00000000000E+00 0.  1.
         14    1    4    4    0    0 -0.38958412882E+01 -0.12570621524E+02 -0.93450718643E+01  0.16140894430E+02  0.00000000000E+00 0. -1.
         -5    1    5    5    0  502  0.40169696307E+02  0.32939110887E+02  0.53517869449E+01  0.52433969437E+02  0.47000000000E+01 0.  1.
         13    1    6    6    0    0  0.17242868057E+02 -0.24346393827E+02  0.45604587947E+02  0.54496255220E+02  0.00000000000E+00 0. -1.
        -14    1    6    6    0    0  0.94674434232E+02  0.50527684080E+02  0.28322211679E+03  0.30287136344E+03  0.00000000000E+00 0.  1.
</event>
<event>
12    1  0.1598254E-001  0.1768952E+03  0.7818608E-02  0.1171210E+00
         21   -1    0    0  503  502  0.00000000000E+00  0.00000000000E+00  0.34404455083E+03  0.34404455083E+03  0.00000000000E+00 0. -1.
         21   -1    0    0  501  503 -0.00000000000E+00 -0.00000000000E+00 -0.20014054222E+03  0.20014054222E+03  0.00000000000E+00 0. -1.
          6    2    1    2  501    0 -0.37687865461E+01 -0.34731798447E+02 -0.12957992500E+03  0.21927805247E+03  0.17341108891E+03 0.  0.
         24    2    3    3    0    0 -0.43112930323E+02  0.27653319108E+02 -0.37639557192E+02  0.10131625452E+03  0.78897505322E+02 0.  0.
         -6    2    1    2    0  502  0.37687865461E+01  0.34731798447E+02  0.27348393361E+03  0.32490704058E+03  0.17190294210E+03 0.  0.
        -24    2    5    5    0    0  0.17067261353E+02  0.30830591190E+02  0.48291187364E+02  0.99239294079E+02  0.79212258831E+02 0.  0.
          5    1    3    3  501    0  0.39344143777E+02 -0.62385117555E+02 -0.91940367806E+02  0.11796179794E+03  0.47000000000E+01 0. -1.
        -13    1    4    4    0    0 -0.29687585434E+02 -0.74685324951E+00  0.19908420295E+02  0.35752702237E+02  0.00000000000E+00 0.  1.
         14    1    4    4    0    0 -0.13425344889E+02  0.28400172358E+02 -0.57547977487E+02  0.65563552285E+02  0.00000000000E+00 0. -1.
         -5    1    5    5    0  502 -0.13298474807E+02  0.39012072572E+01  0.22519274624E+03  0.22566774650E+03  0.47000000000E+01 0.  1.
         11    1    6    6    0    0  0.10471783778E+02 -0.25615965175E+02  0.26674111241E+02  0.38436234699E+02  0.00000000000E+00 0. -1.
        -12    1    6    6    0    0  0.65954775748E+01  0.56446556365E+02  0.21617076123E+02  0.60803059380E+02  0.00000000000E+00 0.  1.
</event>
<event>
12    1  0.1598254E-001  0.2215464E+03  0.7818608E-02  0.1133832E+00
         21   -1    0    0  501  502  0.00000000000E+00  0.00000000000E+00  0.13160570931E+04  0.13160570931E+04  0.00000000000E+00 0. -1.
         21   -1    0    0  502  503 -0.00000000000E+00 -0.00000000000E+00 -0.49144766762E+02  0.49144766762E+02  0.00000000000E+00 0. -1.
         -6    2    1    2    0  503 -0.12141693060E+03 -0.63306644728E+02  0.97591666574E+03  0.99946798862E+03  0.16665269126E+03 0.  0.
        -24    2    3    3    0    0 -0.37221412958E+01  0.27674241703E+01  0.27151811887E+03  0.28223912079E+03  0.76911114021E+02 0.  0.
          6    2    1    2  501    0  0.12141693060E+03  0.63306644728E+02  0.29099566055E+03  0.36573387120E+03  0.17416368099E+03 0.  0.
         24    2    5    5    0    0  0.71953852110E+02  0.45051424828E+02  0.74006808304E+02  0.14238190414E+03  0.87112635355E+02 0.  0.
          5    1    5    5  501    0  0.49463078495E+02  0.18255219900E+02  0.21698885225E+03  0.22335196706E+03  0.47000000000E+01 0. -1.
        -13    1    6    6    0    0  0.22094126576E+02 -0.10000478649E+02 -0.13377260748E+02  0.27696770705E+02  0.00000000000E+00 0.  1.
         14    1    6    6    0    0  0.49859725534E+02  0.55051903477E+02  0.87384069052E+02  0.11468513343E+03  0.00000000000E+00 0. -1.
         -5    1    3    3    0  503 -0.11769478931E+03 -0.66074068898E+02  0.70439854687E+03  0.71722886783E+03  0.47000000000E+01 0.  1.
         13    1    4    4    0    0 -0.33521338489E+02 -0.17691173456E+02  0.17772774368E+03  0.18172454051E+03  0.00000000000E+00 0. -1.
        -14    1    4    4    0    0  0.29799197194E+02  0.20458597626E+02  0.93790375189E+02  0.10051458028E+03  0.00000000000E+00 0.  1.
</event>
<event>
12    1  0.1598254E-001  0.2543121E+03  0.7818608E-02  0.1110630E+00
         21   -1    0    0  503  502  0.00000000000E+00  0.00000000000E+00  0.10368733948E+04  0.10368733948E+04  0.00000000000E+00 0. -1.
         21   -1    0    0  501  503 -0.00000000000E+00 -0.00000000000E+00 -0.77580200400E+02  0.77580200400E+02  0.00000000000E+00 0.  1.
          6    2    1    2  501    0  0.10448859531E+03  0.15497158340E+03  0.23258409095E+03  0.34453101368E+03  0.17225620979E+03 0.  0.
         24    2    3    3    0    0  0.10064547111E+03  0.36483924729E+02  0.14401682954E+03  0.19647580555E+03  0.80008170565E+02 0.  0.
         -6    2    1    2    0  502 -0.10448859531E+03 -0.15497158340E+03  0.72670910344E+03  0.76992258151E+03  0.17245463835E+03 0.  0.
        -24    2    5    5    0    0 -0.79147925460E+02 -0.45836480916E+02  0.52926312015E+03  0.54285513237E+03  0.78783674095E+02 0.  0.
          5    1    3    3  501    0  0.38431241987E+01  0.11848765867E+03  0.88567261406E+02  0.14805520812E+03  0.47000000000E+01 0. -1.
        -13    1    4    4    0    0  0.85057426495E+02  0.59987919245E+02  0.10095974567E+03  0.14500409133E+03  0.00000000000E+00 0.  1.
         14    1    4    4    0    0  0.15588044618E+02 -0.23503994516E+02  0.43057083874E+02  0.51471714222E+02  0.00000000000E+00 0. -1.
         -5    1    5    5    0  502 -0.25340669851E+02 -0.10913510248E+03  0.19744598329E+03  0.22706744914E+03  0.47000000000E+01 0.  1.
         11    1    6    6    0    0 -0.93350052569E+02 -0.42867765643E+02  0.49662522668E+03  0.50713754882E+03  0.00000000000E+00 0. -1.
        -12    1    6    6    0    0  0.14202127108E+02 -0.29687152734E+01  0.32637893468E+02  0.35717583552E+02  0.00000000000E+00 0.  1.
</event>
<event>
12    1  0.1598254E-001  0.1888187E+03  0.7818608E-02  0.1159812E+00
         21   -1    0    0  501  502  0.00000000000E+00  0.00000000000E+00  0.73601964825E+02  0.73601964825E+02  0.00000000000E+00 0. -1.
         21   -1    0    0  502  503 -0.00000000000E+00 -0.00000000000E+00 -0.64383897950E+03  0.64383897950E+03  0.00000000000E+00 0. -1.
         -6    2    1    2    0  503  0.16593935656E+02  0.75247747520E+02 -0.46608409026E+03  0.50287860861E+03  0.17238020071E+03 0.  0.
        -24    2    3    3    0    0  0.41401492655E+02  0.48165170145E+02 -0.45188871255E+03  0.46322410534E+03  0.79619068219E+02 0.  0.
          6    2    1    2  501    0 -0.16593935656E+02 -0.75247747520E+02 -0.10415292441E+03  0.21456233571E+03  0.17103093882E+03 0.  0.
         24    2    5    5    0    0 -0.51368915493E+02 -0.89987637936E+02 -0.35217385906E+02  0.13581741803E+03  0.80433614301E+02 0.  0.
          5    1    5    5  501    0  0.34774979836E+02  0.14739890416E+02 -0.68935538504E+02  0.78744917683E+02  0.47000000000E+01 0. -1.
        -13    1    6    6    0    0 -0.65382023659E+02 -0.53859238197E+02 -0.44903050273E+02  0.95874451658E+02  0.00000000000E+00 0.  1.
         14    1    6    6    0    0  0.14013108167E+02 -0.36128399740E+02  0.96856643666E+01  0.39942966370E+02  0.00000000000E+00 0. -1.
         -5    1    3    3    0  503 -0.24807556999E+02  0.27082577375E+02 -0.14195377708E+02  0.39654503272E+02  0.47000000000E+01 0.  1.
         11    1    4    4    0    0 -0.94138304338E-01  0.25196080757E+02 -0.32308694862E+02  0.40971979587E+02  0.00000000000E+00 0. -1.
        -12    1    4    4    0    0  0.41495630959E+02  0.22969089388E+02 -0.41958001769E+03  0.42225212575E+03  0.00000000000E+00 0.  1.
</event>
<event>
12    1  0.1598254E-001  0.1791943E+03  0.7818608E-02  0.1168741E+00
         21   -1    0    0  503  502  0.00000000000E+00  0.00000000000E+00  0.84120495043E+02  0.84120495043E+02  0.00000000000E+00 0. -1.
         21   -1    0    0  501  503 -0.00000000000E+00 -0.00000000000E+00 -0.57942969014E+03  0.57942969014E+03  0.00000000000E+00 0. -1.
          6    2    1    2  501    0  0.50567773012E+02  0.43681736368E+01 -0.44183018024E+03  0.47654592935E+03  0.17118976020E+03 0.  0.
         24    2    3    3    0    0  0.63413227712E+02 -0.52512929736E+02 -0.34549524188E+03  0.36383844967E+03  0.78946881225E+02 0.  0.
         -6    2    1    2    0  502 -0.50567773012E+02 -0.43681736368E+01 -0.53479014859E+02  0.18700425584E+03  0.17185577111E+03 0.  0.
        -24    2    5    5    0    0 -0.25534367444E+02  0.43429760436E+02 -0.89581120459E+02  0.12191381165E+03  0.65574784144E+02 0.  0.
          5    1    3    3  501    0 -0.12845454700E+02  0.56881103373E+02 -0.96334938359E+02  0.11270747968E+03  0.47000000000E+01 0. -1.
        -13    1    4    4    0    0 -0.10177187998E+02 -0.32771571383E+02 -0.69361968716E+02  0.77386263320E+02  0.00000000000E+00 0.  1.
         14    1    4    4    0    0  0.73590415710E+02 -0.19741358353E+02 -0.27613327317E+03  0.28645218635E+03  0.00000000000E+00 0. -1.
         -5    1    5    5    0  502 -0.25033405567E+02 -0.47797934073E+02  0.36102105600E+02  0.65090444189E+02  0.47000000000E+01 0.  1.
         11    1    6    6    0    0 -0.91419252235E+00 -0.12034588385E+02 -0.45065484809E+02  0.46653670667E+02  0.00000000000E+00 0. -1.
        -12    1    6    6    0    0 -0.24620174922E+02  0.55464348820E+02 -0.44515635650E+02  0.75260140982E+02  0.00000000000E+00 0.  1.
</event>
<event>
12    1  0.1598254E-001  0.2330356E+03  0.7818608E-02  0.1125967E+00
         21   -1    0    0  503  502  0.00000000000E+00  0.00000000000E+00  0.37570168160E+03  0.37570168160E+03  0.00000000000E+00 0. -1.
         21   -1    0    0  501  503 -0.00000000000E+00 -0.00000000000E+00 -0.15257746092E+03  0.15257746092E+03  0.00000000000E+00 0. -1.
          6    2    1    2  501    0 -0.49875643851E+01 -0.14434711233E+03  0.36078690558E+02  0.23581192990E+03  0.18287872958E+03 0.  0.
         24    2    3    3    0    0 -0.65010546829E+02 -0.90829654156E+02 -0.17678821619E+02  0.13896753478E+03  0.80765324958E+02 0.  0.
         -6    2    1    2    0  502  0.49875643851E+01  0.14434711233E+03  0.18704553012E+03  0.29246721263E+03  0.17230808306E+03 0.  0.
        -24    2    5    5    0    0 -0.16812163187E+02  0.13491558344E+03  0.20814257536E+03  0.26035246248E+03  0.77299479660E+02 0.  0.
          5    1    3    3  501    0  0.60022982444E+02 -0.53517458175E+02  0.53757512177E+02  0.96844395122E+02  0.47000000000E+01 0. -1.
        -13    1    4    4    0    0 -0.15395974896E+02  0.14183182491E+02  0.25076664788E+01  0.21082862703E+02  0.00000000000E+00 0.  1.
         14    1    4    4    0    0 -0.49614571934E+02 -0.10501283665E+03 -0.20186488098E+02  0.11788467208E+03  0.00000000000E+00 0. -1.
         -5    1    5    5    0  502  0.21799727572E+02  0.94315288871E+01 -0.21097045236E+02  0.32114750148E+02  0.47000000000E+01 0.  1.
         11    1    6    6    0    0 -0.20016594161E+02  0.28460449928E+02  0.11055365766E+03  0.11589983811E+03  0.00000000000E+00 0. -1.
        -12    1    6    6    0    0  0.32044309747E+01  0.10645513352E+03  0.97588917696E+02  0.14445262437E+03  0.00000000000E+00 0.  1.
</event>
<event>
12    1  0.1598254E-001  0.1758123E+03  0.7818608E-02  0.1172960E+00
         21   -1    0    0  503  502  0.00000000000E+00  0.00000000000E+00  0.16165626367E+03  0.16165626367E+03  0.00000000000E+00 0.  1.
         21   -1    0    0  501  503 -0.00000000000E+00 -0.00000000000E+00 -0.32025243851E+03  0.32025243851E+03  0.00000000000E+00 0.  1.
          6    2    1    2  501    0 -0.22095737040E+02  0.28681997415E+02 -0.23541281330E+03  0.29381824129E+03  0.17204385394E+03 0.  0.
         24    2    3    3    0    0  0.51489406257E+02  0.37515136300E+02 -0.12217047899E+03  0.15839773348E+03  0.78138797192E+02 0.  0.
         -6    2    1    2    0  502  0.22095737040E+02 -0.28681997415E+02  0.76816638451E+02  0.18809046089E+03  0.16782832587E+03 0.  0.
        -24    2    5    5    0    0  0.55428749613E+02  0.77980574594E+01  0.94904522998E+02  0.13525916620E+03  0.78453920060E+02 0.  0.
          5    1    3    3  501    0 -0.73585143297E+02 -0.88331388850E+01 -0.11324233431E+03  0.13542050781E+03  0.47000000000E+01 0. -1.
        -11    1    4    4    0    0  0.24356508744E+02  0.35978594749E+02 -0.12376997656E+03  0.13117433399E+03  0.00000000000E+00 0.  1.
         12    1    4    4    0    0  0.27132897512E+02  0.15365415508E+01  0.15994975766E+01  0.27223399491E+02  0.00000000000E+00 0. -1.
         -5    1    5    5    0  502 -0.33333012573E+02 -0.36480054874E+02 -0.18087884548E+02  0.52831294686E+02  0.47000000000E+01 0.  1.
         11    1    6    6    0    0  0.52967020099E+02 -0.24965902954E+02  0.38807510299E+02  0.70248305204E+02  0.00000000000E+00 0. -1.
        -12    1    6    6    0    0  0.24617295140E+01  0.32763960413E+02  0.56097012699E+02  0.65010860999E+02  0.00000000000E+00 0.  1.
</event>
<event>
12    1  0.1598254E-001  0.2271473E+03  0.7818608E-02  0.1129061E+00
         21   -1    0    0  503  502  0.00000000000E+00  0.00000000000E+00  0.35251705840E+02  0.35251705840E+02  0.00000000000E+00 0.  1.
         21   -1    0    0  501  503 -0.00000000000E+00 -0.00000000000E+00 -0.16108066006E+04  0.16108066006E+04  0.00000000000E+00 0.  1.
          6    2    1    2  501    0 -0.13612705087E+03  0.56313432673E+02 -0.10448118319E+04  0.10687506899E+04  0.16998381230E+03 0.  0.
         24    2    3    3    0    0 -0.15305372951E+01  0.36319756489E+02 -0.50760511458E+03  0.51455838062E+03  0.76065152740E+02 0.  0.
         -6    2    1    2    0  502  0.13612705087E+03 -0.56313432673E+02 -0.53074306285E+03  0.57730761652E+03  0.17289912852E+03 0.  0.
        -24    2    5    5    0    0  0.31518950602E+02 -0.60076714118E+02 -0.37433137868E+03  0.38904258558E+03  0.81409437429E+02 0.  0.
          5    1    3    3  501    0 -0.13459651357E+03  0.19993676184E+02 -0.53720671734E+03  0.55419230932E+03  0.47000000000E+01 0. -1.
        -11    1    4    4    0    0 -0.23708924491E+02  0.51987098888E+02 -0.34826965795E+03  0.35292566668E+03  0.00000000000E+00 0.  1.
         12    1    4    4    0    0  0.22178387195E+02 -0.15667342399E+02 -0.15933545663E+03  0.16163271394E+03  0.00000000000E+00 0. -1.
         -5    1    5    5    0  502  0.10460810026E+03  0.37632814457E+01 -0.15641168417E+03  0.18826503094E+03  0.47000000000E+01 0.  1.
         11    1    6    6    0    0  0.40465980282E+02 -0.41296394945E+02 -0.35788169546E+03  0.36252199346E+03  0.00000000000E+00 0. -1.
        -12    1    6    6    0    0 -0.89470296797E+01 -0.18780319174E+02 -0.16449683221E+02  0.26520592120E+02  0.00000000000E+00 0.  1.
</event>
<event>
12    1  0.1598254E-001  0.1885539E+03  0.7818608E-02  0.1160631E+00
         21   -1    0    0  503  502  0.00000000000E+00  0.00000000000E+00  0.55424268358E+02  0.55424268358E+02  0.00000000000E+00 0. -1.
         21   -1    0    0  501  503 -0.00000000000E+00 -0.00000000000E+00 -0.78438032150E+03  0.78438032150E+03  0.00000000000E+00 0. -1.
          6    2    1    2  501    0 -0.55456872754E+02 -0.55399047215E+02 -0.54854254211E+03  0.57884171811E+03  0.16737471420E+03 0.  0.
         24    2    3    3    0    0 -0.84905047463E+02 -0.15422443349E+01 -0.43629509118E+03  0.45082089773E+03  0.75331465160E+02 0.  0.
         -6    2    1    2    0  502  0.55456872754E+02  0.55399047215E+02 -0.18041351103E+03  0.26096287174E+03  0.17148780219E+03 0.  0.
        -24    2    5    5    0    0  0.25499911996E+02  0.98409014506E+02 -0.15331905218E+03  0.20177269955E+03  0.82890957731E+02 0.  0.
          5    1    3    3  501    0  0.29448174708E+02 -0.53856802880E+02 -0.11224745093E+03  0.12802082038E+03  0.47000000000E+01 0. -1.
        -13    1    4    4    0    0 -0.36349534560E+02 -0.37853400291E+01 -0.52544908154E+02  0.64004568859E+02  0.00000000000E+00 0.  1.
         14    1    4    4    0    0 -0.48555512902E+02  0.22430956941E+01 -0.38375018302E+03  0.38681632887E+03  0.00000000000E+00 0. -1.
         -5    1    5    5    0  502  0.29956960759E+02 -0.43009967291E+02 -0.27094458849E+02  0.59190172196E+02  0.47000000000E+01 0.  1.
         11    1    6    6    0    0  0.28434030229E+02  0.35618104549E+02 -0.12037846894E+02  0.47138659342E+02  0.00000000000E+00 0. -1.
        -12    1    6    6    0    0 -0.29341182337E+01  0.62790909957E+02 -0.14128120529E+03  0.15463404021E+03  0.00000000000E+00 0.  1.
</event>
<event>
12    1  0.1598254E-001  0.2024430E+03  0.7818608E-02  0.1147993E+00
         21   -1    0    0  501  502  0.00000000000E+00  0.00000000000E+00  0.78317923707E+03  0.78317923707E+03  0.00000000000E+00 0.  1.
         21   -1    0    0  502  503 -0.00000000000E+00 -0.00000000000E+00 -0.59554457100E+02  0.59554457100E+02  0.00000000000E+00 0.  1.
         -6    2    1    2    0  503 -0.18660818173E+02 -0.10702003441E+03  0.21245954139E+03  0.29346590123E+03  0.17082641645E+03 0.  0.
        -24    2    3    3    0    0 -0.50405285200E+02 -0.16710444513E+02  0.15334695263E+03  0.18086074431E+03  0.79846034467E+02 0.  0.
          6    2    1    2  501    0  0.18660818173E+02  0.10702003441E+03  0.51116523858E+03  0.54926779294E+03  0.16912626446E+03 0.  0.
         24    2    5    5    0    0  0.67920059190E+02  0.10195037106E+03  0.42015223869E+03  0.44554879536E+03  0.83539288750E+02 0.  0.
          5    1    5    5  501    0 -0.49259241017E+02  0.50696633552E+01  0.91012999889E+02  0.10371899759E+03  0.47000000000E+01 0. -1.
        -13    1    6    6    0    0  0.42341114231E+02 -0.67515101227E+00  0.11084289839E+03  0.11865653756E+03  0.00000000000E+00 0.  1.
         14    1    6    6    0    0  0.25578944959E+02  0.10262552207E+03  0.30930934030E+03  0.32689225779E+03  0.00000000000E+00 0. -1.
         -5    1    3    3    0  503  0.31744467027E+02 -0.90309589897E+02  0.59112588758E+02  0.11260515692E+03  0.47000000000E+01 0.  1.
         13    1    4    4    0    0 -0.30557052223E+02  0.29850969244E+02  0.91208607028E+02  0.10071655177E+03  0.00000000000E+00 0. -1.
        -14    1    4    4    0    0 -0.19848232978E+02 -0.46561413757E+02  0.62138345605E+02  0.80144192540E+02  0.00000000000E+00 0.  1.
</event>
<event>
12    1  0.1598254E-001  0.2382919E+03  0.7818608E-02  0.1121276E+00
         21   -1    0    0  501  502  0.00000000000E+00  0.00000000000E+00  0.42792273024E+03  0.42792273024E+03  0.00000000000E+00 0.  1.
         21   -1    0    0  502  503 -0.00000000000E+00 -0.00000000000E+00 -0.50032118911E+03  0.50032118911E+03  0.00000000000E+00 0. -1.
         -6    2    1    2    0  503 -0.10706172002E+03  0.12170242659E+03 -0.43468528471E+03  0.49571599390E+03  0.17466927987E+03 0.  0.
        -24    2    3    3    0    0  0.66580198219E+01  0.63695095104E+02 -0.13981470672E+03  0.17436295206E+03  0.82175984733E+02 0.  0.
          6    2    1    2  501    0  0.10706172002E+03 -0.12170242659E+03  0.36228682584E+03  0.43252792545E+03  0.17191558855E+03 0.  0.
         24    2    5    5    0    0  0.12068354856E+03 -0.55034805488E+02  0.31140967834E+03  0.34743562231E+03  0.78372030593E+02 0.  0.
          5    1    5    5  501    0 -0.13621828538E+02 -0.66667621104E+02  0.50877147508E+02  0.85092303147E+02  0.47000000000E+01 0. -1.
        -13    1    6    6    0    0  0.56810025259E+01 -0.99930010387E+01  0.11396658206E+03  0.11454481955E+03  0.00000000000E+00 0.  1.
         14    1    6    6    0    0  0.11500254603E+03 -0.45041804449E+02  0.19744309628E+03  0.23289080276E+03  0.00000000000E+00 0. -1.
         -5    1    3    3    0  503 -0.11371973984E+03  0.58007331487E+02 -0.29487057800E+03  0.32135304185E+03  0.47000000000E+01 0.  1.
         11    1    4    4    0    0 -0.26997963395E+02 -0.52024413575E+01 -0.38012073772E+02  0.46913464763E+02  0.00000000000E+00 0. -1.
        -12    1    4    4    0    0  0.33655983217E+02  0.68897536462E+02 -0.10180263295E+03  0.12744948729E+03  0.00000000000E+00 0.  1.
</event>
<event>
12    1  0.1598254E-001  0.1819804E+03  0.7818608E-02  0.1166313E+00
         21   -1    0    0  501  502  0.00000000000E+00  0.00000000000E+00  0.19459653192E+03  0.19459653192E+03  0.00000000000E+00 0.  1.
         21   -1    0    0  502  503 -0.00000000000E+00 -0.00000000000E+00 -0.21945636031E+03  0.21945636031E+03  0.00000000000E+00 0.  1.
         -6    2    1    2    0  503 -0.54038620499E+02  0.22774734672E+02 -0.11215870497E+03  0.21376725862E+03  0.17227305277E+03 0.  0.
        -24    2    3    3    0    0  0.17286918862E+02  0.59003983403E+02 -0.54635660594E+02  0.11512202729E+03  0.80546372598E+02 0.  0.
          6    2    1    2  501    0  0.54038620499E+02 -0.22774734672E+02  0.87298876590E+02  0.20028563361E+03  0.17045345444E+03 0.  0.
         24    2    5    5    0    0  0.39516525243E+02 -0.24940153874E+02  0.12770188148E+03  0.15704129183E+03  0.78553356160E+02 0.  0.
          5    1    5    5  501    0  0.14522095256E+02  0.21654192018E+01 -0.40403004892E+02  0.43244341772E+02  0.47000000000E+01 0. -1.
        -11    1    6    6    0    0  0.45748904955E+02  0.15583239020E+02  0.85423717244E+02  0.98147904261E+02  0.00000000000E+00 0.  1.
         12    1    6    6    0    0 -0.62323797122E+01 -0.40523392893E+02  0.42278164238E+02  0.58893387573E+02  0.00000000000E+00 0. -1.
         -5    1    3    3    0  503 -0.71325539361E+02 -0.36229248731E+02 -0.57523044381E+02  0.98645231327E+02  0.47000000000E+01 0.  1.
         13    1    4    4    0    0  0.23020356338E+02  0.69836835381E+02 -0.65701321538E+02  0.98609249230E+02  0.00000000000E+00 0. -1.
        -14    1    4    4    0    0 -0.57334374755E+01 -0.10832851978E+02  0.11065660944E+02  0.16512778064E+02  0.00000000000E+00 0.  1.
</event>
<event>
12    1  0.1598254E-001  0.2068866E+03  0.7818608E-02  0.1144218E+00
         21   -1    0    0  503  502  0.00000000000E+00  0.00000000000E+00  0.47022314169E+03  0.47022314169E+03  0.00000000000E+00 0. -1.
         21   -1    0    0  501  503 -0.00000000000E+00 -0.00000000000E+00 -0.14572663925E+03  0.14572663925E+03  0.00000000000E+00 0. -1.
          6    2    1    2  501    0  0.11421801899E+03 -0.38576347690E+01 -0.27247097025E+02  0.20787428071E+03  0.17148957717E+03 0.  0.
         24    2    3    3    0    0  0.14292521710E+03 -0.62727823582E+01  0.61770619777E+01  0.16349860532E+03  0.78909266656E+02 0.  0.
         -6    2    1    2    0  502 -0.11421801899E+03  0.38576347690E+01  0.35174359947E+03  0.40807550023E+03  0.17245700020E+03 0.  0.
        -24    2    5    5    0    0 -0.10295539353E+03 -0.54984390334E+02  0.28687797912E+03  0.31965112943E+03  0.79087125362E+02 0.  0.
          5    1    3    3  501    0 -0.28707198116E+02  0.24151475892E+01 -0.33424159003E+02  0.44375675393E+02  0.47000000000E+01 0. -1.
        -13    1    4    4    0    0  0.17160003232E+02 -0.16971234808E+02  0.26288274213E+02  0.35686998794E+02  0.00000000000E+00 0.  1.
         14    1    4    4    0    0  0.12576521387E+03  0.10698452449E+02 -0.20111212236E+02  0.12781160653E+03  0.00000000000E+00 0. -1.
         -5    1    5    5    0  502 -0.11262625454E+02  0.58842025103E+02  0.64865620341E+02  0.88424370807E+02  0.47000000000E+01 0.  1.
         11    1    6    6    0    0 -0.26811749305E+02  0.16912109217E+02  0.37041793191E+02  0.48754320647E+02  0.00000000000E+00 0. -1.
        -12    1    6    6    0    0 -0.76143644229E+02 -0.71896499551E+02  0.24983618593E+03  0.27089680878E+03  0.00000000000E+00 0.  1.
</event>
<event>
12    1  0.1598254E-001  0.2373205E+03  0.7818608E-02  0.1122322E+00
         21   -1    0    0  501  502  0.00000000000E+00  0.00000000000E+00  0.11442426950E+04  0.11442426950E+04  0.00000000000E+00 0. -1.
         21   -1    0    0  502  503 -0.00000000000E+00 -0.00000000000E+00 -0.59759554828E+02  0.59759554828E+02  0.00000000000E+00 0. -1.
         -6    2    1    2    0  503 -0.52255252022E+02 -0.14577566090E+03  0.28304345178E+03  0.36937055156E+03  0.17983285043E+03 0.  0.
        -24    2    3    3    0    0  0.13647864457E+02 -0.15011738800E+03  0.19731969028E+03  0.26105284922E+03  0.80573168799E+02 0.  0.
          6    2    1    2  501    0  0.52255252022E+02  0.14577566090E+03  0.80143968839E+03  0.83463169826E+03  0.17413598977E+03 0.  0.
         24    2    5    5    0    0  0.95924918703E+02  0.90658383415E+02  0.43499714488E+03  0.46147331129E+03  0.79464259090E+02 0.  0.
          5    1    5    5  501    0 -0.43669666682E+02  0.55117277484E+02  0.36644254351E+03  0.37315838696E+03  0.47000000000E+01 0. -1.
        -11    1    6    6    0    0  0.58530508648E+02  0.54930131864E+01  0.13148844664E+03  0.14403195908E+03  0.00000000000E+00 0.  1.
         12    1    6    6    0    0  0.37394410055E+02  0.85165370229E+02  0.30350869823E+03  0.31744135221E+03  0.00000000000E+00 0. -1.
         -5    1    3    3    0  503 -0.65903116478E+02  0.43417271013E+01  0.85723761495E+02  0.10831770234E+03  0.47000000000E+01 0.  1.
         13    1    4    4    0    0  0.39609161310E+02 -0.61650325013E+02  0.55606537808E+02  0.91987690920E+02  0.00000000000E+00 0. -1.
        -14    1    4    4    0    0 -0.25961296853E+02 -0.88467062987E+02  0.14171315247E+03  0.16906515830E+03  0.00000000000E+00 0.  1.
</event>
<event>
12    1  0.1598254E-001  0.2300095E+03  0.7818608E-02  0.1127191E+00
         21   -1    0    0  503  502  0.00000000000E+00  0.00000000000E+00  0.11966732052E+04  0.11966732052E+04  0.00000000000E+00 0. -1.
         21   -1    0    0  501  503 -0.00000000000E+00 -0.00000000000E+00 -0.63812465696E+02  0.63812465696E+02  0.00000000000E+00 0. -1.
          6    2    1    2  501    0  0.14752872090E+03  0.62028673479E+01  0.20913145115E+03  0.30855070932E+03  0.17223349648E+03 0.  0.
         24    2    3    3    0    0  0.14183934489E+03  0.42469941345E+02  0.10502959888E+03  0.19806561846E+03  0.79225481371E+02 0.  0.
         -6    2    1    2    0  502 -0.14752872090E+03 -0.62028673479E+01  0.92372928831E+03  0.95193496153E+03  0.17635524900E+03 0.  0.
        -24    2    5    5    0    0 -0.31720640277E+02  0.75132658160E+01  0.62810230031E+03  0.63410316658E+03  0.80694969059E+02 0.  0.
          5    1    3    3  501    0  0.56893760057E+01 -0.36267073997E+02  0.10410185227E+03  0.11048509086E+03  0.47000000000E+01 0. -1.
        -13    1    4    4    0    0  0.83404972813E+01  0.32405827836E+02  0.27842938510E+02  0.43530802859E+02  0.00000000000E+00 0.  1.
         14    1    4    4    0    0  0.13349884761E+03  0.10064113509E+02  0.77186660366E+02  0.15453481560E+03  0.00000000000E+00 0. -1.
         -5    1    5    5    0  502 -0.11580808062E+03 -0.13716133164E+02  0.29562698800E+03  0.31783179495E+03  0.47000000000E+01 0.  1.
         11    1    6    6    0    0 -0.24825906471E+02 -0.14700529233E+02  0.72725976629E+02  0.78240008107E+02  0.00000000000E+00 0. -1.
        -12    1    6    6    0    0 -0.68947338057E+01  0.22213795049E+02  0.55537632368E+03  0.55586315847E+03  0.00000000000E+00 0.  1.
</event>
<event>
12    1  0.1598254E-001  0.1809955E+03  0.7818608E-02  0.1168871E+00
         21   -1    0    0  501  502  0.00000000000E+00  0.00000000000E+00  0.71179817383E+03  0.71179817383E+03  0.00000000000E+00 0. -1.
         21   -1    0    0  502  503 -0.00000000000E+00 -0.00000000000E+00 -0.57255486037E+02  0.57255486037E+02  0.00000000000E+00 0. -1.
         -6    2    1    2    0  503  0.23438072102E+02 -0.41558648506E+02  0.13611990713E+03  0.21994388513E+03  0.16604282279E+03 0.  0.
        -24    2    3    3    0    0  0.76399023201E+02 -0.92058003583E+01  0.91654536991E+02  0.14345317807E+03  0.79099321370E+02 0.  0.
          6    2    1    2  501    0 -0.23438072102E+02  0.41558648506E+02  0.51842278066E+03  0.54910977474E+03  0.17459352999E+03 0.  0.
         24    2    5    5    0    0 -0.26384526988E+02 -0.34022440057E+02  0.16948297870E+03  0.19203519158E+03  0.79368539388E+02 0.  0.
          5    1    5    5  501    0  0.29464548868E+01  0.75581088563E+02  0.34893980196E+03  0.35707458316E+03  0.47000000000E+01 0. -1.
        -11    1    6    6    0    0 -0.50043901936E+02 -0.96331336581E+01  0.13172023403E+03  0.14123529813E+03  0.00000000000E+00 0.  1.
         12    1    6    6    0    0  0.23659374947E+02 -0.24389306399E+02  0.37762744669E+02  0.50799893449E+02  0.00000000000E+00 0. -1.
         -5    1    3    3    0  503 -0.52960951099E+02 -0.32352848147E+02  0.44465370144E+02  0.76490707060E+02  0.47000000000E+01 0.  1.
         13    1    4    4    0    0  0.25699302065E+02 -0.41207836489E+02  0.54133704311E+02  0.72725496610E+02  0.00000000000E+00 0. -1.
        -14    1    4    4    0    0  0.50699721136E+02  0.32002036131E+02  0.37520832680E+02  0.70727681460E+02  0.00000000000E+00 0.  1.
</event>
<event>
12    1  0.1598254E-001  0.1788790E+03  0.7818608E-02  0.1169369E+00
         21   -1    0    0  503  502  0.00000000000E+00  0.00000000000E+00  0.11646586270E+03  0.11646586270E+03  0.00000000000E+00 0. -1.
         21   -1    0    0  501  503 -0.00000000000E+00 -0.00000000000E+00 -0.91671378564E+03  0.91671378564E+03  0.00000000000E+00 0. -1.
          6    2    1    2  501    0 -0.39755639371E+02  0.40414115438E+01 -0.83407333625E+03  0.85303927880E+03  0.17435835817E+03 0.  0.
         24    2    3    3    0    0 -0.79975876352E+02 -0.25146350111E+02 -0.40362891672E+03  0.41971021077E+03  0.78815473684E+02 0.  0.
         -6    2    1    2    0  502  0.39755639371E+02 -0.40414115438E+01  0.33825413311E+02  0.18014036954E+03  0.17236458535E+03 0.  0.
        -24    2    5    5    0    0  0.27371786979E+02 -0.23585670403E+02  0.86079216129E+02  0.12280026347E+03  0.79779538036E+02 0.  0.
          5    1    3    3  501    0  0.40220236981E+02  0.29187761655E+02 -0.43044441953E+03  0.43332906803E+03  0.47000000000E+01 0. -1.
        -11    1    4    4    0    0 -0.43376212238E+02  0.27008840609E+02 -0.16589950448E+03  0.17359037659E+03  0.00000000000E+00 0.  1.
         12    1    4    4    0    0 -0.36599664113E+02 -0.52155190720E+02 -0.23772941224E+03  0.24611983418E+03  0.00000000000E+00 0. -1.
         -5    1    5    5    0  502  0.12383852392E+02  0.19544258860E+02 -0.52253802819E+02  0.57340106064E+02  0.47000000000E+01 0.  1.
         11    1    6    6    0    0  0.77771099055E+01 -0.49358836927E+02  0.30681715023E+02  0.58635704635E+02  0.00000000000E+00 0. -1.
        -12    1    6    6    0    0  0.19594677073E+02  0.25773166524E+02  0.55397501106E+02  0.64164558840E+02  0.00000000000E+00 0.  1.
</event>
<event>
12    1  0.1598254E-001  0.2716368E+03  0.7818608E-02  0.1100443E+00
         21   -1    0    0  501  502  0.00000000000E+00  0.00000000000E+00  0.13012331826E+04  0.13012331826E+04  0.00000000000E+00 0.  1.
         21   -1    0    0  502  503 -0.00000000000E+00 -0.00000000000E+00 -0.60012200884E+02  0.60012200884E+02  0.00000000000E+00 0. -1.
         -6    2    1    2    0  503 -0.92342896203E+02  0.18856176544E+03  0.45671748480E+03  0.53104524617E+03  0.17127592562E+03 0.  0.
        -24    2    3    3    0    0  0.11748178424E+02  0.11085798962E+03  0.18910495129E+03  0.23353661322E+03  0.79694124945E+02 0.  0.
          6    2    1    2  501    0  0.92342896203E+02 -0.18856176544E+03  0.78450349696E+03  0.83020013736E+03  0.17234785016E+03 0.  0.
         24    2    5    5    0    0 -0.16350611891E+02 -0.10194784455E+03  0.43296371925E+03  0.45215443204E+03  0.79532023163E+02 0.  0.
          5    1    5    5  501    0  0.10869350809E+03 -0.86613920893E+02  0.35153977771E+03  0.37804570532E+03  0.47000000000E+01 0. -1.
        -13    1    6    6    0    0 -0.17807555089E+01 -0.11075578464E+03  0.33833794343E+03  0.35600923989E+03  0.00000000000E+00 0.  1.
         14    1    6    6    0    0 -0.14569856382E+02  0.88079400986E+01  0.94625775822E+02  0.96145192150E+02  0.00000000000E+00 0. -1.
         -5    1    3    3    0  503 -0.10409107463E+03  0.77703775818E+02  0.26761253351E+03  0.29750863296E+03  0.47000000000E+01 0.  1.
         11    1    4    4    0    0 -0.33284437833E+02  0.61433563071E+02  0.10435695713E+03  0.12558786158E+03  0.00000000000E+00 0. -1.
        -12    1    4    4    0    0  0.45032616257E+02  0.49424426550E+02  0.84747994158E+02  0.10794875164E+03  0.00000000000E+00 0.  1.
</event>
<event>
12    1  0.1598254E-001  0.2138672E+03  0.7818608E-02  0.1138865E+00
         21   -1    0    0  501  502  0.00000000000E+00  0.00000000000E+00  0.78887310818E+03  0.78887310818E+03  0.00000000000E+00 0. -1.
         21   -1    0    0  502  503 -0.00000000000E+00 -0.00000000000E+00 -0.57941964544E+02  0.57941964544E+02  0.00000000000E+00 0. -1.
         -6    2    1    2    0  503 -0.24694638986E+02 -0.12205853868E+03  0.32820210832E+03  0.39082182647E+03  0.17180501763E+03 0.  0.
        -24    2    3    3    0    0  0.68116583626E+01 -0.93972758597E+02  0.10233775225E+03  0.16099960135E+03  0.81059102219E+02 0.  0.
          6    2    1    2  501    0  0.24694638986E+02  0.12205853868E+03  0.40272903532E+03  0.45599324625E+03  0.17387079307E+03 0.  0.
         24    2    5    5    0    0 -0.52768338064E+01  0.28399169010E+02  0.70112643003E+02  0.10911268879E+03  0.78456601832E+02 0.  0.
          5    1    5    5  501    0  0.29971472792E+02  0.93659369669E+02  0.33261639232E+03  0.34688055746E+03  0.47000000000E+01 0. -1.
        -11    1    6    6    0    0  0.12871973863E+02 -0.23729671599E+02  0.32827196597E+02  0.42501880685E+02  0.00000000000E+00 0.  1.
         12    1    6    6    0    0 -0.18148807669E+02  0.52128840609E+02  0.37285446406E+02  0.66610808107E+02  0.00000000000E+00 0. -1.
         -5    1    3    3    0  503 -0.31506297349E+02 -0.28085780082E+02  0.22586435607E+03  0.22982222512E+03  0.47000000000E+01 0.  1.
         13    1    4    4    0    0  0.10042851760E+02 -0.82579910435E+02  0.11611071702E+03  0.14283556660E+03  0.00000000000E+00 0. -1.
        -14    1    4    4    0    0 -0.32311933974E+01 -0.11392848162E+02 -0.13772964770E+02  0.18164034754E+02  0.00000000000E+00 0.  1.
</event>
<event>
12    1  0.1598254E-001  0.1814725E+03  0.7818608E-02  0.1168041E+00
         21   -1    0    0  503  502  0.00000000000E+00  0.00000000000E+00  0.56312062949E+03  0.56312062949E+03  0.00000000000E+00 0. -1.
         21   -1    0    0  501  503 -0.00000000000E+00 -0.00000000000E+00 -0.72355934585E+02  0.72355934585E+02  0.00000000000E+00 0. -1.
          6    2    1    2  501    0 -0.24112509292E+02  0.17952510788E+02  0.99447809837E+02  0.20693505558E+03  0.17896520499E+03 0.  0.
         24    2    3    3    0    0  0.20450615688E+02  0.59634988927E+01 -0.21142147749E+02  0.77731199657E+02  0.71703263438E+02 0.  0.
         -6    2    1    2    0  502  0.24112509292E+02 -0.17952510788E+02  0.39131688506E+03  0.42854150849E+03  0.17209071508E+03 0.  0.
        -24    2    5    5    0    0  0.12916166528E+02 -0.32649553920E+02  0.39889132380E+03  0.40802753057E+03  0.78354047548E+02 0.  0.
          5    1    3    3  501    0 -0.44563124980E+02  0.11989011896E+02  0.12058995759E+03  0.12920385592E+03  0.47000000000E+01 0. -1.
        -13    1    4    4    0    0 -0.86918570089E+01  0.15067831205E+02 -0.38757735089E+02  0.42482348625E+02  0.00000000000E+00 0.  1.
         14    1    4    4    0    0  0.29142472697E+02 -0.91043323125E+01  0.17615587340E+02  0.35248851032E+02  0.00000000000E+00 0. -1.
         -5    1    5    5    0  502  0.11196342764E+02  0.14697043131E+02 -0.75744387393E+01  0.20513977925E+02  0.47000000000E+01 0.  1.
         11    1    6    6    0    0  0.32088022152E+02 -0.75836496657E+01  0.67351082783E+02  0.74988807564E+02  0.00000000000E+00 0. -1.
        -12    1    6    6    0    0 -0.19171855625E+02 -0.25065904254E+02  0.33154024102E+03  0.33303872300E+03  0.00000000000E+00 0.  1.
</event>
<event>
12    1  0.1598254E-001  0.2144658E+03  0.7818608E-02  0.1138186E+00
         21   -1    0    0  503  502  0.00000000000E+00  0.00000000000E+00  0.22535560484E+02  0.22535560484E+02  0.00000000000E+00 0.  1.
         21   -1    0    0  501  503 -0.00000000000E+00 -0.00000000000E+00 -0.30701799109E+04  0.30701799109E+04  0.00000000000E+00 0. -1.
          6    2    1    2  501    0  0.12529760266E+03  0.26722831062E+02 -0.24227864664E+04  0.24322602360E+04  0.17199417114E+03 0.  0.
         24    2    3    3    0    0  0.94808354446E+02 -0.45223165873E+02 -0.12817662293E+04  0.12885578742E+04  0.80143433809E+02 0.  0.
         -6    2    1    2    0  502 -0.12529760266E+03 -0.26722831062E+02 -0.62485788404E+03  0.66045523541E+03  0.17128964885E+03 0.  0.
        -24    2    5    5    0    0 -0.45989211515E+02  0.53604889301E+02 -0.30193373104E+03  0.31833762090E+03  0.72016464859E+02 0.  0.
          5    1    3    3  501    0  0.30489248215E+02  0.71945996934E+02 -0.11410202371E+04  0.11437023618E+04  0.47000000000E+01 0. -1.
        -11    1    4    4    0    0  0.83213264637E+02 -0.87111537989E+01 -0.61144627846E+03  0.61714413475E+03  0.00000000000E+00 0.  1.
         12    1    4    4    0    0  0.11595089809E+02 -0.36512012074E+02 -0.67031995080E+03  0.67141373949E+03  0.00000000000E+00 0. -1.
         -5    1    5    5    0  502 -0.79308391145E+02 -0.80327720363E+02 -0.32292415300E+03  0.34211761451E+03  0.47000000000E+01 0.  1.
         11    1    6    6    0    0 -0.23099295156E+02 -0.87750297054E+01 -0.15655936145E+03  0.15849735720E+03  0.00000000000E+00 0. -1.
        -12    1    6    6    0    0 -0.22889916359E+02  0.62379919007E+02 -0.14537436959E+03  0.15984026370E+03  0.00000000000E+00 0.  1.
</event>
<event>
12    1  0.1598254E-001  0.1808632E+03  0.7818608E-02  0.1167364E+00
         21   -1    0    0  501  502  0.00000000000E+00  0.00000000000E+00  0.21133056885E+03  0.21133056885E+03  0.00000000000E+00 0. -1.
         21   -1    0    0  502  503 -0.00000000000E+00 -0.00000000000E+00 -0.16028056459E+03  0.16028056459E+03  0.00000000000E+00 0. -1.
         -6    2    1    2    0  503 -0.49355497541E+02 -0.18355168458E+02 -0.13089126144E+02  0.17971184974E+03  0.17132468113E+03 0.  0.
        -24    2    3    3    0    0 -0.84240616980E+02 -0.45638411665E+02 -0.38790364963E+02  0.12829210066E+03  0.75992266116E+02 0.  0.
          6    2    1    2  501    0  0.49355497541E+02  0.18355168458E+02  0.64139130395E+02  0.19189928371E+03  0.17302782924E+03 0.  0.
         24    2    5    5    0    0  0.82360511141E+02  0.47785522483E+02  0.75669567698E+02  0.14595891317E+03  0.80693313868E+02 0.  0.
          5    1    5    5  501    0 -0.33005013600E+02 -0.29430354025E+02 -0.11530437303E+02  0.45940370538E+02  0.47000000000E+01 0. -1.
        -13    1    6    6    0    0  0.68136283081E+02  0.68590880955E+02  0.46111050647E+02  0.10711438285E+03  0.00000000000E+00 0.  1.
         14    1    6    6    0    0  0.14224228060E+02 -0.20805358472E+02  0.29558517051E+02  0.38844530314E+02  0.00000000000E+00 0. -1.
         -5    1    3    3    0  503  0.34885119439E+02  0.27283243206E+02  0.25701238819E+02  0.51419749075E+02  0.47000000000E+01 0.  1.
         11    1    4    4    0    0 -0.65330846308E+02 -0.94372691005E+01 -0.53411418678E+02  0.84911490227E+02  0.00000000000E+00 0. -1.
        -12    1    4    4    0    0 -0.18909770672E+02 -0.36201142564E+02  0.14621053715E+02  0.43380610433E+02  0.00000000000E+00 0.  1.
</event>
<event>
12    1  0.1598254E-001  0.2289800E+03  0.7818608E-02  0.1127600E+00
         21   -1    0    0  501  502  0.00000000000E+00  0.00000000000E+00  0.10364852018E+03  0.10364852018E+03  0.00000000000E+00 0. -1.
         21   -1    0    0  502  503 -0.00000000000E+00 -0.00000000000E+00 -0.84880568064E+03  0.84880568064E+03  0.00000000000E+00 0. -1.
         -6    2    1    2    0  503 -0.11326632232E+03 -0.10158145813E+03 -0.67725482614E+03  0.71491674107E+03  0.17112508500E+03 0.  0.
        -24    2    3    3    0    0 -0.39741562235E+02 -0.56952304605E+02 -0.54857135259E+03  0.56006462434E+03  0.88988189024E+02 0.  0.
          6    2    1    2  501    0  0.11326632232E+03  0.10158145813E+03 -0.67902334311E+02  0.23753745975E+03  0.16930819641E+03 0.  0.
         24    2    5    5    0    0  0.66743266715E+02  0.51720004910E+01  0.10747542981E+02  0.10461992357E+03  0.79676881764E+02 0.  0.
          5    1    5    5  501    0  0.46523055602E+02  0.96409457636E+02 -0.78649877291E+02  0.13291753617E+03  0.47000000000E+01 0. -1.
        -11    1    6    6    0    0 -0.16237724295E+01  0.22678028733E+02 -0.17411012954E+02  0.28636916667E+02  0.00000000000E+00 0.  1.
         12    1    6    6    0    0  0.68367039144E+02 -0.17506028242E+02  0.28158555935E+02  0.75983006906E+02  0.00000000000E+00 0. -1.
         -5    1    3    3    0  503 -0.73524760082E+02 -0.44629153522E+02 -0.12868347355E+03  0.15485211673E+03  0.47000000000E+01 0.  1.
         13    1    4    4    0    0 -0.56303641325E+02 -0.70773016343E+02 -0.46784630339E+03  0.47650717042E+03  0.00000000000E+00 0. -1.
        -14    1    4    4    0    0  0.16562079090E+02  0.13820711738E+02 -0.80725049201E+02  0.83557453918E+02  0.00000000000E+00 0.  1.
</event>
<event>
12    1  0.1598254E-001  0.2432405E+03  0.7818608E-02  0.1117741E+00
         21   -1    0    0  503  502  0.00000000000E+00  0.00000000000E+00  0.51805744544E+02  0.51805744544E+02  0.00000000000E+00 0. -1.
         21   -1    0    0  501  503 -0.00000000000E+00 -0.00000000000E+00 -0.11400275954E+04  0.11400275954E+04  0.00000000000E+00 0. -1.
          6    2    1    2  501    0  0.13946083381E+03  0.99012491476E+02 -0.53116328531E+03  0.58398451577E+03  0.17219373207E+03 0.  0.
         24    2    3    3    0    0  0.78573972019E+02  0.76550210135E+02 -0.17115534855E+03  0.21814360970E+03  0.79111802955E+02 0.  0.
         -6    2    1    2    0  502 -0.13946083381E+03 -0.99012491476E+02 -0.55705856554E+03  0.60784882417E+03  0.17295418459E+03 0.  0.
        -24    2    5    5    0    0 -0.12914218309E+03 -0.19532617448E+02 -0.27556742025E+03  0.31513244299E+03  0.79447007050E+02 0.  0.
          5    1    3    3  501    0  0.60886861789E+02  0.22462281341E+02 -0.36000793676E+03  0.36584090607E+03  0.47000000000E+01 0. -1.
        -13    1    4    4    0    0  0.10845189850E+02  0.51028314859E+02 -0.31753038087E+02  0.61071781438E+02  0.00000000000E+00 0.  1.
         14    1    4    4    0    0  0.67728782168E+02  0.25521895277E+02 -0.13940231046E+03  0.15707182827E+03  0.00000000000E+00 0. -1.
         -5    1    5    5    0  502 -0.10318650718E+02 -0.79479874028E+02 -0.28149114530E+03  0.29271638118E+03  0.47000000000E+01 0.  1.
         13    1    6    6    0    0 -0.40653844724E+02 -0.43480013234E+02 -0.13189861821E+03  0.14470830013E+03  0.00000000000E+00 0. -1.
        -14    1    6    6    0    0 -0.88488338365E+02  0.23947395786E+02 -0.14366880203E+03  0.17042414286E+03  0.00000000000E+00 0.  1.
</event>
<event>
12    1  0.1598254E-001  0.1880239E+03  0.7818608E-02  0.1160386E+00
         21   -1    0    0  503  502  0.00000000000E+00  0.00000000000E+00  0.78708833827E+03  0.78708833827E+03  0.00000000000E+00 0. -1.
         21   -1    0    0  501  503 -0.00000000000E+00 -0.00000000000E+00 -0.75021298988E+02  0.75021298988E+02  0.00000000000E+00 0. -1.
          6    2    1    2  501    0 -0.74307495704E+02 -0.72877927779E+01  0.82679832878E+02  0.20539949765E+03  0.17256385204E+03 0.  0.
         24    2    3    3    0    0 -0.60091919609E+02 -0.20313551804E+01 -0.41753826902E+01  0.11710662585E+03  0.10040598982E+03 0.  0.
         -6    2    1    2    0  502  0.74307495704E+02  0.72877927779E+01  0.62938720641E+03  0.65671013961E+03  0.17194544494E+03 0.  0.
        -24    2    5    5    0    0 -0.15402879498E+02 -0.27432478885E+02  0.21468938209E+03  0.23097568696E+03  0.79173528328E+02 0.  0.
          5    1    3    3  501    0 -0.14215576094E+02 -0.52564375975E+01  0.86855215568E+02  0.88292871803E+02  0.47000000000E+01 0. -1.
        -13    1    4    4    0    0 -0.74937854592E+02 -0.21283027756E+02  0.22430354251E+02  0.81066454919E+02  0.00000000000E+00 0.  1.
         14    1    4    4    0    0  0.14845934982E+02  0.19251672576E+02 -0.26605736941E+02  0.36040170930E+02  0.00000000000E+00 0. -1.
         -5    1    5    5    0  502  0.89710375202E+02  0.34720271663E+02  0.41469782431E+03  0.42573445265E+03  0.47000000000E+01 0.  1.
         11    1    6    6    0    0  0.31837340704E+02 -0.14858870627E+02  0.10913234059E+03  0.11464846297E+03  0.00000000000E+00 0. -1.
        -12    1    6    6    0    0 -0.47240220202E+02 -0.12573608258E+02  0.10555704150E+03  0.11632722398E+03  0.00000000000E+00 0.  1.
</event>
<event>
12    1  0.1598254E-001  0.2821809E+03  0.7818608E-02  0.1094628E+00
         21   -1    0    0  503  502  0.00000000000E+00  0.00000000000E+00  0.43685893031E+02  0.43685893031E+02  0.00000000000E+00 0.  1.
         21   -1    0    0  501  503 -0.00000000000E+00 -0.00000000000E+00 -0.20501811824E+04  0.20501811824E+04  0.00000000000E+00 0. -1.
          6    2    1    2  501    0  0.99039595629E+02  0.20168808276E+03 -0.65145600550E+03  0.70994433645E+03  0.17070181464E+03 0.  0.
         24    2    3    3    0    0  0.13287114818E+03  0.19151288196E+03 -0.58194877695E+03  0.63183253528E+03  0.78841915743E+02 0.  0.
         -6    2    1    2    0  502 -0.99039595629E+02 -0.20168808276E+03 -0.13550392839E+04  0.13839227390E+04  0.16918558574E+03 0.  0.
        -24    2    5    5    0    0 -0.89570184408E+02 -0.20100072620E+03 -0.13530093642E+04  0.13731360443E+04  0.80275442281E+02 0.  0.
          5    1    3    3  501    0 -0.33831552553E+02  0.10175200796E+02 -0.69507228553E+02  0.78111801161E+02  0.47000000000E+01 0. -1.
        -13    1    4    4    0    0  0.60068611803E+02  0.15027129976E+03 -0.36298675938E+03  0.39742809305E+03  0.00000000000E+00 0.  1.
         14    1    4    4    0    0  0.72802536379E+02  0.41241582207E+02 -0.21896201756E+03  0.23440444224E+03  0.00000000000E+00 0. -1.
         -5    1    5    5    0  502 -0.94694112208E+01 -0.68735655964E+00 -0.20299196230E+01  0.10786694655E+02  0.47000000000E+01 0.  1.
         13    1    6    6    0    0 -0.47354539545E+02 -0.13316810509E+03 -0.62640188245E+03  0.64214913763E+03  0.00000000000E+00 0. -1.
        -14    1    6    6    0    0 -0.42215644862E+02 -0.67832621111E+02 -0.72660748178E+03  0.73098690668E+03  0.00000000000E+00 0.  1.
</event>
<event>
12    1  0.1598254E-001  0.1738911E+03  0.7818608E-02  0.1173896E+00
         21   -1    0    0  503  502  0.00000000000E+00  0.00000000000E+00  0.31165664996E+02  0.31165664996E+02  0.00000000000E+00 0.  1.
         21   -1    0    0  501  503 -0.00000000000E+00 -0.00000000000E+00 -0.96925854006E+03  0.96925854006E+03  0.00000000000E+00 0.  1.
          6    2    1    2  501    0 -0.79263550447E+01  0.22275017837E+02 -0.47237755179E+03  0.50330362132E+03  0.17209003537E+03 0.  0.
         24    2    3    3    0    0  0.45810162852E+02 -0.12751376834E+02 -0.22232340117E+03  0.24511061228E+03  0.91598847749E+02 0.  0.
         -6    2    1    2    0  502  0.79263550447E+01 -0.22275017837E+02 -0.46571532327E+03  0.49712058373E+03  0.17227625756E+03 0.  0.
        -24    2    5    5    0    0  0.25841626485E+02 -0.52895133537E+02 -0.44388415840E+03  0.45520115869E+03  0.81910096945E+02 0.  0.
          5    1    3    3  501    0 -0.53736517896E+02  0.35026394670E+02 -0.25005415062E+03  0.25819300905E+03  0.47000000000E+01 0. -1.
        -13    1    4    4    0    0  0.56678682549E+02  0.28987029416E+01 -0.63568495831E+02  0.85216366951E+02  0.00000000000E+00 0.  1.
         14    1    4    4    0    0 -0.10868519697E+02 -0.15650079776E+02 -0.15875490534E+03  0.15989424533E+03  0.00000000000E+00 0. -1.
         -5    1    5    5    0  502 -0.17915271440E+02  0.30620115700E+02 -0.21831164867E+02  0.41919425040E+02  0.47000000000E+01 0.  1.
         11    1    6    6    0    0 -0.17337237554E+02 -0.73580306701E+01 -0.23295319185E+02  0.29956507095E+02  0.00000000000E+00 0. -1.
        -12    1    6    6    0    0  0.43178864039E+02 -0.45537102867E+02 -0.42058883922E+03  0.42524465159E+03  0.00000000000E+00 0.  1.
</event>
<event>
12    1  0.1598254E-001  0.2159673E+03  0.7818608E-02  0.1136952E+00
         21   -1    0    0  501  502  0.00000000000E+00  0.00000000000E+00  0.10685558287E+03  0.10685558287E+03  0.00000000000E+00 0.  1.
         21   -1    0    0  502  503 -0.00000000000E+00 -0.00000000000E+00 -0.44509472737E+03  0.44509472737E+03  0.00000000000E+00 0.  1.
         -6    2    1    2    0  503  0.70402120822E+02 -0.10946863310E+03 -0.13019414785E+03  0.25217528143E+03  0.17234272883E+03 0.  0.
        -24    2    3    3    0    0  0.98948358016E+02 -0.11758290730E+03 -0.75559455938E+02  0.18982330741E+03  0.81897124570E+02 0.  0.
          6    2    1    2  501    0 -0.70402120822E+02  0.10946863310E+03 -0.20804499664E+03  0.29977502881E+03  0.17216999454E+03 0.  0.
         24    2    5    5    0    0 -0.30517773070E+02  0.10309982135E+03 -0.61743456557E+02  0.14792788991E+03  0.80681463488E+02 0.  0.
          5    1    5    5  501    0 -0.39884347751E+02  0.63688117482E+01 -0.14630154009E+03  0.15184713889E+03  0.47000000000E+01 0. -1.
        -13    1    6    6    0    0 -0.21260979368E+02  0.10817005909E+03 -0.29670161543E+02  0.11416264456E+03  0.00000000000E+00 0.  1.
         14    1    6    6    0    0 -0.92567937025E+01 -0.50702377412E+01 -0.32073295014E+02  0.33765245349E+02  0.00000000000E+00 0. -1.
         -5    1    3    3    0  503 -0.28546237194E+02  0.81142741969E+01 -0.54634691913E+02  0.62351974020E+02  0.47000000000E+01 0.  1.
         11    1    4    4    0    0  0.19120584393E+02  0.63811348284E+01  0.63779888282E+01  0.21142241384E+02  0.00000000000E+00 0. -1.
        -12    1    4    4    0    0  0.79827773623E+02 -0.12396404213E+03 -0.81937444767E+02  0.16868106603E+03  0.00000000000E+00 0.  1.
</event>
<event>
12    1  0.1598254E-001  0.1895536E+03  0.7818608E-02  0.1159404E+00
         21   -1    0    0  501  502  0.00000000000E+00  0.00000000000E+00  0.42032589718E+03  0.42032589718E+03  0.00000000000E+00 0.  1.
         21   -1    0    0  502  503 -0.00000000000E+00 -0.00000000000E+00 -0.90523100402E+02  0.90523100402E+02  0.00000000000E+00 0.  1.
         -6    2    1    2    0  503  0.75801175830E+02 -0.89110791924E+01  0.97604368762E+02  0.21110464612E+03  0.17091908385E+03 0.  0.
        -24    2    3    3    0    0  0.62121295099E+01 -0.61307455459E+02  0.42539873566E+02  0.10794358639E+03  0.77749484580E+02 0.  0.
          6    2    1    2  501    0 -0.75801175830E+02  0.89110791924E+01  0.23219842801E+03  0.29974435146E+03  0.17350890660E+03 0.  0.
         24    2    5    5    0    0 -0.11298457008E+03  0.19034775223E+02  0.21709410074E+03  0.25808712242E+03  0.79694908488E+02 0.  0.
          5    1    5    5  501    0  0.37183394246E+02 -0.10123696031E+02  0.15104327278E+02  0.41657229042E+02  0.47000000000E+01 0. -1.
        -11    1    6    6    0    0 -0.26380848095E+02 -0.10441264721E+02  0.74223288541E+01  0.29326781630E+02  0.00000000000E+00 0.  1.
         12    1    6    6    0    0 -0.86603721980E+02  0.29476039944E+02  0.20967177188E+03  0.22876034079E+03  0.00000000000E+00 0. -1.
         -5    1    3    3    0  503  0.69589046320E+02  0.52396376267E+02  0.55064495197E+02  0.10316105973E+03  0.47000000000E+01 0.  1.
         11    1    4    4    0    0 -0.26168281869E+02 -0.56709172561E+01 -0.58545444194E+01  0.27408282852E+02  0.00000000000E+00 0. -1.
        -12    1    4    4    0    0  0.32380411379E+02 -0.55636538203E+02  0.48394417985E+02  0.80535303541E+02  0.00000000000E+00 0.  1.
</event>
<event>
12    1  0.1598254E-001  0.2230523E+03  0.7818608E-02  0.1131698E+00
         21   -1    0    0  503  502  0.00000000000E+00  0.00000000000E+00  0.69410660547E+03  0.69410660547E+03  0.00000000000E+00 0. -1.
         21   -1    0    0  501  503 -0.00000000000E+00 -0.00000000000E+00 -0.14398977938E+03  0.14398977938E+03  0.00000000000E+00 0. -1.
          6    2    1    2  501    0 -0.73517043507E+02  0.12173277080E+03 -0.22273052652E+02  0.22378173749E+03  0.17134338034E+03 0.  0.
         24    2    3    3    0    0 -0.44451373897E+02  0.89197330684E+02 -0.79952985570E+02  0.15130806865E+03  0.81052842609E+02 0.  0.
         -6    2    1    2    0  502  0.73517043507E+02 -0.12173277080E+03  0.57238987875E+03  0.61431464736E+03  0.17183913842E+03 0.  0.
        -24    2    5    5    0    0  0.77505634243E+02 -0.67682966169E+02  0.52951538934E+03  0.54504992272E+03  0.78132985754E+02 0.  0.
          5    1    3    3  501    0 -0.29065669610E+02  0.32535440118E+02  0.57679932918E+02  0.72473668839E+02  0.47000000000E+01 0. -1.
        -11    1    4    4    0    0  0.92234679035E+01  0.53284152759E+02 -0.65843348596E+02  0.85203402806E+02  0.00000000000E+00 0.  1.
         12    1    4    4    0    0 -0.53674841801E+02  0.35913177925E+02 -0.14109636974E+02  0.66104665845E+02  0.00000000000E+00 0. -1.
         -5    1    5    5    0  502 -0.39885907353E+01 -0.54049804633E+02  0.42874489410E+02  0.69264724637E+02  0.47000000000E+01 0.  1.
         13    1    6    6    0    0 -0.19046436857E+01 -0.31487650632E+02  0.63162527962E+02  0.70601733325E+02  0.00000000000E+00 0. -1.
        -14    1    6    6    0    0  0.79410277928E+02 -0.36195315537E+02  0.46635286137E+03  0.47444818939E+03  0.00000000000E+00 0.  1.
</event>
<event>
12    1  0.1598254E-001  0.2927942E+03  0.7818608E-02  0.1088916E+00
         21   -1    0    0  501  502  0.00000000000E+00  0.00000000000E+00  0.10436535008E+04  0.10436535008E+04  0.00000000000E+00 0.  1.
         21   -1    0    0  502  503 -0.00000000000E+00 -0.00000000000E+00 -0.12995026171E+03  0.12995026171E+03  0.00000000000E+00 0. -1.
         -6    2    1    2    0  503  0.20598552879E+03 -0.11626151189E+03  0.10085998169E+03  0.30967912426E+03  0.17257359844E+03 0.  0.
        -24    2    3    3    0    0  0.62384778190E+02 -0.26737280463E+01  0.67636166909E+02  0.12353597483E+03  0.82386143438E+02 0.  0.
          6    2    1    2  501    0 -0.20598552879E+03  0.11626151189E+03  0.81284325738E+03  0.86392463822E+03  0.17235092757E+03 0.  0.
         24    2    5    5    0    0 -0.10302481542E+03 -0.79899424490E+01  0.38637488011E+03  0.40792387154E+03  0.80239548949E+02 0.  0.
          5    1    5    5  501    0 -0.10296071337E+03  0.12425145434E+03  0.42646837727E+03  0.45600076668E+03  0.47000000000E+01 0. -1.
        -11    1    6    6    0    0 -0.51076376683E+02 -0.23392719215E+02  0.86149481570E+02  0.10284818298E+03  0.00000000000E+00 0.  1.
         12    1    6    6    0    0 -0.51948438737E+02  0.15402776766E+02  0.30022539854E+03  0.30507568856E+03  0.00000000000E+00 0. -1.
         -5    1    3    3    0  503  0.14360075060E+03 -0.11358778385E+03  0.33223814777E+02  0.18614314943E+03  0.47000000000E+01 0.  1.
         11    1    4    4    0    0 -0.16084735817E+02  0.11630212247E+02  0.14725491568E+01  0.19903491257E+02  0.00000000000E+00 0. -1.
        -12    1    4    4    0    0  0.78469514007E+02 -0.14303940293E+02  0.66163617752E+02  0.10363248357E+03  0.00000000000E+00 0.  1.
</event>
<event>
12    1  0.1598254E-001  0.3259542E+03  0.7818608E-02  0.1073096E+00
         21   -1    0    0  501  502  0.00000000000E+00  0.00000000000E+00  0.25904798031E+03  0.25904798031E+03  0.00000000000E+00 0. -1.
         21   -1    0    0  502  503 -0.00000000000E+00 -0.00000000000E+00 -0.55581450301E+03  0.55581450301E+03  0.00000000000E+00 0.  1.
         -6    2    1    2    0  503 -0.11954673960E+03 -0.24849350742E+03 -0.35796682194E+03  0.48321262127E+03  0.17121257420E+03 0.  0.
        -24    2    3    3    0    0 -0.12948165788E+03 -0.14330313930E+03 -0.28726063061E+03  0.35599166529E+03  0.83127049739E+02 0.  0.
          6    2    1    2  501    0  0.11954673960E+03  0.24849350742E+03  0.61200299235E+02  0.33164986205E+03  0.17379789467E+03 0.  0.
         24    2    5    5    0    0  0.96592662550E+02  0.13996175611E+03 -0.29647958731E+02  0.18818723043E+03  0.74939953346E+02 0.  0.
          5    1    5    5  501    0  0.22954077052E+02  0.10853175131E+03  0.90848257966E+02  0.14346263162E+03  0.47000000000E+01 0. -1.
        -11    1    6    6    0    0  0.14337640401E+02  0.11877033845E+02 -0.30766203801E+02  0.35960967194E+02  0.00000000000E+00 0.  1.
         12    1    6    6    0    0  0.82255022149E+02  0.12808472226E+03  0.11182450697E+01  0.15222626323E+03  0.00000000000E+00 0. -1.
         -5    1    3    3    0  503  0.99349182824E+01 -0.10519036812E+03 -0.70706191331E+02  0.12722095598E+03  0.47000000000E+01 0.  1.
         11    1    4    4    0    0  0.52761899257E+01  0.65133795631E+01 -0.77331886013E+01  0.11404582386E+02  0.00000000000E+00 0. -1.
        -12    1    4    4    0    0 -0.13475784781E+03 -0.14981651886E+03 -0.27952744201E+03  0.34458708291E+03  0.00000000000E+00 0.  1.
</event>
<event>
12    1  0.1598254E-001  0.1754632E+03  0.7818608E-02  0.1172623E+00
         21   -1    0    0  501  502  0.00000000000E+00  0.00000000000E+00  0.80585046595E+02  0.80585046595E+02  0.00000000000E+00 0.  1.
         21   -1    0    0  502  503 -0.00000000000E+00 -0.00000000000E+00 -0.37931972228E+03  0.37931972228E+03  0.00000000000E+00 0.  1.
         -6    2    1    2    0  503  0.33510416124E+02 -0.14598591891E+02 -0.15690781568E+03  0.23538773496E+03  0.17161368324E+03 0.  0.
        -24    2    3    3    0    0  0.17122600198E+02  0.21146300142E+02 -0.17945202845E+02  0.90892213985E+02  0.84847008260E+02 0.  0.
          6    2    1    2  501    0 -0.33510416124E+02  0.14598591891E+02 -0.14182686001E+03  0.22451703391E+03  0.17016748639E+03 0.  0.
         24    2    5    5    0    0 -0.33570633877E+02 -0.11771490470E+02 -0.16747798094E+03  0.18742990845E+03  0.76259694679E+02 0.  0.
          5    1    5    5  501    0  0.60217753701E-01  0.26370082361E+02  0.25651120938E+02  0.37087125465E+02  0.47000000000E+01 0. -1.
        -13    1    6    6    0    0 -0.40711450124E+02 -0.10986408182E+02 -0.35121012699E+02  0.54878127419E+02  0.00000000000E+00 0.  1.
         14    1    6    6    0    0  0.71408162468E+01 -0.78508228852E+00 -0.13235696824E+03  0.13255178103E+03  0.00000000000E+00 0. -1.
         -5    1    3    3    0  503  0.16387815926E+02 -0.35744892034E+02 -0.13896261284E+03  0.14449552098E+03  0.47000000000E+01 0.  1.
         13    1    4    4    0    0 -0.19750461800E+02  0.28811007902E+01 -0.39634851415E+02  0.44376828749E+02  0.00000000000E+00 0. -1.
        -14    1    4    4    0    0  0.36873061999E+02  0.18265199352E+02  0.21689648571E+02  0.46515385236E+02  0.00000000000E+00 0.  1.
</event>
<event>
12    1  0.1598254E-001  0.2489134E+03  0.7818608E-02  0.1114323E+00
         21   -1    0    0  501  502  0.00000000000E+00  0.00000000000E+00  0.19186876021E+04  0.19186876021E+04  0.00000000000E+00 0.  1.
         21   -1    0    0  502  503 -0.00000000000E+00 -0.00000000000E+00 -0.92991191150E+02  0.92991191150E+02  0.00000000000E+00 0.  1.
         -6    2    1    2    0  503 -0.18373207633E+02  0.17613054489E+03  0.99729808133E+02  0.26814904149E+03  0.17492378403E+03 0.  0.
        -24    2    3    3    0    0 -0.67550583989E+02  0.15183590213E+03  0.10480383630E+03  0.21286360241E+03  0.81913653053E+02 0.  0.
          6    2    1    2  501    0  0.18373207633E+02 -0.17613054489E+03  0.17259666028E+04  0.17435297518E+04  0.17197597981E+03 0.  0.
         24    2    5    5    0    0 -0.83026881732E+01 -0.10249115135E+03  0.14703425037E+04  0.14761346626E+04  0.80579730589E+02 0.  0.
          5    1    5    5  501    0  0.26675895806E+02 -0.73639393540E+02  0.25562409910E+03  0.26739508922E+03  0.47000000000E+01 0. -1.
        -11    1    6    6    0    0  0.25954306303E+02 -0.34412740586E+02  0.85576602769E+03  0.85685083701E+03  0.00000000000E+00 0.  1.
         12    1    6    6    0    0 -0.34256994477E+02 -0.68078410765E+02  0.61457647604E+03  0.61928382555E+03  0.00000000000E+00 0. -1.
         -5    1    3    3    0  503  0.49177376356E+02  0.24294642765E+02 -0.50740281661E+01  0.55285439079E+02  0.47000000000E+01 0.  1.
         11    1    4    4    0    0 -0.18426811604E+02  0.27301232645E+02  0.65540216367E+02  0.73351377978E+02  0.00000000000E+00 0. -1.
        -12    1    4    4    0    0 -0.49123772385E+02  0.12453466948E+03  0.39263619932E+02  0.13951222443E+03  0.00000000000E+00 0.  1.
</event>
<event>
12    1  0.1598254E-001  0.1786312E+03  0.7818608E-02  0.1169162E+00
         21   -1    0    0  501  502  0.00000000000E+00  0.00000000000E+00  0.53699993334E+03  0.53699993334E+03  0.00000000000E+00 0.  1.
         21   -1    0    0  502  503 -0.00000000000E+00 -0.00000000000E+00 -0.59835935436E+02  0.59835935436E+02  0.00000000000E+00 0.  1.
         -6    2    1    2    0  503 -0.48207694290E+02  0.13193404365E+02  0.21254835772E+03  0.27757022187E+03  0.17137787486E+03 0.  0.
        -24    2    3    3    0    0 -0.13186450751E+02 -0.42507665479E+02  0.61955530603E+02  0.11316405939E+03  0.83587274498E+02 0.  0.
          6    2    1    2  501    0  0.48207694290E+02 -0.13193404365E+02  0.26461564018E+03  0.31926564691E+03  0.17149655553E+03 0.  0.
         24    2    5    5    0    0 -0.35358962593E+02  0.18912907297E+02  0.13772915884E+03  0.16390648066E+03  0.79297281843E+02 0.  0.
          5    1    5    5  501    0  0.83566656883E+02 -0.32106311663E+02  0.12688648134E+03  0.15535916625E+03  0.47000000000E+01 0. -1.
        -11    1    6    6    0    0  0.84472518784E+01  0.37116988339E+02  0.39692250074E+02  0.54995468937E+02  0.00000000000E+00 0.  1.
         12    1    6    6    0    0 -0.43806214472E+02 -0.18204081042E+02  0.98036908770E+02  0.10891101172E+03  0.00000000000E+00 0. -1.
         -5    1    3    3    0  503 -0.35021243538E+02  0.55701069844E+02  0.15059282712E+03  0.16440616247E+03  0.47000000000E+01 0.  1.
         13    1    4    4    0    0 -0.35111114233E+02  0.43678907934E+01  0.42226996234E+01  0.35632850080E+02  0.00000000000E+00 0. -1.
        -14    1    4    4    0    0  0.21924663482E+02 -0.46875556272E+02  0.57732830980E+02  0.77531209313E+02  0.00000000000E+00 0.  1.
</event>
<event>
12    1  0.1598254E-001  0.1913475E+03  0.7818608E-02  0.1160312E+00
         21   -1    0    0  501  502  0.00000000000E+00  0.00000000000E+00  0.26934426822E+03  0.26934426822E+03  0.00000000000E+00 0. -1.
         21   -1    0    0  502  503 -0.00000000000E+00 -0.00000000000E+00 -0.16362555228E+03  0.16362555228E+03  0.00000000000E+00 0. -1.
         -6    2    1    2    0  503  0.15052241332E+02 -0.44697902998E+02 -0.51347266981E+02  0.18541460364E+03  0.17180675456E+03 0.  0.
        -24    2    3    3    0    0 -0.14901679091E+02  0.37625779919E+02 -0.13217230009E+02  0.89756797696E+02  0.79017898031E+02 0.  0.
          6    2    1    2  501    0 -0.15052241332E+02  0.44697902998E+02  0.15706598292E+03  0.24755521687E+03  0.18544376481E+03 0.  0.
         24    2    5    5    0    0  0.41989484467E+02  0.73528037433E+02  0.57374774542E+02  0.12904208611E+03  0.78679769575E+02 0.  0.
          5    1    5    5  501    0 -0.57041725799E+02 -0.28830134435E+02  0.99691208378E+02  0.11851313076E+03  0.47000000000E+01 0. -1.
        -11    1    6    6    0    0  0.53652068051E+02  0.16958074017E+02  0.17766804282E+02  0.59006609926E+02  0.00000000000E+00 0.  1.
         12    1    6    6    0    0 -0.11662583585E+02  0.56569963416E+02  0.39607970259E+02  0.70035476187E+02  0.00000000000E+00 0. -1.
         -5    1    3    3    0  503  0.29953920423E+02 -0.82323682917E+02 -0.38130036972E+02  0.95657805940E+02  0.47000000000E+01 0.  1.
         13    1    4    4    0    0  0.15096020430E+02  0.32303456322E+02 -0.36791493398E+02  0.51234920802E+02  0.00000000000E+00 0. -1.
        -14    1    4    4    0    0 -0.29997699521E+02  0.53223235972E+01  0.23574263389E+02  0.38521876893E+02  0.00000000000E+00 0.  1.
</event>
<event>
12    1  0.1598254E-001  0.1851437E+03  0.7818608E-02  0.1163211E+00
         21   -1    0    0  503  502  0.00000000000E+00  0.00000000000E+00  0.38494812417E+03  0.38494812417E+03  0.00000000000E+00 0. -1.
         21   -1    0    0  501  503 -0.00000000000E+00 -0.00000000000E+00 -0.10244406698E+03  0.10244406698E+03  0.00000000000E+00 0. -1.
          6    2    1    2  501    0 -0.57826741594E+02  0.36778644591E+02  0.50737030943E+02  0.19075415057E+03  0.17063498736E+03 0.  0.
         24    2    3    3    0    0 -0.66783072741E+02  0.82321285625E+02  0.20050445479E+02  0.13491416000E+03  0.81012575151E+02 0.  0.
         -6    2    1    2    0  502  0.57826741594E+02 -0.36778644591E+02  0.23176702625E+03  0.29663804058E+03  0.17199294148E+03 0.  0.
        -24    2    5    5    0    0 -0.66038791487E+01 -0.62286074424E+02  0.78340997868E+02  0.12822316579E+03  0.79879296506E+02 0.  0.
          5    1    3    3  501    0  0.89563311467E+01 -0.45542641034E+02  0.30686585464E+02  0.55839990575E+02  0.47000000000E+01 0. -1.
        -13    1    4    4    0    0  0.31821876669E+01  0.59757217190E+02  0.11015077924E+02  0.60847212478E+02  0.00000000000E+00 0.  1.
         14    1    4    4    0    0 -0.69965260408E+02  0.22564068435E+02  0.90353675544E+01  0.74066947521E+02  0.00000000000E+00 0. -1.
         -5    1    5    5    0  502  0.64430620743E+02  0.25507429834E+02  0.15342602838E+03  0.16841487479E+03  0.47000000000E+01 0.  1.
         13    1    6    6    0    0  0.12703551729E+02 -0.23794754682E+02  0.80707765204E+02  0.85095910249E+02  0.00000000000E+00 0. -1.
        -14    1    6    6    0    0 -0.19307430877E+02 -0.38491319742E+02 -0.23667673358E+01  0.43127255537E+02  0.00000000000E+00 0.  1.
</event>
<event>
12    1  0.1598254E-001  0.2514796E+03  0.7818608E-02  0.1112451E+00
         21   -1    0    0  503  502  0.00000000000E+00  0.00000000000E+00  0.30080233063E+03  0.30080233063E+03  0.00000000000E+00 0.  1.
         21   -1    0    0  501  503 -0.00000000000E+00 -0.00000000000E+00 -0.39802421852E+03  0.39802421852E+03  0.00000000000E+00 0. -1.
          6    2    1    2  501    0  0.15716443139E+03 -0.93893828732E+02 -0.28890065121E+03  0.38302165552E+03  0.17241024551E+03 0.  0.
         24    2    3    3    0    0  0.76828099387E+01 -0.12339013915E+02 -0.10364536039E+03  0.13135211873E+03  0.79370911109E+02 0.  0.
         -6    2    1    2    0  502 -0.15716443139E+03  0.93893828732E+02  0.19167876332E+03  0.31580489364E+03  0.17168364212E+03 0.  0.
        -24    2    5    5    0    0 -0.16444077394E+03  0.10381008297E+03  0.20724430055E+03  0.29541731879E+03  0.80646702808E+02 0.  0.
          5    1    3    3  501    0  0.14948162145E+03 -0.81554814817E+02 -0.18525529082E+03  0.25166953679E+03  0.47000000000E+01 0. -1.
        -13    1    4    4    0    0  0.36796280504E+02  0.86897246020E+00 -0.20184386935E+02  0.41977742293E+02  0.00000000000E+00 0.  1.
         14    1    4    4    0    0 -0.29113470566E+02 -0.13207986375E+02 -0.83460973456E+02  0.89374376433E+02  0.00000000000E+00 0. -1.
         -5    1    5    5    0  502  0.72763425459E+01 -0.99162542344E+01 -0.15565537232E+02  0.20387574849E+02  0.47000000000E+01 0.  1.
         13    1    6    6    0    0 -0.59044943205E+01 -0.12502405534E+02  0.15593515934E+02  0.20840607872E+02  0.00000000000E+00 0. -1.
        -14    1    6    6    0    0 -0.15853627962E+03  0.11631248850E+03  0.19165078462E+03  0.27457671092E+03  0.00000000000E+00 0.  1.
</event>
<event>
12    1  0.1598254E-001  0.1874573E+03  0.7818608E-02  0.1161264E+00
         21   -1    0    0  503  502  0.00000000000E+00  0.00000000000E+00  0.37255467798E+03  0.37255467798E+03  0.00000000000E+00 0. -1.
         21   -1    0    0  501  503 -0.00000000000E+00 -0.00000000000E+00 -0.16792476406E+03  0.16792476406E+03  0.00000000000E+00 0. -1.
          6    2    1    2  501    0 -0.76040038161E+02 -0.49878151801E+01 -0.78203513758E+02  0.20116395229E+03  0.16895023064E+03 0.  0.
         24    2    3    3    0    0 -0.77125735019E+02  0.22999744786E+02  0.41582900779E+01  0.11404312251E+03  0.80691853082E+02 0.  0.
         -6    2    1    2    0  502  0.76040038161E+02  0.49878151801E+01  0.28283342768E+03  0.33931548974E+03  0.17126963555E+03 0.  0.
        -24    2    5    5    0    0  0.86495724802E+02  0.29699790714E+02  0.10747773529E+03  0.16185644665E+03  0.79261956600E+02 0.  0.
          5    1    3    3  501    0  0.10856968586E+01 -0.27987559966E+02 -0.82361803836E+02  0.87120829780E+02  0.47000000000E+01 0. -1.
        -13    1    4    4    0    0 -0.38921898406E+02  0.43718971468E+02  0.27543033087E+02  0.64690658625E+02  0.00000000000E+00 0.  1.
         14    1    4    4    0    0 -0.38203836613E+02 -0.20719226682E+02 -0.23384743009E+02  0.49352463889E+02  0.00000000000E+00 0. -1.
         -5    1    5    5    0  502 -0.10455686641E+02 -0.24711975534E+02  0.17535569240E+03  0.17745904309E+03  0.47000000000E+01 0.  1.
         11    1    6    6    0    0 -0.58369722589E+01  0.11796955027E+02  0.49838587685E+02  0.51547291059E+02  0.00000000000E+00 0. -1.
        -12    1    6    6    0    0  0.92332697061E+02  0.17902835687E+02  0.57639147602E+02  0.11030915560E+03  0.00000000000E+00 0.  1.
</event>
<event>
12    1  0.1598254E-001  0.1808156E+03  0.7818608E-02  0.1167170E+00
         21   -1    0    0  501  502  0.00000000000E+00  0.00000000000E+00  0.61299271061E+03  0.61299271061E+03  0.00000000000E+00 0.  1.
         21   -1    0    0  502  503 -0.00000000000E+00 -0.00000000000E+00 -0.89608290041E+02  0.89608290041E+02  0.00000000000E+00 0.  1.
         -6    2    1    2    0  503  0.57137428397E+02 -0.42327147046E+01  0.37878268837E+02  0.18474046464E+03  0.17149832193E+03 0.  0.
        -24    2    3    3    0    0 -0.30874197625E+02 -0.26774982290E+02  0.22322704435E+02  0.92446013411E+02  0.79861420640E+02 0.  0.
          6    2    1    2  501    0 -0.57137428397E+02  0.42327147046E+01  0.48550615173E+03  0.51786053602E+03  0.17082362188E+03 0.  0.
         24    2    5    5    0    0 -0.10207924919E+03  0.23078030066E+02  0.33236493919E+03  0.35708356581E+03  0.78034938237E+02 0.  0.
          5    1    5    5  501    0  0.44941820794E+02 -0.18845315362E+02  0.15314121255E+03  0.16077697020E+03  0.47000000000E+01 0. -1.
        -11    1    6    6    0    0 -0.58956632950E+02  0.38760668777E+02  0.27345956608E+03  0.28241531172E+03  0.00000000000E+00 0.  1.
         12    1    6    6    0    0 -0.43122616241E+02 -0.15682638711E+02  0.58905373103E+02  0.74668254090E+02  0.00000000000E+00 0. -1.
         -5    1    3    3    0  503  0.88011626023E+02  0.22542267586E+02  0.15555564401E+02  0.92294451225E+02  0.47000000000E+01 0.  1.
         11    1    4    4    0    0 -0.23210651324E+02  0.48162580206E+01  0.46324785414E+02  0.52037644258E+02  0.00000000000E+00 0. -1.
        -12    1    4    4    0    0 -0.76635463010E+01 -0.31591240311E+02 -0.24002080979E+02  0.40408369153E+02  0.00000000000E+00 0.  1.
</event>
<event>
12    1  0.1598254E-001  0.3304907E+03  0.7818608E-02  0.1071046E+00
         21   -1    0    0  503  502  0.00000000000E+00  0.00000000000E+00  0.14207879134E+03  0.14207879134E+03  0.00000000000E+00 0. -1.
         21   -1    0    0  501  503 -0.00000000000E+00 -0.00000000000E+00 -0.79356524674E+03  0.79356524674E+03  0.00000000000E+00 0.  1.
          6    2    1    2  501    0 -0.22568114352E+03  0.16815145553E+03 -0.23926240760E+03  0.40800809552E+03  0.17325477132E+03 0.  0.
         24    2    3    3    0    0 -0.19161942729E+03  0.11620223406E+03 -0.24984459719E+03  0.34481794708E+03  0.79095700030E+02 0.  0.
         -6    2    1    2    0  502  0.22568114352E+03 -0.16815145553E+03 -0.41222404781E+03  0.52763594256E+03  0.17106762333E+03 0.  0.
        -24    2    5    5    0    0  0.61446306652E+02 -0.46916339434E+02 -0.80709272599E+02  0.13828369690E+03  0.81434652565E+02 0.  0.
          5    1    3    3  501    0 -0.34061716229E+02  0.51949221467E+02  0.10582189597E+02  0.63190148443E+02  0.47000000000E+01 0. -1.
        -13    1    4    4    0    0 -0.83166906624E+02  0.28237406718E+02 -0.14756772086E+03  0.17172745190E+03  0.00000000000E+00 0.  1.
         14    1    4    4    0    0 -0.10845252066E+03  0.87964827347E+02 -0.10227687633E+03  0.17309049518E+03  0.00000000000E+00 0. -1.
         -5    1    5    5    0  502  0.16423483686E+03 -0.12123511610E+03 -0.33151477521E+03  0.38935224565E+03  0.47000000000E+01 0.  1.
         13    1    6    6    0    0 -0.13801639563E+02 -0.29846461279E+02 -0.12120128687E+02  0.35045599223E+02  0.00000000000E+00 0. -1.
        -14    1    6    6    0    0  0.75247946215E+02 -0.17069878155E+02 -0.68589143913E+02  0.10323809768E+03  0.00000000000E+00 0.  1.
</event>
<event>
12    1  0.1598254E-001  0.2175378E+03  0.7818608E-02  0.1135958E+00
         21   -1    0    0  501  502  0.00000000000E+00  0.00000000000E+00  0.46787065980E+03  0.46787065980E+03  0.00000000000E+00 0. -1.
         21   -1    0    0  502  503 -0.00000000000E+00 -0.00000000000E+00 -0.10949464196E+03  0.10949464196E+03  0.00000000000E+00 0. -1.
         -6    2    1    2    0  503  0.86502534462E+00 -0.13128682889E+03  0.26195899888E+03  0.34050730185E+03  0.17345237331E+03 0.  0.
        -24    2    3    3    0    0  0.11284278899E+02 -0.97423950538E+02  0.27496487278E+03  0.30247444591E+03  0.79160268283E+02 0.  0.
          6    2    1    2  501    0 -0.86502534462E+00  0.13128682889E+03  0.96417018959E+02  0.23685799992E+03  0.17195490942E+03 0.  0.
         24    2    5    5    0    0 -0.46192344421E+02  0.14002916095E+03  0.88266188008E+02  0.18974621509E+03  0.80441330154E+02 0.  0.
          5    1    5    5  501    0  0.45327319076E+02 -0.87423320594E+01  0.81508309513E+01  0.47111784828E+02  0.47000000000E+01 0. -1.
        -11    1    6    6    0    0 -0.31581070095E+02  0.14776028229E+03  0.83020958140E+02  0.17240343529E+03  0.00000000000E+00 0.  1.
         12    1    6    6    0    0 -0.14611274326E+02 -0.77311213438E+01  0.52452298677E+01  0.17342779795E+02  0.00000000000E+00 0. -1.
         -5    1    3    3    0  503 -0.10419253554E+02 -0.33862878347E+02 -0.13005873902E+02  0.38032855935E+02  0.47000000000E+01 0.  1.
         13    1    4    4    0    0  0.16664815974E+02 -0.10662384423E+03  0.26989736297E+03  0.29067326466E+03  0.00000000000E+00 0. -1.
        -14    1    4    4    0    0 -0.53805370755E+01  0.91998936920E+01  0.50675098128E+01  0.11801181249E+02  0.00000000000E+00 0.  1.
</event>
<event>
12    1  0.1598254E-001  0.1759518E+03  0.7818608E-02  0.1171799E+00
         21   -1    0    0  501  502  0.00000000000E+00  0.00000000000E+00  0.24627305295E+03  0.24627305295E+03  0.00000000000E+00 0.  1.
         21   -1    0    0  502  503 -0.00000000000E+00 -0.00000000000E+00 -0.29393482774E+03  0.29393482774E+03  0.00000000000E+00 0.  1.
         -6    2    1    2    0  503  0.32666973999E+02  0.28324091755E+02 -0.22820069074E+03  0.28811003159E+03  0.17047712364E+03 0.  0.
        -24    2    3    3    0    0 -0.78258947356E+01  0.10502596441E+02 -0.54684623048E+02  0.10898104493E+03  0.93353687641E+02 0.  0.
          6    2    1    2  501    0 -0.32666973999E+02 -0.28324091755E+02  0.18053891595E+03  0.25209784911E+03  0.17055685266E+03 0.  0.
         24    2    5    5    0    0 -0.84068886481E+02 -0.19396344580E+02  0.90335006858E+02  0.14778727202E+03  0.78973846627E+02 0.  0.
          5    1    5    5  501    0  0.51401912482E+02 -0.89277471746E+01  0.90203909088E+02  0.10431057708E+03  0.47000000000E+01 0. -1.
        -11    1    6    6    0    0 -0.78598420938E+02  0.11269696722E+02  0.84760210784E+02  0.11614220237E+03  0.00000000000E+00 0.  1.
         12    1    6    6    0    0 -0.54704655434E+01 -0.30666041303E+02  0.55747960741E+01  0.31645069659E+02  0.00000000000E+00 0. -1.
         -5    1    3    3    0  503  0.40492868735E+02  0.17821495314E+02 -0.17351606769E+03  0.17912898665E+03  0.47000000000E+01 0.  1.
         11    1    4    4    0    0 -0.45716604271E+02 -0.67239924040E+01 -0.88150672820E+01  0.47041740944E+02  0.00000000000E+00 0. -1.
        -12    1    4    4    0    0  0.37890709535E+02  0.17226588845E+02 -0.45869555766E+02  0.61939303988E+02  0.00000000000E+00 0.  1.
</event>
<event>
12    1  0.1598254E-001  0.2499580E+03  0.7818608E-02  0.1113496E+00
         21   -1    0    0  503  502  0.00000000000E+00  0.00000000000E+00  0.63758379782E+02  0.63758379782E+02  0.00000000000E+00 0. -1.
         21   -1    0    0  501  503 -0.00000000000E+00 -0.00000000000E+00 -0.11027566751E+04  0.11027566751E+04  0.00000000000E+00 0.  1.
          6    2    1    2  501    0  0.16955803253E+03 -0.65003309328E+02 -0.71639762056E+03  0.75840940471E+03  0.17024663809E+03 0.  0.
         24    2    3    3    0    0  0.60601499450E+02 -0.88077598465E+02 -0.46310868786E+03  0.48167609925E+03  0.78179298606E+02 0.  0.
         -6    2    1    2    0  502 -0.16955803253E+03  0.65003309328E+02 -0.32260067474E+03  0.40810565016E+03  0.17176632304E+03 0.  0.
        -24    2    5    5    0    0 -0.90028342789E+01  0.23970591019E+02 -0.11239535500E+03  0.14039307648E+03  0.80136507541E+02 0.  0.
          5    1    3    3  501    0  0.10895653308E+03  0.23074289137E+02 -0.25328893270E+03  0.27673330545E+03  0.47000000000E+01 0. -1.
        -13    1    4    4    0    0  0.21818680768E+02  0.10252632746E+01 -0.20010417388E+03  0.20129278774E+03  0.00000000000E+00 0.  1.
         14    1    4    4    0    0  0.38782818682E+02 -0.89102861740E+02 -0.26300451399E+03  0.28038331151E+03  0.00000000000E+00 0. -1.
         -5    1    5    5    0  502 -0.16055519825E+03  0.41032718309E+02 -0.21020531974E+03  0.26771257367E+03  0.47000000000E+01 0.  1.
         11    1    6    6    0    0 -0.41604557571E+02  0.95812583312E+01 -0.35068257581E+02  0.55249637209E+02  0.00000000000E+00 0. -1.
        -12    1    6    6    0    0  0.32601723292E+02  0.14389332688E+02 -0.77327097416E+02  0.85143439275E+02  0.00000000000E+00 0.  1.
</event>
<event>
12    1  0.1598254E-001  0.2114480E+03  0.7818608E-02  0.1144349E+00
         21   -1    0    0  501  502  0.00000000000E+00  0.00000000000E+00  0.22676066611E+04  0.22676066611E+04  0.00000000000E+00 0. -1.
         21   -1    0    0  502  503 -0.00000000000E+00 -0.00000000000E+00 -0.25278068929E+02  0.25278068929E+02  0.00000000000E+00 0. -1.
         -6    2    1    2    0  503 -0.79897892584E+02 -0.31331807494E+02  0.17741116715E+04  0.17866679813E+04  0.19324827791E+03 0.  0.
        -24    2    3    3    0    0 -0.12280950372E+03 -0.53244535931E+02  0.15197885644E+04  0.15277782232E+04  0.80198902208E+02 0.  0.
          6    2    1    2  501    0  0.79897892584E+02  0.31331807494E+02  0.46821692066E+03  0.50621674875E+03  0.17222937185E+03 0.  0.
         24    2    5    5    0    0  0.46917898409E+02 -0.47830934950E+02  0.21765747463E+03  0.24134593911E+03  0.79899928250E+02 0.  0.
          5    1    5    5  501    0  0.32979994175E+02  0.79162742443E+02  0.25055944602E+03  0.26487080964E+03  0.47000000000E+01 0. -1.
        -11    1    6    6    0    0  0.52490007085E+01  0.18637564960E+02  0.16524860029E+02  0.25455487327E+02  0.00000000000E+00 0.  1.
         12    1    6    6    0    0  0.41668897700E+02 -0.66468499910E+02  0.20113261460E+03  0.21589045179E+03  0.00000000000E+00 0. -1.
         -5    1    3    3    0  503  0.42911611134E+02  0.21912728438E+02  0.25432310713E+03  0.25888975812E+03  0.47000000000E+01 0.  1.
         13    1    4    4    0    0 -0.11067796989E+03 -0.25907338634E+02  0.88281146872E+03  0.89009937227E+03  0.00000000000E+00 0. -1.
        -14    1    4    4    0    0 -0.12131533832E+02 -0.27337197297E+02  0.63697709566E+03  0.63767885089E+03  0.00000000000E+00 0.  1.
</event>
<event>
12    1  0.1598254E-001  0.1845392E+03  0.7818608E-02  0.1163607E+00
         21   -1    0    0  503  502  0.00000000000E+00  0.00000000000E+00  0.18188853723E+03  0.18188853723E+03  0.00000000000E+00 0. -1.
         21   -1    0    0  501  503 -0.00000000000E+00 -0.00000000000E+00 -0.23920239137E+03  0.23920239137E+03  0.00000000000E+00 0. -1.
          6    2    1    2  501    0  0.95427074774E+01  0.65557773362E+02  0.70032403896E+02  0.19687719895E+03  0.17166015542E+03 0.  0.
         24    2    3    3    0    0  0.71462524757E+02  0.30969155722E+02  0.32793734845E+02  0.11663229435E+03  0.80384588009E+02 0.  0.
         -6    2    1    2    0  502 -0.95427074774E+01 -0.65557773362E+02 -0.12734625803E+03  0.22421372965E+03  0.17223774910E+03 0.  0.
        -24    2    5    5    0    0  0.46166292865E+02 -0.79574853922E+02 -0.10306772776E+03  0.16167167741E+03  0.83971964352E+02 0.  0.
          5    1    3    3  501    0 -0.61919817280E+02  0.34588617640E+02  0.37238669050E+02  0.80244904604E+02  0.47000000000E+01 0. -1.
        -13    1    4    4    0    0  0.30046441843E+02 -0.27099549062E+02  0.14683588338E+02  0.43043954201E+02  0.00000000000E+00 0.  1.
         14    1    4    4    0    0  0.41416082914E+02  0.58068704784E+02  0.18110146508E+02  0.73588340148E+02  0.00000000000E+00 0. -1.
         -5    1    5    5    0  502 -0.55709000342E+02  0.14017080559E+02 -0.24278530274E+02  0.62542052243E+02  0.47000000000E+01 0.  1.
         13    1    6    6    0    0  0.17225521882E+02 -0.54903103165E+02 -0.10892856438E+03  0.12319294411E+03  0.00000000000E+00 0. -1.
        -14    1    6    6    0    0  0.28940770983E+02 -0.24671750756E+02  0.58608366165E+01  0.38478733299E+02  0.00000000000E+00 0.  1.
</event>
<event>
12    1  0.1598254E-001  0.1960959E+03  0.7818608E-02  0.1153336E+00
         21   -1    0    0  503  502  0.00000000000E+00  0.00000000000E+00  0.46742534964E+03  0.46742534964E+03  0.00000000000E+00 0.  1.
         21   -1    0    0  501  503 -0.00000000000E+00 -0.00000000000E+00 -0.11667580714E+03  0.11667580714E+03  0.00000000000E+00 0.  1.
          6    2    1    2  501    0 -0.15069289118E+02  0.91105712164E+02  0.15997745529E+02  0.19674737137E+03  0.17299209813E+03 0.  0.
         24    2    3    3    0    0 -0.42130306048E+02  0.11751148396E+03  0.37496516363E+02  0.15299979351E+03  0.80118889925E+02 0.  0.
         -6    2    1    2    0  502  0.15069289118E+02 -0.91105712164E+02  0.33475179697E+03  0.38735378541E+03  0.17162999515E+03 0.  0.
        -24    2    5    5    0    0  0.73537766490E+02 -0.46585021727E+02  0.24045581748E+03  0.26771066413E+03  0.79196162641E+02 0.  0.
          5    1    3    3  501    0  0.27061016931E+02 -0.26405771799E+02 -0.21498770835E+02  0.43747577865E+02  0.47000000000E+01 0. -1.
        -11    1    4    4    0    0  0.18299757630E+02  0.37212795152E+02  0.31950312686E+02  0.52349744345E+02  0.00000000000E+00 0.  1.
         12    1    4    4    0    0 -0.60430063678E+02  0.80298688812E+02  0.55462036777E+01  0.10065004916E+03  0.00000000000E+00 0. -1.
         -5    1    5    5    0  502 -0.58468477372E+02 -0.44520690438E+02  0.94295979484E+02  0.11964312128E+03  0.47000000000E+01 0.  1.
         13    1    6    6    0    0  0.43765448530E+02 -0.43080854307E+02  0.22643699769E+03  0.23461689713E+03  0.00000000000E+00 0. -1.
        -14    1    6    6    0    0  0.29772317960E+02 -0.35041674196E+01  0.14018819787E+02  0.33093767000E+02  0.00000000000E+00 0.  1.
</event>
<event>
12    1  0.1598254E-001  0.1793880E+03  0.7818608E-02  0.1168522E+00
         21   -1    0    0  501  502  0.00000000000E+00  0.00000000000E+00  0.45941990355E+03  0.45941990355E+03  0.00000000000E+00 0.  1.
         21   -1    0    0  502  503 -0.00000000000E+00 -0.00000000000E+00 -0.70243327417E+02  0.70243327417E+02  0.00000000000E+00 0.  1.
         -6    2    1    2    0  503  0.46081142346E+02 -0.10041926392E+02  0.17491767868E+03  0.25055185620E+03  0.17307722659E+03 0.  0.
        -24    2    3    3    0    0  0.35283711294E+02 -0.70208606993E+02  0.14172311239E+03  0.18083397325E+03  0.80257688216E+02 0.  0.
          6    2    1    2  501    0 -0.46081142346E+02  0.10041926392E+02  0.21425889746E+03  0.27911137477E+03  0.17254556622E+03 0.  0.
         24    2    5    5    0    0  0.11997575558E+02 -0.32040930654E+02  0.17890098382E+03  0.19900908774E+03  0.80177876849E+02 0.  0.
          5    1    5    5  501    0 -0.58078717904E+02  0.42082857046E+02  0.35357913638E+02  0.80102287030E+02  0.47000000000E+01 0. -1.
        -11    1    6    6    0    0 -0.25936932793E+02 -0.40694841949E+02  0.97893132148E+02  0.10914146767E+03  0.00000000000E+00 0.  1.
         12    1    6    6    0    0  0.37934508351E+02  0.86539112955E+01  0.81007851670E+02  0.89867620068E+02  0.00000000000E+00 0. -1.
         -5    1    3    3    0  503  0.10797431052E+02  0.60166680600E+02  0.33194566292E+02  0.69717882950E+02  0.47000000000E+01 0.  1.
         13    1    4    4    0    0 -0.20683141274E+02 -0.24142589661E+02  0.15712286659E+02  0.35461710626E+02  0.00000000000E+00 0. -1.
        -14    1    4    4    0    0  0.55966852568E+02 -0.46066017332E+02  0.12601082573E+03  0.14537226262E+03  0.00000000000E+00 0.  1.
</event>
<event>
12    1  0.1598254E-001  0.1753342E+03  0.7818608E-02  0.1172548E+00
         21   -1    0    0  503  502  0.00000000000E+00  0.00000000000E+00  0.44035216025E+03  0.44035216025E+03  0.00000000000E+00 0.  1.
         21   -1    0    0  501  503 -0.00000000000E+00 -0.00000000000E+00 -0.98298295500E+02  0.98298295500E+02  0.00000000000E+00 0.  1.
          6    2    1    2  501    0  0.23831087638E+02 -0.27394945425E+02  0.25226783533E+02  0.17654342934E+03  0.17091748905E+03 0.  0.
         24    2    3    3    0    0 -0.37864964001E+02 -0.82360058923E+01  0.55779288960E+02  0.10492629913E+03  0.79978821450E+02 0.  0.
         -6    2    1    2    0  502 -0.23831087638E+02  0.27394945425E+02  0.31682708122E+03  0.36210702641E+03  0.17153336529E+03 0.  0.
        -24    2    5    5    0    0 -0.49708720259E+02  0.68336194382E+02  0.24328882140E+03  0.27392651046E+03  0.93303216351E+02 0.  0.
          5    1    3    3  501    0  0.61696051639E+02 -0.19158939533E+02 -0.30552505427E+02  0.71617130211E+02  0.47000000000E+01 0. -1.
        -13    1    4    4    0    0 -0.13400101832E+02  0.31600441866E+02  0.30529258859E+01  0.34459701271E+02  0.00000000000E+00 0.  1.
         14    1    4    4    0    0 -0.24464862169E+02 -0.39836447758E+02  0.52726363074E+02  0.70466597860E+02  0.00000000000E+00 0. -1.
         -5    1    5    5    0  502  0.25877632621E+02 -0.40941248957E+02  0.73538259823E+02  0.88180515954E+02  0.47000000000E+01 0.  1.
         13    1    6    6    0    0 -0.30760596713E+02  0.13343014391E+02  0.12280719536E+02  0.35708072134E+02  0.00000000000E+00 0. -1.
        -14    1    6    6    0    0 -0.18948123546E+02  0.54993179991E+02  0.23100810186E+03  0.23821843832E+03  0.00000000000E+00 0.  1.
</event>
<event>
12    1  0.1598254E-001  0.1854174E+03  0.7818608E-02  0.1162671E+00
         21   -1    0    0  503  502  0.00000000000E+00  0.00000000000E+00  0.15892382557E+04  0.15892382557E+04  0.00000000000E+00 0. -1.
         21   -1    0    0  501  503 -0.00000000000E+00 -0.00000000000E+00 -0.31629759255E+02  0.31629759255E+02  0.00000000000E+00 0.  1.
          6    2    1    2  501    0 -0.49150984755E+02  0.47258245351E+02  0.32300485665E+03  0.37241866758E+03  0.17237855286E+03 0.  0.
         24    2    3    3    0    0 -0.42609861285E+01 -0.29346577352E+02  0.22094592983E+03  0.23706163828E+03  0.80633360513E+02 0.  0.
         -6    2    1    2    0  502  0.49150984755E+02 -0.47258245351E+02  0.12346036398E+04  0.12484493474E+04  0.17242524326E+03 0.  0.
        -24    2    5    5    0    0  0.93272001024E+02 -0.72783156674E+01  0.84665603558E+03  0.85593120452E+03  0.83899608080E+02 0.  0.
          5    1    3    3  501    0 -0.44889998627E+02  0.76604822703E+02  0.10205892681E+03  0.13535702930E+03  0.47000000000E+01 0. -1.
        -11    1    4    4    0    0  0.32594030116E+02  0.78180945902E+01  0.90408285647E+02  0.96421737777E+02  0.00000000000E+00 0.  1.
         12    1    4    4    0    0 -0.36855016245E+02 -0.37164671942E+02  0.13053764419E+03  0.14063990050E+03  0.00000000000E+00 0. -1.
         -5    1    5    5    0  502 -0.44121016269E+02 -0.39979929684E+02  0.38794760424E+03  0.39251814288E+03  0.47000000000E+01 0.  1.
         11    1    6    6    0    0  0.62619691524E+02 -0.44579573488E+02  0.55704340962E+03  0.56232190455E+03  0.00000000000E+00 0. -1.
        -12    1    6    6    0    0  0.30652309500E+02  0.37301257821E+02  0.28961262596E+03  0.29360929997E+03  0.00000000000E+00 0.  1.
</event>
<event>
12    1  0.1598254E-001  0.2459861E+03  0.7818608E-02  0.1116214E+00
         21   -1    0    0  503  502  0.00000000000E+00  0.00000000000E+00  0.24035327227E+03  0.24035327227E+03  0.00000000000E+00 0. -1.
         21   -1    0    0  501  503 -0.00000000000E+00 -0.00000000000E+00 -0.15792581537E+04  0.15792581537E+04  0.00000000000E+00 0.  1.
          6    2    1    2  501    0 -0.17229624672E+03 -0.11380533322E+01 -0.15047388323E+04  0.15247124624E+04  0.17556152132E+03 0.  0.
         24    2    3    3    0    0 -0.16136339207E+02  0.30518602833E+02 -0.48949381170E+03  0.49702933884E+03  0.79007628839E+02 0.  0.
         -6    2    1    2    0  502  0.17229624672E+03  0.11380533322E+01  0.16583395085E+03  0.29489896358E+03  0.17256073616E+03 0.  0.
        -24    2    5    5    0    0  0.70438029079E+02 -0.59632744487E+02  0.53718203334E+02  0.13161939593E+03  0.76944394605E+02 0.  0.
          5    1    3    3  501    0 -0.15615990751E+03 -0.31656656165E+02 -0.10152450206E+04  0.10276831236E+04  0.47000000000E+01 0. -1.
        -13    1    4    4    0    0 -0.48065961109E+02  0.17473253679E+02 -0.32005672641E+03  0.32411719999E+03  0.00000000000E+00 0.  1.
         14    1    4    4    0    0  0.31929621902E+02  0.13045349154E+02 -0.16943708529E+03  0.17291213884E+03  0.00000000000E+00 0. -1.
         -5    1    5    5    0  502  0.10185821764E+03  0.60770797819E+02  0.11211574752E+03  0.16327956764E+03  0.47000000000E+01 0.  1.
         13    1    6    6    0    0  0.22721302566E+02 -0.26995444105E+01  0.52560853542E+02  0.57325286352E+02  0.00000000000E+00 0. -1.
        -14    1    6    6    0    0  0.47716726513E+02 -0.56933200076E+02  0.11573497922E+01  0.74294109582E+02  0.00000000000E+00 0.  1.
</event>
<event>
12    1  0.1598254E-001  0.1794355E+03  0.7818608E-02  0.1169037E+00
         21   -1    0    0  501  502  0.00000000000E+00  0.00000000000E+00  0.16537564470E+03  0.16537564470E+03  0.00000000000E+00 0.  1.
         21   -1    0    0  502  503 -0.00000000000E+00 -0.00000000000E+00 -0.26055859688E+03  0.26055859688E+03  0.00000000000E+00 0.  1.
         -6    2    1    2    0  503  0.29017688580E+02 -0.40468989593E+02 -0.15737471643E+03  0.23867108325E+03  0.17238712028E+03 0.  0.
        -24    2    3    3    0    0 -0.35486698078E+02 -0.28897864606E+01 -0.13464535469E+03  0.16049355265E+03  0.79756832272E+02 0.  0.
          6    2    1    2  501    0 -0.29017688580E+02  0.40468989593E+02  0.62191764245E+02  0.18726315834E+03  0.16946949448E+03 0.  0.
         24    2    5    5    0    0 -0.60737897328E+01  0.90781532521E+02  0.35468412847E+02  0.12566768788E+03  0.79096029608E+02 0.  0.
          5    1    5    5  501    0 -0.22943898847E+02 -0.50312542928E+02  0.26723351399E+02  0.61595470452E+02  0.47000000000E+01 0. -1.
        -11    1    6    6    0    0 -0.36072912843E+02  0.15679160083E+02  0.71294996826E+01  0.39974002397E+02  0.00000000000E+00 0.  1.
         12    1    6    6    0    0  0.29999123110E+02  0.75102372438E+02  0.28338913164E+02  0.85693685487E+02  0.00000000000E+00 0. -1.
         -5    1    3    3    0  503  0.64504386658E+02 -0.37579203133E+02 -0.22729361735E+02  0.78177530602E+02  0.47000000000E+01 0.  1.
         11    1    4    4    0    0 -0.75292907482E+01 -0.40092917738E+02 -0.61552476089E+02  0.73843344890E+02  0.00000000000E+00 0. -1.
        -12    1    4    4    0    0 -0.27957407330E+02  0.37203131277E+02 -0.73092878604E+02  0.86650207755E+02  0.00000000000E+00 0.  1.
</event>
<event>
12    1  0.1598254E-001  0.2048288E+03  0.7818608E-02  0.1145860E+00
         21   -1    0    0  503  502  0.00000000000E+00  0.00000000000E+00  0.15271600583E+04  0.15271600583E+04  0.00000000000E+00 0. -1.
         21   -1    0    0  501  503 -0.00000000000E+00 -0.00000000000E+00 -0.27670686760E+02  0.27670686760E+02  0.00000000000E+00 0. -1.
          6    2    1    2  501    0 -0.85489243287E+02 -0.71985556140E+02  0.82980483189E+03  0.85471099009E+03  0.17165222558E+03 0.  0.
         24    2    3    3    0    0 -0.31785379160E+02 -0.10739139814E+03  0.62771162151E+03  0.64257557496E+03  0.79613234082E+02 0.  0.
         -6    2    1    2    0  502  0.85489243287E+02  0.71985556140E+02  0.66968453967E+03  0.70011975499E+03  0.17087995096E+03 0.  0.
        -24    2    5    5    0    0  0.12354290024E+03  0.37714901657E+02  0.52700311936E+03  0.54845355483E+03  0.79898385423E+02 0.  0.
          5    1    3    3  501    0 -0.53703864126E+02  0.35405841999E+02  0.20209321038E+03  0.21213541513E+03  0.47000000000E+01 0. -1.
        -13    1    4    4    0    0  0.21659706001E+02 -0.48667107258E+02  0.33832730483E+03  0.34249524871E+03  0.00000000000E+00 0.  1.
         14    1    4    4    0    0 -0.53445085161E+02 -0.58724290881E+02  0.28938431667E+03  0.30008032625E+03  0.00000000000E+00 0. -1.
         -5    1    5    5    0  502 -0.38053656951E+02  0.34270654483E+02  0.14268142031E+03  0.15166620015E+03  0.47000000000E+01 0.  1.
         11    1    6    6    0    0  0.88389903383E+02 -0.13751265140E+02  0.32060699792E+03  0.33285239886E+03  0.00000000000E+00 0. -1.
        -12    1    6    6    0    0  0.35152996854E+02  0.51466166798E+02  0.20639612144E+03  0.21560115597E+03  0.00000000000E+00 0.  1.
</event>
<event>
12    1  0.1598254E-001  0.2239654E+03  0.7818608E-02  0.1132087E+00
         21   -1    0    0  503  502  0.00000000000E+00  0.00000000000E+00  0.16656816985E+04  0.16656816985E+04  0.00000000000E+00 0.  1.
         21   -1    0    0  501  503 -0.00000000000E+00 -0.00000000000E+00 -0.51347242035E+02  0.51347242035E+02  0.00000000000E+00 0.  1.
          6    2    1    2  501    0  0.91554610612E+02  0.96121429264E+02  0.23829711190E+03  0.32288429881E+03  0.17276336702E+03 0.  0.
         24    2    3    3    0    0  0.36488334945E+02 -0.16991597390E+02  0.12032175519E+03  0.15035277616E+03  0.80675396239E+02 0.  0.
         -6    2    1    2    0  502 -0.91554610612E+02 -0.96121429264E+02  0.13760373446E+04  0.13941446418E+04  0.18038551092E+03 0.  0.
        -24    2    5    5    0    0 -0.48179229603E+02 -0.17721000659E+02  0.10858164523E+04  0.10903711946E+04  0.85303586516E+02 0.  0.
          5    1    3    3  501    0  0.55066275667E+02  0.11311302665E+03  0.11797535672E+03  0.17253152265E+03  0.47000000000E+01 0. -1.
        -13    1    4    4    0    0  0.14291633487E+02  0.14854687981E+02 -0.32132301869E+01  0.20862343852E+02  0.00000000000E+00 0.  1.
         14    1    4    4    0    0  0.22196701457E+02 -0.31846285371E+02  0.12353498538E+03  0.12949043231E+03  0.00000000000E+00 0. -1.
         -5    1    5    5    0  502 -0.43375381009E+02 -0.78400428605E+02  0.29022089225E+03  0.30377344713E+03  0.47000000000E+01 0.  1.
         13    1    6    6    0    0 -0.24928028960E+02 -0.39414525830E+02  0.93867155553E+03  0.93982934655E+03  0.00000000000E+00 0. -1.
        -14    1    6    6    0    0 -0.23251200643E+02  0.21693525171E+02  0.14714489681E+03  0.15054184808E+03  0.00000000000E+00 0.  1.
</event>
<event>
12    1  0.1598254E-001  0.1794935E+03  0.7818608E-02  0.1168438E+00
         21   -1    0    0  503  502  0.00000000000E+00  0.00000000000E+00  0.86176304012E+02  0.86176304012E+02  0.00000000000E+00 0. -1.
         21   -1    0    0  501  503 -0.00000000000E+00 -0.00000000000E+00 -0.12263717010E+04  0.12263717010E+04  0.00000000000E+00 0. -1.
          6    2    1    2  501    0  0.49216103096E+02  0.38369349375E+01 -0.11179495941E+04  0.11322672862E+04  0.17257162415E+03 0.  0.
         24    2    3    3    0    0 -0.40133455297E+02 -0.11006096566E+02 -0.56731184142E+03  0.57421022469E+03  0.78376197448E+02 0.  0.
         -6    2    1    2    0  502 -0.49216103096E+02 -0.38369349375E+01 -0.22245802886E+02  0.18028071886E+03  0.17195730567E+03 0.  0.
        -24    2    5    5    0    0 -0.19869601735E+02 -0.63888570364E+02 -0.40572456543E+02  0.11081581914E+03  0.78469554890E+02 0.  0.
          5    1    3    3  501    0  0.89349558393E+02  0.14843031504E+02 -0.55063775270E+03  0.55805706148E+03  0.47000000000E+01 0. -1.
        -11    1    4    4    0    0 -0.41663177075E+01  0.31399278171E+02 -0.15847193323E+03  0.16160639373E+03  0.00000000000E+00 0.  1.
         12    1    4    4    0    0 -0.35967137589E+02 -0.42405374737E+02 -0.40883990818E+03  0.41260383095E+03  0.00000000000E+00 0. -1.
         -5    1    5    5    0  502 -0.29346501361E+02  0.60051635426E+02  0.18326653657E+02  0.69464899725E+02  0.47000000000E+01 0.  1.
         13    1    6    6    0    0 -0.36778437809E+01 -0.49721084713E+01  0.22301636890E+02  0.23143279921E+02  0.00000000000E+00 0. -1.
        -14    1    6    6    0    0 -0.16191757954E+02 -0.58916461892E+02 -0.62874093432E+02  0.87672539215E+02  0.00000000000E+00 0.  1.
</event>
<event>
12    1  0.1598254E-001  0.2846235E+03  0.7818608E-02  0.1093283E+00
         21   -1    0    0  501  502  0.00000000000E+00  0.00000000000E+00  0.34987290585E+03  0.34987290585E+03  0.00000000000E+00 0.  1.
         21   -1    0    0  502  503 -0.00000000000E+00 -0.00000000000E+00 -0.23221560152E+03  0.23221560152E+03  0.00000000000E+00 0. -1.
         -6    2    1    2    0  503 -0.13796000824E+03 -0.17967108565E+03  0.80160888187E+02  0.29569632500E+03  0.17232494227E+03 0.  0.
        -24    2    3    3    0    0 -0.72859161797E+02 -0.17725388992E+03  0.22820224738E+02  0.20878254745E+03  0.79636615415E+02 0.  0.
          6    2    1    2  501    0  0.13796000824E+03  0.17967108565E+03  0.37496416147E+02  0.28639218237E+03  0.17117195449E+03 0.  0.
         24    2    5    5    0    0  0.52373039097E+02  0.64757902769E+01  0.49323657545E+02  0.92785071790E+02  0.58235515534E+02 0.  0.
          5    1    5    5  501    0  0.85586969142E+02  0.17319529538E+03 -0.11827241398E+02  0.19360711058E+03  0.47000000000E+01 0. -1.
        -11    1    6    6    0    0  0.62693602322E+02  0.14831552118E+02  0.45804758252E+02  0.79047698189E+02  0.00000000000E+00 0.  1.
         12    1    6    6    0    0 -0.10320563225E+02 -0.83557618413E+01  0.35188992930E+01  0.13737373602E+02  0.00000000000E+00 0. -1.
         -5    1    3    3    0  503 -0.65100846441E+02 -0.24171957381E+01  0.57340663449E+02  0.86913777547E+02  0.47000000000E+01 0.  1.
         13    1    4    4    0    0 -0.54267208531E+01 -0.40299643740E+00 -0.14835862410E+02  0.15802358014E+02  0.00000000000E+00 0. -1.
        -14    1    4    4    0    0 -0.67432440944E+02 -0.17685089348E+03  0.37656087148E+02  0.19298018944E+03  0.00000000000E+00 0.  1.
</event>
<event>
12    1  0.1598254E-001  0.2446913E+03  0.7818608E-02  0.1116917E+00
         21   -1    0    0  501  502  0.00000000000E+00  0.00000000000E+00  0.18458839751E+03  0.18458839751E+03  0.00000000000E+00 0.  1.
         21   -1    0    0  502  503 -0.00000000000E+00 -0.00000000000E+00 -0.34631047913E+03  0.34631047913E+03  0.00000000000E+00 0. -1.
         -6    2    1    2    0  503 -0.12699903596E+03 -0.11956117516E+03 -0.11675730812E+02  0.24496974569E+03  0.17161067530E+03 0.  0.
        -24    2    3    3    0    0 -0.89490267966E+01 -0.23618536915E+02 -0.34556760227E+02  0.91065795116E+02  0.80379655363E+02 0.  0.
          6    2    1    2  501    0  0.12699903596E+03  0.11956117516E+03 -0.15004635081E+03  0.28592913094E+03  0.16975844836E+03 0.  0.
         24    2    5    5    0    0  0.94205120360E+02  0.28053466509E+02 -0.29432937378E+02  0.13094917371E+03  0.81362071068E+02 0.  0.
          5    1    5    5  501    0  0.32793915596E+02  0.91507708652E+02 -0.12061341343E+03  0.15497995723E+03  0.47000000000E+01 0. -1.
        -13    1    6    6    0    0  0.15412391718E+02 -0.20709753824E+02 -0.28265714281E+02  0.38280364755E+02  0.00000000000E+00 0.  1.
         14    1    6    6    0    0  0.78792728642E+02  0.48763220334E+02 -0.11672230975E+01  0.92668808960E+02  0.00000000000E+00 0. -1.
         -5    1    3    3    0  503 -0.11805000916E+03 -0.95942638247E+02  0.22881029415E+02  0.15390395058E+03  0.47000000000E+01 0.  1.
         13    1    4    4    0    0  0.11341262350E+01  0.28846065497E+02 -0.21703020628E+02  0.36116517569E+02  0.00000000000E+00 0. -1.
        -14    1    4    4    0    0 -0.10083153032E+02 -0.52464602412E+02 -0.12853739599E+02  0.54949277547E+02  0.00000000000E+00 0.  1.
</event>
<event>
12    1  0.1598254E-001  0.2658514E+03  0.7818608E-02  0.1103702E+00
         21   -1    0    0  503  502  0.00000000000E+00  0.00000000000E+00  0.79338438272E+03  0.79338438272E+03  0.00000000000E+00 0.  1.
         21   -1    0    0  501  503 -0.00000000000E+00 -0.00000000000E+00 -0.91365634750E+02  0.91365634750E+02  0.00000000000E+00 0. -1.
          6    2    1    2  501    0  0.72231695865E+02  0.18919107289E+03  0.28012349588E+03  0.38607922546E+03  0.17198056703E+03 0.  0.
         24    2    3    3    0    0  0.70102438603E+02  0.16651357452E+03  0.13536220120E+03  0.23946161019E+03  0.79861222409E+02 0.  0.
         -6    2    1    2    0  502 -0.72231695865E+02 -0.18919107289E+03  0.42189525208E+03  0.49867079201E+03  0.17223900582E+03 0.  0.
        -24    2    5    5    0    0  0.70425739416E+00 -0.27001692627E+02  0.16826580617E+03  0.18887241535E+03  0.81423708894E+02 0.  0.
          5    1    3    3  501    0  0.21292572623E+01  0.22677498374E+02  0.14476129468E+03  0.14661761527E+03  0.47000000000E+01 0. -1.
        -13    1    4    4    0    0  0.83411508831E+01 -0.67364094480E+01 -0.59514619952E+00  0.10738166012E+02  0.00000000000E+00 0.  1.
         14    1    4    4    0    0  0.61761287720E+02  0.17324998396E+03  0.13595734740E+03  0.22872344418E+03  0.00000000000E+00 0. -1.
         -5    1    5    5    0  502 -0.72935953259E+02 -0.16218938026E+03  0.25362944591E+03  0.30979837666E+03  0.47000000000E+01 0.  1.
         13    1    6    6    0    0  0.19706528282E+02 -0.37241690625E+02  0.37712511638E+02  0.56546656060E+02  0.00000000000E+00 0. -1.
        -14    1    6    6    0    0 -0.19002270888E+02  0.10239997998E+02  0.13055329453E+03  0.13232575929E+03  0.00000000000E+00 0.  1.
</event>
<event>
12    1  0.1598254E-001  0.1927197E+03  0.7818608E-02  0.1156129E+00
         21   -1    0    0  501  502  0.00000000000E+00  0.00000000000E+00  0.10864821946E+03  0.10864821946E+03  0.00000000000E+00 0. -1.
         21   -1    0    0  502  503 -0.00000000000E+00 -0.00000000000E+00 -0.76790300928E+03  0.76790300928E+03  0.00000000000E+00 0.  1.
         -6    2    1    2    0  503 -0.23658342296E+02  0.82654502409E+02 -0.65621819148E+03  0.68380763106E+03  0.17198568994E+03 0.  0.
        -24    2    3    3    0    0 -0.38459209101E+02  0.84997214743E+02 -0.26213127526E+03  0.28940790808E+03  0.79627222151E+02 0.  0.
          6    2    1    2  501    0  0.23658342296E+02 -0.82654502409E+02 -0.30365983452E+01  0.19274359768E+03  0.17248011361E+03 0.  0.
         24    2    5    5    0    0 -0.20925414951E+01 -0.51060896320E+02  0.63957937586E+02  0.11418392733E+03  0.79597472430E+02 0.  0.
          5    1    5    5  501    0  0.25750883791E+02 -0.31593606089E+02 -0.66994535931E+02  0.78559670355E+02  0.47000000000E+01 0. -1.
        -11    1    6    6    0    0 -0.32883541182E+02 -0.33511034979E+01  0.70602023988E+01  0.33799462025E+02  0.00000000000E+00 0.  1.
         12    1    6    6    0    0  0.30790999687E+02 -0.47709792823E+02  0.56897735187E+02  0.80384465304E+02  0.00000000000E+00 0. -1.
         -5    1    3    3    0  503  0.14800866805E+02 -0.23427123334E+01 -0.39408691621E+03  0.39439972298E+03  0.47000000000E+01 0.  1.
         11    1    4    4    0    0 -0.38028540508E+02  0.58803878789E+02 -0.25161604466E+03  0.26117944021E+03  0.00000000000E+00 0. -1.
        -12    1    4    4    0    0 -0.43066859234E+00  0.26193335954E+02 -0.10515230600E+02  0.28228467872E+02  0.00000000000E+00 0.  1.
</event>
<event>
12    1  0.1598254E-001  0.2802693E+03  0.7818608E-02  0.1096334E+00
         21   -1    0    0  501  502  0.00000000000E+00  0.00000000000E+00  0.19965815366E+03  0.19965815366E+03  0.00000000000E+00 0.  1.
         21   -1    0    0  502  503 -0.00000000000E+00 -0.00000000000E+00 -0.40863440991E+03  0.40863440991E+03  0.00000000000E+00 0.  1.
         -6    2    1    2    0  503 -0.21237552490E+03 -0.26966373210E+02 -0.17598225141E+03  0.32608783217E+03  0.17185160057E+03 0.  0.
        -24    2    3    3    0    0 -0.48813832724E+02 -0.14770866958E+01 -0.13530248042E+02  0.94107500523E+02  0.79298057935E+02 0.  0.
          6    2    1    2  501    0  0.21237552490E+03  0.26966373210E+02 -0.32994004841E+02  0.28220473140E+03  0.18088769226E+03 0.  0.
         24    2    5    5    0    0  0.39226856185E+02  0.67670211047E+01  0.32305299433E+02  0.95993656436E+02  0.81157937896E+02 0.  0.
          5    1    5    5  501    0  0.17314866871E+03  0.20199352105E+02 -0.65299304274E+02  0.18621107497E+03  0.47000000000E+01 0. -1.
        -11    1    6    6    0    0  0.61376798610E+02  0.14495307414E+02  0.10438355236E+02  0.63923271230E+02  0.00000000000E+00 0.  1.
         12    1    6    6    0    0 -0.22149942425E+02 -0.77282863092E+01  0.21866944197E+02  0.32070385206E+02  0.00000000000E+00 0. -1.
         -5    1    3    3    0  503 -0.16356169217E+03 -0.25489286514E+02 -0.16245200337E+03  0.23198033165E+03  0.47000000000E+01 0.  1.
         11    1    4    4    0    0 -0.11224318637E+02 -0.22729371962E+02 -0.37083773549E+02  0.44920106181E+02  0.00000000000E+00 0. -1.
        -12    1    4    4    0    0 -0.37589514087E+02  0.21252285266E+02  0.23553525507E+02  0.49187394342E+02  0.00000000000E+00 0.  1.
</event>
<event>
12    1  0.1598254E-001  0.1920706E+03  0.7818608E-02  0.1156910E+00
         21   -1    0    0  503  502  0.00000000000E+00  0.00000000000E+00  0.14370386669E+03  0.14370386669E+03  0.00000000000E+00 0. -1.
         21   -1    0    0  501  503 -0.00000000000E+00 -0.00000000000E+00 -0.31183430113E+03  0.31183430113E+03  0.00000000000E+00 0. -1.
          6    2    1    2  501    0  0.26711587670E+02 -0.80430147707E+02 -0.18114322246E+03  0.26302724808E+03  0.17084480857E+03 0.  0.
         24    2    3    3    0    0 -0.17152356115E+02 -0.11224146436E+03 -0.10245606878E+03  0.16737285150E+03  0.68000556967E+02 0.  0.
         -6    2    1    2    0  502 -0.26711587670E+02  0.80430147707E+02  0.13012788022E+02  0.19251091974E+03  0.17236184030E+03 0.  0.
        -24    2    5    5    0    0  0.82447311716E+01 -0.53436664513E+01  0.48620819231E+02  0.93167508747E+02  0.78864886104E+02 0.  0.
          5    1    3    3  501    0  0.43863943785E+02  0.31811316650E+02 -0.78687153679E+02  0.95654396582E+02  0.47000000000E+01 0. -1.
        -11    1    4    4    0    0  0.15889900614E+02 -0.61852100054E+02 -0.23492770313E+02  0.68044702068E+02  0.00000000000E+00 0.  1.
         12    1    4    4    0    0 -0.33042256729E+02 -0.50389364303E+02 -0.78963298465E+02  0.99328149429E+02  0.00000000000E+00 0. -1.
         -5    1    5    5    0  502 -0.34956318842E+02  0.85773814158E+02 -0.35608031209E+02  0.99343410998E+02  0.47000000000E+01 0.  1.
         13    1    6    6    0    0  0.11538233532E+02 -0.40191284758E+02  0.14423994232E+02  0.44232587683E+02  0.00000000000E+00 0. -1.
        -14    1    6    6    0    0 -0.32935023604E+01  0.34847618307E+02  0.34196824999E+02  0.48934921063E+02  0.00000000000E+00 0.  1.
</event>
<event>
12    1  0.1598254E-001  0.1969033E+03  0.7818608E-02  0.1152642E+00
         21   -1    0    0  503  502  0.00000000000E+00  0.00000000000E+00  0.35990701264E+02  0.35990701264E+02  0.00000000000E+00 0. -1.
         21   -1    0    0  501  503 -0.00000000000E+00 -0.00000000000E+00 -0.11068773643E+04  0.11068773643E+04  0.00000000000E+00 0. -1.
          6    2    1    2  501    0 -0.39821428080E+02  0.85956895895E+02 -0.64053556824E+03  0.67011696055E+03  0.17261689531E+03 0.  0.
         24    2    3    3    0    0  0.42962420800E+02  0.63383228073E+02 -0.31546059816E+03  0.33387513940E+03  0.78064182040E+02 0.  0.
         -6    2    1    2    0  502  0.39821428080E+02 -0.85956895895E+02 -0.43035109479E+03  0.47275110501E+03  0.17122268662E+03 0.  0.
        -24    2    5    5    0    0  0.40998005492E+02 -0.63625242193E+02 -0.12585746642E+03  0.16740122895E+03  0.80337175094E+02 0.  0.
          5    1    3    3  501    0 -0.82783848880E+02  0.22573667821E+02 -0.32507497008E+03  0.33624182115E+03  0.47000000000E+01 0. -1.
        -13    1    4    4    0    0 -0.16286212280E+02  0.36917660708E+00 -0.18865401768E+02  0.24925496699E+02  0.00000000000E+00 0.  1.
         14    1    4    4    0    0  0.59248633081E+02  0.63014051466E+02 -0.29659519639E+03  0.30894964270E+03  0.00000000000E+00 0. -1.
         -5    1    5    5    0  502 -0.11765774117E+01 -0.22331653702E+02 -0.30449362836E+03  0.30534987605E+03  0.47000000000E+01 0.  1.
         11    1    6    6    0    0  0.65060826272E+02 -0.51161172937E+02 -0.87575306503E+02  0.12049817858E+03  0.00000000000E+00 0. -1.
        -12    1    6    6    0    0 -0.24062820781E+02 -0.12464069256E+02 -0.38282159918E+02  0.46903050374E+02  0.00000000000E+00 0.  1.
</event>
<event>
12    1  0.1598254E-001  0.2208781E+03  0.7818608E-02  0.1133362E+00
         21   -1    0    0  501  502  0.00000000000E+00  0.00000000000E+00  0.24244607695E+03  0.24244607695E+03  0.00000000000E+00 0. -1.
         21   -1    0    0  502  503 -0.00000000000E+00 -0.00000000000E+00 -0.59377691529E+03  0.59377691529E+03  0.00000000000E+00 0. -1.
         -6    2    1    2    0  503 -0.82751499355E+02 -0.10964819509E+03 -0.51580870782E+03  0.56083217900E+03  0.17205688770E+03 0.  0.
        -24    2    3    3    0    0  0.18479044152E+01 -0.10131794553E+03 -0.38956825458E+03  0.40856532702E+03  0.69953274631E+02 0.  0.
          6    2    1    2  501    0  0.82751499355E+02  0.10964819509E+03  0.16447786947E+03  0.27539081324E+03  0.17296413831E+03 0.  0.
         24    2    5    5    0    0  0.32537537371E+02  0.10925729746E+03  0.17415604153E+03  0.22403565972E+03  0.82860132990E+02 0.  0.
          5    1    5    5  501    0  0.50213961984E+02  0.39089762598E+00 -0.96781720527E+01  0.51355153523E+02  0.47000000000E+01 0. -1.
        -13    1    6    6    0    0  0.91011905474E-01  0.59377831904E+02  0.26852208121E+02  0.65167294602E+02  0.00000000000E+00 0.  1.
         14    1    6    6    0    0  0.32446525466E+02  0.49879465556E+02  0.14730383341E+03  0.15886836512E+03  0.00000000000E+00 0. -1.
         -5    1    3    3    0  503 -0.84599403771E+02 -0.83302495600E+01 -0.12624045324E+03  0.15226685198E+03  0.47000000000E+01 0.  1.
         11    1    4    4    0    0 -0.22263179930E+01 -0.16680307869E+02 -0.20253029634E+03  0.20322822171E+03  0.00000000000E+00 0. -1.
        -12    1    4    4    0    0  0.40742224083E+01 -0.84637637658E+02 -0.18703795823E+03  0.20533710531E+03  0.00000000000E+00 0.  1.
</event>
<event>
12    1  0.1598254E-001  0.2369913E+03  0.7818608E-02  0.1123377E+00
         21   -1    0    0  501  502  0.00000000000E+00  0.00000000000E+00  0.36394106473E+03  0.36394106473E+03  0.00000000000E+00 0. -1.
         21   -1    0    0  502  503 -0.00000000000E+00 -0.00000000000E+00 -0.14894643647E+03  0.14894643647E+03  0.00000000000E+00 0. -1.
         -6    2    1    2    0  503 -0.16194604613E+03 -0.20590742608E+02  0.11960642100E+03  0.25741970004E+03  0.15908710032E+03 0.  0.
        -24    2    3    3    0    0 -0.43076348951E+02 -0.16897615832E+02  0.43280232453E+01  0.91724669696E+02  0.79079592727E+02 0.  0.
          6    2    1    2  501    0  0.16194604613E+03  0.20590742608E+02  0.95388207263E+02  0.25546780116E+03  0.17179751688E+03 0.  0.
         24    2    5    5    0    0  0.16420752740E+03 -0.23059209635E+02  0.46420966920E+02  0.18966268544E+03  0.79505904656E+02 0.  0.
          5    1    5    5  501    0 -0.22614812677E+01  0.43649952242E+02  0.48967240343E+02  0.65805115721E+02  0.47000000000E+01 0. -1.
        -13    1    6    6    0    0  0.86131813503E+01 -0.19356675937E+02  0.24658537208E+02  0.32510171540E+02  0.00000000000E+00 0.  1.
         14    1    6    6    0    0  0.15559434605E+03 -0.37025336973E+01  0.21762429712E+02  0.15715251390E+03  0.00000000000E+00 0. -1.
         -5    1    3    3    0  503 -0.11886969718E+03 -0.36931267756E+01  0.11527839775E+03  0.16569503035E+03  0.47000000000E+01 0.  1.
         13    1    4    4    0    0 -0.31845037160E+01 -0.35745705499E+02  0.24252747774E+02  0.43313881148E+02  0.00000000000E+00 0. -1.
        -14    1    4    4    0    0 -0.39891845235E+02  0.18848089667E+02 -0.19924724529E+02  0.48410788548E+02  0.00000000000E+00 0.  1.
</event>
<event>
12    1  0.1598254E-001  0.1749996E+03  0.7818608E-02  0.1172969E+00
         21   -1    0    0  503  502  0.00000000000E+00  0.00000000000E+00  0.13123559338E+04  0.13123559338E+04  0.00000000000E+00 0.  1.
         21   -1    0    0  501  503 -0.00000000000E+00 -0.00000000000E+00 -0.23649703662E+02  0.23649703662E+02  0.00000000000E+00 0.  1.
          6    2    1    2  501    0 -0.31357722263E+02 -0.11354976245E+01  0.55163643635E+03  0.57844590529E+03  0.17120838574E+03 0.  0.
         24    2    3    3    0    0 -0.71338063827E+02 -0.16975735210E+02  0.24043622366E+03  0.26425328410E+03  0.81504144511E+02 0.  0.
         -6    2    1    2    0  502  0.31357722263E+02  0.11354976245E+01  0.73706979384E+03  0.75755973222E+03  0.17216350015E+03 0.  0.
        -24    2    5    5    0    0 -0.35110740512E+02  0.36064834807E+02  0.31088799654E+03  0.32478828042E+03  0.79389195087E+02 0.  0.
          5    1    3    3  501    0  0.39980341564E+02  0.15840237585E+02  0.31120021268E+03  0.31419262119E+03  0.47000000000E+01 0. -1.
        -13    1    4    4    0    0 -0.61824784440E+02  0.20241599661E+01  0.23401976667E+03  0.24205712629E+03  0.00000000000E+00 0.  1.
         14    1    4    4    0    0 -0.95132793869E+01 -0.18999895176E+02  0.64164569952E+01  0.22196157815E+02  0.00000000000E+00 0. -1.
         -5    1    5    5    0  502  0.66468462775E+02 -0.34929337183E+02  0.42618179730E+03  0.43277145179E+03  0.47000000000E+01 0.  1.
         11    1    6    6    0    0 -0.19477488425E+02 -0.24068163097E+02  0.83171890308E+02  0.88748027401E+02  0.00000000000E+00 0. -1.
        -12    1    6    6    0    0 -0.15633252087E+02  0.60132997904E+02  0.22771610624E+03  0.23604025302E+03  0.00000000000E+00 0.  1.
</event>
<event>
12    1  0.1598254E-001  0.1901795E+03  0.7818608E-02  0.1158588E+00
         21   -1    0    0  503  502  0.00000000000E+00  0.00000000000E+00  0.66117892968E+03  0.66117892968E+03  0.00000000000E+00 0.  1.
         21   -1    0    0  501  503 -0.00000000000E+00 -0.00000000000E+00 -0.54337289347E+02  0.54337289347E+02  0.00000000000E+00 0.  1.
          6    2    1    2  501    0  0.42179045626E+02  0.65301767246E+02  0.30629770277E+03  0.36053641740E+03  0.17356506807E+03 0.  0.
         24    2    3    3    0    0 -0.60608772112E+01  0.89174425671E+02  0.12948109149E+03  0.17564943030E+03  0.78093257609E+02 0.  0.
         -6    2    1    2    0  502 -0.42179045626E+02 -0.65301767246E+02  0.30054393756E+03  0.35497980162E+03  0.17216448084E+03 0.  0.
        -24    2    5    5    0    0 -0.96468604373E+00 -0.66202162230E+02  0.83608163624E+02  0.13411184523E+03  0.81314236787E+02 0.  0.
          5    1    3    3  501    0  0.48239922837E+02 -0.23872658425E+02  0.17681661128E+03  0.18488698710E+03  0.47000000000E+01 0. -1.
        -11    1    4    4    0    0  0.45068388197E+01  0.69591666193E+01 -0.10248838976E+02  0.13182575490E+02  0.00000000000E+00 0.  1.
         12    1    4    4    0    0 -0.10567716031E+02  0.82215259051E+02  0.13972993047E+03  0.16246685481E+03  0.00000000000E+00 0. -1.
         -5    1    5    5    0  502 -0.41214359582E+02  0.90039498422E+00  0.21693577394E+03  0.22086795639E+03  0.47000000000E+01 0.  1.
         13    1    6    6    0    0 -0.86935324663E+01  0.17639405547E+02  0.90483494596E+01  0.21647142138E+02  0.00000000000E+00 0. -1.
        -14    1    6    6    0    0  0.77288464226E+01 -0.83841567777E+02  0.74559814165E+02  0.11246470310E+03  0.00000000000E+00 0.  1.
</event>
<event>
12    1  0.1598254E-001  0.1932161E+03  0.7818608E-02  0.1155734E+00
         21   -1    0    0  501  502  0.00000000000E+00  0.00000000000E+00  0.42571423321E+03  0.42571423321E+03  0.00000000000E+00 0. -1.
         21   -1    0    0  502  503 -0.00000000000E+00 -0.00000000000E+00 -0.12011642627E+03  0.12011642627E+03  0.00000000000E+00 0. -1.
         -6    2    1    2    0  503  0.62946052361E+02 -0.62127557534E+02  0.10555902558E+02  0.19350423087E+03  0.17178597549E+03 0.  0.
        -24    2    3    3    0    0  0.39624386087E+01  0.83475481110E+01 -0.38656532928E+02  0.89150213158E+02  0.79800065720E+02 0.  0.
          6    2    1    2  501    0 -0.62946052361E+02  0.62127557534E+02  0.29504190438E+03  0.35232642860E+03  0.17106182520E+03 0.  0.
         24    2    5    5    0    0 -0.87534482980E+02  0.82496275199E+02  0.28109512820E+03  0.31716852557E+03  0.84341457098E+02 0.  0.
          5    1    5    5  501    0  0.24588430619E+02 -0.20368717665E+02  0.13946776183E+02  0.35157903031E+02  0.47000000000E+01 0. -1.
        -13    1    6    6    0    0  0.94770742568E+01 -0.93060577612E+01  0.28155668555E+02  0.31131323764E+02  0.00000000000E+00 0.  1.
         14    1    6    6    0    0 -0.97011557237E+02  0.91802332960E+02  0.25293945964E+03  0.28603720181E+03  0.00000000000E+00 0. -1.
         -5    1    3    3    0  503  0.58983613752E+02 -0.70475105645E+02  0.49212435486E+02  0.10435401772E+03  0.47000000000E+01 0.  1.
         11    1    4    4    0    0  0.19044063074E+02 -0.12863314595E+02 -0.54175611267E+02  0.58848432918E+02  0.00000000000E+00 0. -1.
        -12    1    4    4    0    0 -0.15081624465E+02  0.21210862706E+02  0.15519078339E+02  0.30301780240E+02  0.00000000000E+00 0.  1.
</event>
<event>
12    1  0.1598254E-001  0.3105091E+03  0.7818608E-02  0.1080147E+00
         21   -1    0    0  503  502  0.00000000000E+00  0.00000000000E+00  0.22789337782E+03  0.22789337782E+03  0.00000000000E+00 0. -1.
         21   -1    0    0  501  503 -0.00000000000E+00 -0.00000000000E+00 -0.68393331767E+03  0.68393331767E+03  0.00000000000E+00 0. -1.
          6    2    1    2  501    0  0.24153406389E+03  0.89583875644E+02 -0.50977564534E+03  0.59670226189E+03  0.17268006822E+03 0.  0.
         24    2    3    3    0    0  0.42635078853E+02  0.38496327814E+02 -0.22452677833E+03  0.24519159359E+03  0.80043276903E+02 0.  0.
         -6    2    1    2    0  502 -0.24153406389E+03 -0.89583875644E+02  0.53735705497E+02  0.31512443360E+03  0.17335486095E+03 0.  0.
        -24    2    5    5    0    0 -0.14738609261E+03  0.66295040978E+01  0.66404191599E+02  0.17983424372E+03  0.78512597296E+02 0.  0.
          5    1    3    3  501    0  0.19889898504E+03  0.51087547831E+02 -0.28524886701E+03  0.35151066830E+03  0.47000000000E+01 0. -1.
        -11    1    4    4    0    0  0.36544910293E+01  0.11885591903E+02  0.30243555908E+01  0.12797239011E+02  0.00000000000E+00 0.  1.
         12    1    4    4    0    0  0.38980587823E+02  0.26610735910E+02 -0.22755113392E+03  0.23239435458E+03  0.00000000000E+00 0. -1.
         -5    1    5    5    0  502 -0.94147971281E+02 -0.96213379742E+02 -0.12668486101E+02  0.13529018988E+03  0.47000000000E+01 0.  1.
         13    1    6    6    0    0 -0.70857099124E+02  0.11280911153E+02 -0.89829590403E+01  0.72309619041E+02  0.00000000000E+00 0. -1.
        -14    1    6    6    0    0 -0.76528993488E+02 -0.46514070556E+01  0.75387150639E+02  0.10752462468E+03  0.00000000000E+00 0.  1.
</event>
<event>
12    1  0.1598254E-001  0.2201153E+03  0.7818608E-02  0.1133833E+00
         21   -1    0    0  503  502  0.00000000000E+00  0.00000000000E+00  0.78895309302E+02  0.78895309302E+02  0.00000000000E+00 0.  1.
         21   -1    0    0  501  503 -0.00000000000E+00 -0.00000000000E+00 -0.64033988496E+03  0.64033988496E+03  0.00000000000E+00 0.  1.
          6    2    1    2  501    0 -0.12959462891E+03 -0.45000698733E+02 -0.35435565526E+03  0.41715543430E+03  0.17213626934E+03 0.  0.
         24    2    3    3    0    0 -0.39720456855E+01 -0.45901922721E+02 -0.18683710365E+03  0.20771236147E+03  0.78189245754E+02 0.  0.
         -6    2    1    2    0  502  0.12959462891E+03  0.45000698733E+02 -0.20708892041E+03  0.30207975997E+03  0.17189104019E+03 0.  0.
        -24    2    5    5    0    0  0.88994837295E+02  0.25026332686E+02 -0.22286484556E+03  0.25393115466E+03  0.79157397172E+02 0.  0.
          5    1    3    3  501    0 -0.12562258323E+03  0.90122398843E+00 -0.16751855161E+03  0.20944307282E+03  0.47000000000E+01 0. -1.
        -11    1    4    4    0    0 -0.14497013051E+02 -0.51851209973E+01  0.80285477675E+00  0.15417309848E+02  0.00000000000E+00 0.  1.
         12    1    4    4    0    0  0.10524967366E+02 -0.40716801724E+02 -0.18763995843E+03  0.19229505162E+03  0.00000000000E+00 0. -1.
         -5    1    5    5    0  502  0.40599791619E+02  0.19974366047E+02  0.15775925159E+02  0.48148605308E+02  0.47000000000E+01 0.  1.
         13    1    6    6    0    0 -0.12082556790E+02  0.88638673024E+01 -0.57739467117E+02  0.59652346015E+02  0.00000000000E+00 0. -1.
        -14    1    6    6    0    0  0.10107739409E+03  0.16162465384E+02 -0.16512537845E+03  0.19427880865E+03  0.00000000000E+00 0.  1.
</event>
<event>
12    1  0.1598254E-001  0.2008646E+03  0.7818608E-02  0.1149155E+00
         21   -1    0    0  503  502  0.00000000000E+00  0.00000000000E+00  0.88299700586E+03  0.88299700586E+03  0.00000000000E+00 0. -1.
         21   -1    0    0  501  503 -0.00000000000E+00 -0.00000000000E+00 -0.45538196581E+02  0.45538196581E+02  0.00000000000E+00 0. -1.
          6    2    1    2  501    0  0.69671169286E+02 -0.78045629466E+02  0.41703861115E+03  0.46259556733E+03  0.17067004312E+03 0.  0.
         24    2    3    3    0    0  0.13602658717E+02 -0.15095382861E+01  0.31020188207E+03  0.31963533576E+03  0.75856635818E+02 0.  0.
         -6    2    1    2    0  502 -0.69671169286E+02  0.78045629466E+02  0.42042019813E+03  0.46593963511E+03  0.17146838910E+03 0.  0.
        -24    2    5    5    0    0 -0.66402274872E+02  0.11854871416E+03  0.27393051142E+03  0.31384590134E+03  0.70698408463E+02 0.  0.
          5    1    3    3  501    0  0.56068510569E+02 -0.76536091180E+02  0.10683672908E+03  0.14296023157E+03  0.47000000000E+01 0. -1.
        -11    1    4    4    0    0 -0.11767974457E+02 -0.30455163022E+02  0.82903650087E+02  0.89101163714E+02  0.00000000000E+00 0.  1.
         12    1    4    4    0    0  0.25370633174E+02  0.28945624735E+02  0.22729823198E+03  0.23053417204E+03  0.00000000000E+00 0. -1.
         -5    1    5    5    0  502 -0.32688944137E+01 -0.40503084699E+02  0.14648968671E+03  0.15209373377E+03  0.47000000000E+01 0.  1.
         13    1    6    6    0    0  0.36763108921E+01  0.44612489645E+02  0.45996109346E+02  0.64182798078E+02  0.00000000000E+00 0. -1.
        -14    1    6    6    0    0 -0.70078585765E+02  0.73936224520E+02  0.22793440208E+03  0.24966310326E+03  0.00000000000E+00 0.  1.
</event>
<event>
12    1  0.1598254E-001  0.1873231E+03  0.7818608E-02  0.1161686E+00
         21   -1    0    0  501  502  0.00000000000E+00  0.00000000000E+00  0.11121440486E+04  0.11121440486E+04  0.00000000000E+00 0. -1.
         21   -1    0    0  502  503 -0.00000000000E+00 -0.00000000000E+00 -0.34695872848E+02  0.34695872848E+02  0.00000000000E+00 0.  1.
         -6    2    1    2    0  503  0.56610569250E+02 -0.44016599065E+02  0.72191868838E+03  0.74498031542E+03  0.16937195810E+03 0.  0.
        -24    2    3    3    0    0 -0.16585244058E+02 -0.67749188560E+02  0.42710429166E+03  0.44025341900E+03  0.80870106436E+02 0.  0.
          6    2    1    2  501    0 -0.56610569250E+02  0.44016599065E+02  0.35552948738E+03  0.40185960603E+03  0.17305406387E+03 0.  0.
         24    2    5    5    0    0 -0.76012221196E+02 -0.27589899420E+02  0.17270363674E+03  0.20449877814E+03  0.73852175309E+02 0.  0.
          5    1    5    5  501    0  0.19401651946E+02  0.71606498485E+02  0.18282585064E+03  0.19736082789E+03  0.47000000000E+01 0. -1.
        -11    1    6    6    0    0 -0.35410536413E+02  0.59383272653E+01  0.16229799191E+02  0.39402743579E+02  0.00000000000E+00 0.  1.
         12    1    6    6    0    0 -0.40601684784E+02 -0.33528226685E+02  0.15647383755E+03  0.16509603456E+03  0.00000000000E+00 0. -1.
         -5    1    3    3    0  503  0.73195813307E+02  0.23732589496E+02  0.29481439671E+03  0.30472689642E+03  0.47000000000E+01 0.  1.
         13    1    4    4    0    0  0.21849065740E+02 -0.61113758829E+02  0.21460174672E+03  0.22420121072E+03  0.00000000000E+00 0. -1.
        -14    1    4    4    0    0 -0.38434309797E+02 -0.66354297311E+01  0.21250254494E+03  0.21605220828E+03  0.00000000000E+00 0.  1.
</event>
<event>
12    1  0.1598254E-001  0.2473802E+03  0.7818608E-02  0.1115182E+00
         21   -1    0    0  501  502  0.00000000000E+00  0.00000000000E+00  0.10956249442E+03  0.10956249442E+03  0.00000000000E+00 0. -1.
         21   -1    0    0  502  503 -0.00000000000E+00 -0.00000000000E+00 -0.11512738775E+04  0.11512738775E+04  0.00000000000E+00 0. -1.
         -6    2    1    2    0  503 -0.19717005306E+02  0.17615306422E+03 -0.97365176662E+03  0.10042645823E+04  0.17067784344E+03 0.  0.
        -24    2    3    3    0    0 -0.56079966932E+02  0.18277950733E+03 -0.77804941542E+03  0.80514515952E+03  0.79652520762E+02 0.  0.
          6    2    1    2  501    0  0.19717005306E+02 -0.17615306422E+03 -0.68059616407E+02  0.25657178959E+03  0.17256392873E+03 0.  0.
         24    2    5    5    0    0 -0.22128591602E+02 -0.76630211179E+02 -0.94052271389E+02  0.14542521803E+03  0.77076588233E+02 0.  0.
          5    1    5    5  501    0  0.41845596908E+02 -0.99522853039E+02  0.25992654982E+02  0.11114657156E+03  0.47000000000E+01 0. -1.
        -13    1    6    6    0    0  0.27193025401E+02 -0.43849888348E+02 -0.40735819087E+02  0.65739488097E+02  0.00000000000E+00 0.  1.
         14    1    6    6    0    0 -0.49321617003E+02 -0.32780322831E+02 -0.53316452302E+02  0.79685729931E+02  0.00000000000E+00 0. -1.
         -5    1    3    3    0  503  0.36362961626E+02 -0.66264431078E+01 -0.19560235120E+03  0.19911942276E+03  0.47000000000E+01 0.  1.
         13    1    4    4    0    0  0.11512635130E+02  0.87010993558E+02 -0.39127006174E+03  0.40099341015E+03  0.00000000000E+00 0. -1.
        -14    1    4    4    0    0 -0.67592602062E+02  0.95768513767E+02 -0.38677935368E+03  0.40415174936E+03  0.00000000000E+00 0.  1.
</event>
<event>
12    1  0.1598254E-001  0.2006519E+03  0.7818608E-02  0.1149379E+00
         21   -1    0    0  501  502  0.00000000000E+00  0.00000000000E+00  0.92642988256E+03  0.92642988256E+03  0.00000000000E+00 0.  1.
         21   -1    0    0  502  503 -0.00000000000E+00 -0.00000000000E+00 -0.96287260108E+02  0.96287260108E+02  0.00000000000E+00 0. -1.
         -6    2    1    2    0  503 -0.21745264091E+02 -0.10035640031E+03  0.36023323829E+02  0.20385986809E+03  0.17238591115E+03 0.  0.
        -24    2    3    3    0    0  0.26993606457E+02 -0.12005273308E+03  0.17577352066E+02  0.14795130970E+03  0.80245331492E+02 0.  0.
          6    2    1    2  501    0  0.21745264091E+02  0.10035640031E+03  0.79411929862E+03  0.81885727458E+03  0.17134033996E+03 0.  0.
         24    2    5    5    0    0 -0.12282583020E+01  0.86142155801E+02  0.77843521091E+03  0.78726759136E+03  0.80043133440E+02 0.  0.
          5    1    5    5  501    0  0.22973522393E+02  0.14214244514E+02  0.15684087717E+02  0.31589683217E+02  0.47000000000E+01 0. -1.
        -13    1    6    6    0    0  0.37719070845E+02  0.53884664452E+02  0.49577714293E+03  0.50012124612E+03  0.00000000000E+00 0.  1.
         14    1    6    6    0    0 -0.38947329147E+02  0.32257491349E+02  0.28265806797E+03  0.28714634524E+03  0.00000000000E+00 0. -1.
         -5    1    3    3    0  503 -0.48738870548E+02  0.19696332765E+02  0.18445971763E+02  0.55908558388E+02  0.47000000000E+01 0.  1.
         13    1    4    4    0    0 -0.10374912965E+02 -0.22339108528E+02 -0.24915801775E+02  0.35035293163E+02  0.00000000000E+00 0. -1.
        -14    1    4    4    0    0  0.37368519422E+02 -0.97713624552E+02  0.42493153841E+02  0.11291601654E+03  0.00000000000E+00 0.  1.
</event>
<event>
12    1  0.1598254E-001  0.2101609E+03  0.7818608E-02  0.1141694E+00
         21   -1    0    0  501  502  0.00000000000E+00  0.00000000000E+00  0.43468214210E+03  0.43468214210E+03  0.00000000000E+00 0. -1.
         21   -1    0    0  502  503 -0.00000000000E+00 -0.00000000000E+00 -0.20100971415E+03  0.20100971415E+03  0.00000000000E+00 0. -1.
         -6    2    1    2    0  503  0.26659800979E+02  0.11585214016E+03 -0.10719311189E+03  0.23591936753E+03  0.17330643777E+03 0.  0.
        -24    2    3    3    0    0  0.52735399478E+02  0.21242413391E+02 -0.96874671784E+02  0.13712919878E+03  0.78660362570E+02 0.  0.
          6    2    1    2  501    0 -0.26659800979E+02 -0.11585214016E+03  0.34086553983E+03  0.39977248872E+03  0.17174476155E+03 0.  0.
         24    2    5    5    0    0  0.48421846132E+01 -0.12966361989E+03  0.32905663968E+03  0.36310271654E+03  0.82031759504E+02 0.  0.
          5    1    5    5  501    0 -0.31501985593E+02  0.13811479730E+02  0.11808900153E+02  0.36669772176E+02  0.47000000000E+01 0. -1.
        -11    1    6    6    0    0 -0.32836882071E+02 -0.98697211917E+02  0.20704628505E+03  0.23170577165E+03  0.00000000000E+00 0.  1.
         12    1    6    6    0    0  0.37679066684E+02 -0.30966407972E+02  0.12201035463E+03  0.13139694489E+03  0.00000000000E+00 0. -1.
         -5    1    3    3    0  503 -0.26075598499E+02  0.94609726770E+02 -0.10318440102E+02  0.98790168755E+02  0.47000000000E+01 0.  1.
         13    1    4    4    0    0  0.45972667224E+02  0.33535616076E+01 -0.87054100979E+01  0.46909665018E+02  0.00000000000E+00 0. -1.
        -14    1    4    4    0    0  0.67627322544E+01  0.17888851783E+02 -0.88169261686E+02  0.90219533760E+02  0.00000000000E+00 0.  1.
</event>
<event>
12    1  0.1598254E-001  0.3108902E+03  0.7818608E-02  0.1080384E+00
         21   -1    0    0  501  502  0.00000000000E+00  0.00000000000E+00  0.14093730438E+04  0.14093730438E+04  0.00000000000E+00 0.  1.
         21   -1    0    0  502  503 -0.00000000000E+00 -0.00000000000E+00 -0.88787878788E+02  0.88787878788E+02  0.00000000000E+00 0. -1.
         -6    2    1    2    0  503 -0.22303290645E+03  0.11993067523E+03  0.29863733813E+03  0.43108810923E+03  0.18034870107E+03 0.  0.
        -24    2    3    3    0    0 -0.74325636614E+02 -0.12303733664E+02  0.13094481653E+03  0.17081390230E+03  0.79719270699E+02 0.  0.
          6    2    1    2  501    0  0.22303290645E+03 -0.11993067523E+03  0.10219478269E+04  0.10670728134E+04  0.17360870922E+03 0.  0.
         24    2    5    5    0    0  0.24265001150E+03 -0.91059042655E+02  0.93091403313E+03  0.96946316432E+03  0.78019949889E+02 0.  0.
          5    1    5    5  501    0 -0.19617105057E+02 -0.28871632576E+02  0.91033793760E+02  0.97609649035E+02  0.47000000000E+01 0. -1.
        -11    1    6    6    0    0  0.92848587804E+02 -0.13918379365E+02  0.45543776838E+03  0.46501413141E+03  0.00000000000E+00 0.  1.
         12    1    6    6    0    0  0.14980142370E+03 -0.77140663291E+02  0.47547626475E+03  0.50444903292E+03  0.00000000000E+00 0. -1.
         -5    1    3    3    0  503 -0.14870726983E+03  0.13223440890E+03  0.16769252160E+03  0.26027420694E+03  0.47000000000E+01 0.  1.
         13    1    4    4    0    0 -0.50128929485E+02 -0.29644429303E+02  0.29880333725E+02  0.65456367937E+02  0.00000000000E+00 0. -1.
        -14    1    4    4    0    0 -0.24196707129E+02  0.17340695638E+02  0.10106448281E+03  0.10535753436E+03  0.00000000000E+00 0.  1.
</event>
<event>
12    1  0.1598254E-001  0.1860752E+03  0.7818608E-02  0.1162102E+00
         21   -1    0    0  501  502  0.00000000000E+00  0.00000000000E+00  0.86756871633E+02  0.86756871633E+02  0.00000000000E+00 0. -1.
         21   -1    0    0  502  503 -0.00000000000E+00 -0.00000000000E+00 -0.40015316573E+03  0.40015316573E+03  0.00000000000E+00 0. -1.
         -6    2    1    2    0  503 -0.48363822782E+02 -0.52090881688E+02 -0.14165479191E+03  0.23385902978E+03  0.17196350318E+03 0.  0.
        -24    2    3    3    0    0 -0.90024734220E+02 -0.35572071071E+02 -0.14529816750E+03  0.18864988433E+03  0.71466050457E+02 0.  0.
          6    2    1    2  501    0  0.48363822782E+02  0.52090881688E+02 -0.17174150218E+03  0.25305100759E+03  0.17171822722E+03 0.  0.
         24    2    5    5    0    0  0.14063581749E+02 -0.36934261695E+02 -0.90026216694E+02  0.12734714698E+03  0.80936099072E+02 0.  0.
          5    1    5    5  501    0  0.34300241033E+02  0.89025143383E+02 -0.81715285491E+02  0.12570386061E+03  0.47000000000E+01 0. -1.
        -13    1    6    6    0    0 -0.72368376483E+01 -0.58518763480E+02 -0.67131710933E+02  0.89350344773E+02  0.00000000000E+00 0.  1.
         14    1    6    6    0    0  0.21300419397E+02  0.21584501785E+02 -0.22894505761E+02  0.37996802205E+02  0.00000000000E+00 0. -1.
         -5    1    3    3    0  503  0.41660911438E+02 -0.16518810617E+02  0.36433755868E+01  0.45209145444E+02  0.47000000000E+01 0.  1.
         11    1    4    4    0    0 -0.74280056752E+02  0.36747503662E+01 -0.69169671328E+02  0.10156512223E+03  0.00000000000E+00 0. -1.
        -12    1    4    4    0    0 -0.15744677469E+02 -0.39246821437E+02 -0.76128496173E+02  0.87084762106E+02  0.00000000000E+00 0.  1.
</event>
<event>
12    1  0.1598254E-001  0.2492420E+03  0.7818608E-02  0.1113814E+00
         21   -1    0    0  503  502  0.00000000000E+00  0.00000000000E+00  0.90613362542E+02  0.90613362542E+02  0.00000000000E+00 0.  1.
         21   -1    0    0  501  503 -0.00000000000E+00 -0.00000000000E+00 -0.99128973267E+03  0.99128973267E+03  0.00000000000E+00 0. -1.
          6    2    1    2  501    0  0.16838043840E+03 -0.64980880915E+02 -0.75111655639E+03  0.79138968681E+03  0.17189260658E+03 0.  0.
         24    2    3    3    0    0  0.19101123869E+03 -0.74009217977E+02 -0.63321720404E+03  0.67090727617E+03  0.84793207669E+02 0.  0.
         -6    2    1    2    0  502 -0.16838043840E+03  0.64980880915E+02 -0.14955981375E+03  0.29051340840E+03  0.17162580124E+03 0.  0.
        -24    2    5    5    0    0 -0.14686299759E+03  0.58439773676E+02 -0.18009535625E+03  0.25229959285E+03  0.78973413251E+02 0.  0.
          5    1    3    3  501    0 -0.22630800292E+02  0.90283370625E+01 -0.11789935234E+03  0.12048241065E+03  0.47000000000E+01 0. -1.
        -13    1    4    4    0    0  0.63923642835E+02  0.87958184991E+01 -0.26346700580E+03  0.27125350077E+03  0.00000000000E+00 0.  1.
         14    1    4    4    0    0  0.12708759586E+03 -0.82805036476E+02 -0.36975019824E+03  0.39965377539E+03  0.00000000000E+00 0. -1.
         -5    1    5    5    0  502 -0.21517440811E+02  0.65411072383E+01  0.30535542505E+02  0.38213815552E+02  0.47000000000E+01 0.  1.
         13    1    6    6    0    0 -0.13326522338E+03  0.69650929979E+02 -0.12856159577E+03  0.19783567858E+03  0.00000000000E+00 0. -1.
        -14    1    6    6    0    0 -0.13597774209E+02 -0.11211156303E+02 -0.51533760476E+02  0.54463914272E+02  0.00000000000E+00 0.  1.
</event>
<event>
12    1  0.1598254E-001  0.1917709E+03  0.7818608E-02  0.1157081E+00
         21   -1    0    0  503  502  0.00000000000E+00  0.00000000000E+00  0.65379706292E+03  0.65379706292E+03  0.00000000000E+00 0.  1.
         21   -1    0    0  501  503 -0.00000000000E+00 -0.00000000000E+00 -0.78019486277E+02  0.78019486277E+02  0.00000000000E+00 0.  1.
          6    2    1    2  501    0 -0.22091713313E+02  0.81513177983E+02  0.92900729751E+02  0.21225315853E+03  0.17113858634E+03 0.  0.
         24    2    3    3    0    0 -0.40168903735E+02  0.11857620127E+03  0.63584967451E+02  0.16144020321E+03  0.79662003445E+02 0.  0.
         -6    2    1    2    0  502  0.22091713313E+02 -0.81513177983E+02  0.48287684689E+03  0.51956339067E+03  0.17217324322E+03 0.  0.
        -24    2    5    5    0    0 -0.24378347245E+02 -0.10244502655E+03  0.27257666207E+03  0.30312433101E+03  0.80604193829E+02 0.  0.
          5    1    3    3  501    0  0.18077190421E+02 -0.37063023284E+02  0.29315762299E+02  0.50812955314E+02  0.47000000000E+01 0. -1.
        -11    1    4    4    0    0 -0.87866224794E+01  0.10273331732E+03  0.19301636210E+02  0.10489943938E+03  0.00000000000E+00 0.  1.
         12    1    4    4    0    0 -0.31382281255E+02  0.15842883947E+02  0.44283331241E+02  0.56540763829E+02  0.00000000000E+00 0. -1.
         -5    1    5    5    0  502  0.46470060558E+02  0.20931848569E+02  0.21030018482E+03  0.21643905967E+03  0.47000000000E+01 0.  1.
         13    1    6    6    0    0  0.27554861102E+02 -0.24897541552E+02  0.54877356835E+02  0.66262223317E+02  0.00000000000E+00 0. -1.
        -14    1    6    6    0    0 -0.51933208347E+02 -0.77547485001E+02  0.21769930524E+03  0.23686210769E+03  0.00000000000E+00 0.  1.
</event>
<event>
12    1  0.1598254E-001  0.1896541E+03  0.7818608E-02  0.1158980E+00
         21   -1    0    0  503  502  0.00000000000E+00  0.00000000000E+00  0.78778232221E+02  0.78778232221E+02  0.00000000000E+00 0. -1.
         21   -1    0    0  501  503 -0.00000000000E+00 -0.00000000000E+00 -0.47664649245E+03  0.47664649245E+03  0.00000000000E+00 0. -1.
          6    2    1    2  501    0  0.51423624709E+02 -0.57840797351E+02 -0.13846427032E+03  0.23408519389E+03  0.17214405836E+03 0.  0.
         24    2    3    3    0    0  0.27828321329E+02 -0.81716547797E+02 -0.15728358156E+03  0.19531605312E+03  0.77189545442E+02 0.  0.
         -6    2    1    2    0  502 -0.51423624709E+02  0.57840797351E+02 -0.25940398991E+03  0.32133953078E+03  0.17314363125E+03 0.  0.
        -24    2    5    5    0    0  0.36250507596E+02  0.35859499324E+02 -0.16038664143E+03  0.18718865960E+03  0.81949475536E+02 0.  0.
          5    1    3    3  501    0  0.23595303379E+02  0.23875750445E+02  0.18819311240E+02  0.38769140775E+02  0.47000000000E+01 0. -1.
        -13    1    4    4    0    0  0.25709344121E+02 -0.47100121313E+02 -0.26185577983E+02  0.59708259873E+02  0.00000000000E+00 0.  1.
         14    1    4    4    0    0  0.21189772082E+01 -0.34616426484E+02 -0.13109800358E+03  0.13560779324E+03  0.00000000000E+00 0. -1.
         -5    1    5    5    0  502 -0.87674132304E+02  0.21981298028E+02 -0.99017348483E+02  0.13415087118E+03  0.47000000000E+01 0.  1.
         11    1    6    6    0    0  0.15081840053E+02 -0.21213899345E+02 -0.92106960741E+02  0.95714072329E+02  0.00000000000E+00 0. -1.
        -12    1    6    6    0    0  0.21168667543E+02  0.57073398669E+02 -0.68279680686E+02  0.91474587267E+02  0.00000000000E+00 0.  1.
</event>
<event>
12    1  0.1598254E-001  0.1798805E+03  0.7818608E-02  0.1168367E+00
         21   -1    0    0  503  502  0.00000000000E+00  0.00000000000E+00  0.20273945816E+03  0.20273945816E+03  0.00000000000E+00 0.  1.
         21   -1    0    0  501  503 -0.00000000000E+00 -0.00000000000E+00 -0.51362931316E+03  0.51362931316E+03  0.00000000000E+00 0.  1.
          6    2    1    2  501    0 -0.97283302380E+01 -0.49028113319E+02 -0.45374574824E+03  0.48810059439E+03  0.17279638276E+03 0.  0.
         24    2    3    3    0    0  0.17714084128E+02 -0.78915015147E+02 -0.42075406085E+03  0.43559483810E+03  0.78533527008E+02 0.  0.
         -6    2    1    2    0  502  0.97283302380E+01  0.49028113319E+02  0.14285589325E+03  0.22826817693E+03  0.17088053738E+03 0.  0.
        -24    2    5    5    0    0  0.49106998262E+02  0.52072957144E+02  0.15293573756E+03  0.18723594776E+03  0.80900371860E+02 0.  0.
          5    1    3    3  501    0 -0.27442414366E+02  0.29886901828E+02 -0.32991687395E+02  0.52505756297E+02  0.47000000000E+01 0. -1.
        -13    1    4    4    0    0 -0.26017753171E+02 -0.59202395468E+02 -0.23257248767E+03  0.24139554497E+03  0.00000000000E+00 0.  1.
         14    1    4    4    0    0  0.43731837299E+02 -0.19712619679E+02 -0.18818157317E+03  0.19419929312E+03  0.00000000000E+00 0. -1.
         -5    1    5    5    0  502 -0.39378668024E+02 -0.30448438249E+01 -0.10079844307E+02  0.41032229168E+02  0.47000000000E+01 0.  1.
         13    1    6    6    0    0  0.28079695637E+02  0.16625079201E+02  0.42072417767E+01  0.32902331967E+02  0.00000000000E+00 0. -1.
        -14    1    6    6    0    0  0.21027302626E+02  0.35447877943E+02  0.14872849578E+03  0.15433361579E+03  0.00000000000E+00 0.  1.
</event>
<event>
12    1  0.1598254E-001  0.2515142E+03  0.7818608E-02  0.1112804E+00
         21   -1    0    0  501  502  0.00000000000E+00  0.00000000000E+00  0.28804026629E+03  0.28804026629E+03  0.00000000000E+00 0. -1.
         21   -1    0    0  502  503 -0.00000000000E+00 -0.00000000000E+00 -0.26878127252E+03  0.26878127252E+03  0.00000000000E+00 0. -1.
         -6    2    1    2    0  503  0.12253604873E+03  0.13066218181E+03 -0.11246987792E+03  0.27289925287E+03  0.17244372932E+03 0.  0.
        -24    2    3    3    0    0  0.10520312046E+03  0.16404836846E+03 -0.92420606694E+02  0.23001416061E+03  0.79908583956E+02 0.  0.
          6    2    1    2  501    0 -0.12253604873E+03 -0.13066218181E+03  0.13172887170E+03  0.28392228594E+03  0.17655503341E+03 0.  0.
         24    2    5    5    0    0 -0.56291034363E+02 -0.39403449794E+02  0.13459457318E+03  0.17102029153E+03  0.80068274495E+02 0.  0.
          5    1    5    5  501    0 -0.66245014368E+02 -0.91258732012E+02 -0.28657014801E+01  0.11290199441E+03  0.47000000000E+01 0. -1.
        -11    1    6    6    0    0  0.57986391127E+01  0.19242254249E+02  0.26291077757E+02  0.33092436202E+02  0.00000000000E+00 0.  1.
         12    1    6    6    0    0 -0.62089673476E+02 -0.58645704043E+02  0.10830349542E+03  0.13792785533E+03  0.00000000000E+00 0. -1.
         -5    1    3    3    0  503  0.17332928271E+02 -0.33386186649E+02 -0.20049271230E+02  0.42885092261E+02  0.47000000000E+01 0.  1.
         11    1    4    4    0    0  0.66304702465E+02  0.61255469244E+02 -0.77741904743E+02  0.11913164917E+03  0.00000000000E+00 0. -1.
        -12    1    4    4    0    0  0.38898417995E+02  0.10279289921E+03 -0.14678701950E+02  0.11088251143E+03  0.00000000000E+00 0.  1.
</event>
<event>
12    1  0.1598254E-001  0.1937466E+03  0.7818608E-02  0.1158344E+00
         21   -1    0    0  501  502  0.00000000000E+00  0.00000000000E+00  0.78850737659E+02  0.78850737659E+02  0.00000000000E+00 0. -1.
         21   -1    0    0  502  503 -0.00000000000E+00 -0.00000000000E+00 -0.44910339061E+03  0.44910339061E+03  0.00000000000E+00 0. -1.
         -6    2    1    2    0  503 -0.46084526284E+02  0.22682944169E+02 -0.14538109852E+03  0.23112931212E+03  0.17218244858E+03 0.  0.
        -24    2    3    3    0    0 -0.38328373451E+02 -0.32341245434E+02 -0.22463101735E+02  0.96152487148E+02  0.78903038455E+02 0.  0.
          6    2    1    2  501    0  0.46084526284E+02 -0.22682944169E+02 -0.22487155443E+03  0.29682481614E+03  0.18681396084E+03 0.  0.
         24    2    5    5    0    0 -0.36570928333E+02  0.24994013131E+02 -0.15513735305E+03  0.17854563252E+03  0.76477520161E+02 0.  0.
          5    1    5    5  501    0  0.82655454617E+02 -0.47676957300E+02 -0.69734201386E+02  0.11827918362E+03  0.47000000000E+01 0. -1.
        -13    1    6    6    0    0 -0.54862798426E+02  0.36538422123E+01 -0.12872362332E+03  0.13997517071E+03  0.00000000000E+00 0.  1.
         14    1    6    6    0    0  0.18291870093E+02  0.21340170919E+02 -0.26413729729E+02  0.38570461814E+02  0.00000000000E+00 0. -1.
         -5    1    3    3    0  503 -0.77561528330E+01  0.55024189603E+02 -0.12291799678E+03  0.13497682498E+03  0.47000000000E+01 0.  1.
         13    1    4    4    0    0  0.57324626990E+01  0.22335350599E+02 -0.27832821942E+01  0.23226615654E+02  0.00000000000E+00 0. -1.
        -14    1    4    4    0    0 -0.44060836150E+02 -0.54676596033E+02 -0.19679819541E+02  0.72925871494E+02  0.00000000000E+00 0.  1.
</event>
<event>
12    1  0.1598254E-001  0.2035081E+03  0.7818608E-02  0.1147006E+00
         21   -1    0    0  503  502  0.00000000000E+00  0.00000000000E+00  0.81717793867E+03  0.81717793867E+03  0.00000000000E+00 0. -1.
         21   -1    0    0  501  503 -0.00000000000E+00 -0.00000000000E+00 -0.51129712647E+02  0.51129712647E+02  0.00000000000E+00 0. -1.
          6    2    1    2  501    0 -0.23118611792E+01 -0.10720294158E+03  0.33203327435E+03  0.38894918756E+03  0.17186494650E+03 0.  0.
         24    2    3    3    0    0  0.52065235242E+02 -0.52594186010E+02  0.16776292188E+03  0.20743934346E+03  0.97003845987E+02 0.  0.
         -6    2    1    2    0  502  0.23118611792E+01  0.10720294158E+03  0.43401495167E+03  0.47935846376E+03  0.17296746261E+03 0.  0.
        -24    2    5    5    0    0 -0.32084829140E+02  0.11531048694E+03  0.41434162132E+03  0.43863998486E+03  0.80000703142E+02 0.  0.
          5    1    3    3  501    0 -0.54377096421E+02 -0.54608755569E+02  0.16427035248E+03  0.18150984409E+03  0.47000000000E+01 0. -1.
        -11    1    4    4    0    0 -0.13826362785E+02 -0.45528724278E+02  0.35039868770E+02  0.59091669850E+02  0.00000000000E+00 0.  1.
         12    1    4    4    0    0  0.65891598027E+02 -0.70654617323E+01  0.13272305311E+03  0.14834767361E+03  0.00000000000E+00 0. -1.
         -5    1    5    5    0  502  0.34396690320E+02 -0.81075453635E+01  0.19673330350E+02  0.40718478899E+02  0.47000000000E+01 0.  1.
         11    1    6    6    0    0  0.35582988101E+01  0.33258738464E+02  0.33153513542E+02  0.47095229427E+02  0.00000000000E+00 0. -1.
        -12    1    6    6    0    0 -0.35643127951E+02  0.82051748480E+02  0.38118810778E+03  0.39154475544E+03  0.00000000000E+00 0.  1.
</event>
<event>
12    1  0.1598254E-001  0.1791638E+03  0.7818608E-02  0.1168639E+00
         21   -1    0    0  503  502  0.00000000000E+00  0.00000000000E+00  0.32740620114E+03  0.32740620114E+03  0.00000000000E+00 0.  1.
         21   -1    0    0  501  503 -0.00000000000E+00 -0.00000000000E+00 -0.71360072517E+03  0.71360072517E+03  0.00000000000E+00 0.  1.
          6    2    1    2  501    0 -0.47600062467E+02  0.10389904471E+02 -0.67655227684E+03  0.69987331143E+03  0.17241215935E+03 0.  0.
         24    2    3    3    0    0 -0.29013582329E+02  0.72575536087E+02 -0.42434371312E+03  0.43940496472E+03  0.83067079874E+02 0.  0.
         -6    2    1    2    0  502  0.47600062467E+02 -0.10389904471E+02  0.29035775281E+03  0.34113361488E+03  0.17231019274E+03 0.  0.
        -24    2    5    5    0    0 -0.10475718732E+02  0.83621232081E+01  0.64519572908E+02  0.10714769991E+03  0.84487801010E+02 0.  0.
          5    1    3    3  501    0 -0.18586480138E+02 -0.62185631617E+02 -0.25220856372E+03  0.26046834670E+03  0.47000000000E+01 0. -1.
        -13    1    4    4    0    0 -0.25525638456E+02 -0.10116856413E+02 -0.16214602402E+03  0.16445437698E+03  0.00000000000E+00 0.  1.
         14    1    4    4    0    0 -0.34879438728E+01  0.82692392500E+02 -0.26219768910E+03  0.27495058775E+03  0.00000000000E+00 0. -1.
         -5    1    5    5    0  502  0.58075781199E+02 -0.18752027679E+02  0.22583817990E+03  0.23398591497E+03  0.47000000000E+01 0.  1.
         13    1    6    6    0    0  0.16908826750E+02 -0.30681087939E+02  0.41143285084E+02  0.54037093618E+02  0.00000000000E+00 0. -1.
        -14    1    6    6    0    0 -0.27384545482E+02  0.39043211147E+02  0.23376287824E+02  0.53110606289E+02  0.00000000000E+00 0.  1.
</event>
<event>
12    1  0.1598254E-001  0.2625649E+03  0.7818608E-02  0.1105708E+00
         21   -1    0    0  501  502  0.00000000000E+00  0.00000000000E+00  0.21196363495E+03  0.21196363495E+03  0.00000000000E+00 0. -1.
         21   -1    0    0  502  503 -0.00000000000E+00 -0.00000000000E+00 -0.40898457451E+03  0.40898457451E+03  0.00000000000E+00 0. -1.
         -6    2    1    2    0  503  0.17531797948E+03 -0.94286700587E+02 -0.23957235299E+03  0.35495765795E+03  0.17021648212E+03 0.  0.
        -24    2    3    3    0    0  0.18576429960E+03 -0.10192113553E+03 -0.25002681129E+03  0.33767194422E+03  0.81318157104E+02 0.  0.
          6    2    1    2  501    0 -0.17531797948E+03  0.94286700587E+02  0.42551413434E+02  0.26599055151E+03  0.17121324386E+03 0.  0.
         24    2    5    5    0    0 -0.17289974723E+03  0.96398128407E+02 -0.98637645868E+01  0.21326724678E+03  0.78731842019E+02 0.  0.
          5    1    5    5  501    0 -0.24182322524E+01 -0.21114278200E+01  0.52415178021E+02  0.52723304730E+02  0.47000000000E+01 0. -1.
        -13    1    6    6    0    0 -0.21223015289E+02  0.18850405406E+02 -0.30506375622E+02  0.41670050582E+02  0.00000000000E+00 0.  1.
         14    1    6    6    0    0 -0.15167673194E+03  0.77547723001E+02  0.20642611035E+02  0.17159719620E+03  0.00000000000E+00 0. -1.
         -5    1    3    3    0  503 -0.10446320120E+02  0.76344349449E+01  0.10454458298E+02  0.17285713734E+02  0.47000000000E+01 0.  1.
         13    1    4    4    0    0  0.92819353759E+02 -0.93764031384E+02 -0.16656221232E+03  0.21248552089E+03  0.00000000000E+00 0. -1.
        -14    1    4    4    0    0  0.92944945840E+02 -0.81571041480E+01 -0.83464598969E+02  0.12518642333E+03  0.00000000000E+00 0.  1.
</event>
<event>
12    1  0.1598254E-001  0.2362575E+03  0.7818608E-02  0.1122758E+00
         21   -1    0    0  503  502  0.00000000000E+00  0.00000000000E+00  0.24884210249E+04  0.24884210249E+04  0.00000000000E+00 0. -1.
         21   -1    0    0  501  503 -0.00000000000E+00 -0.00000000000E+00 -0.24774707408E+02  0.24774707408E+02  0.00000000000E+00 0.  1.
          6    2    1    2  501    0 -0.13104765515E+03  0.88489544921E+02  0.81931789558E+03  0.85198124135E+03  0.17200678509E+03 0.  0.
         24    2    3    3    0    0 -0.12210711865E+03  0.69233847484E+02  0.81372062938E+03  0.82952830244E+03  0.79198912937E+02 0.  0.
         -6    2    1    2    0  502  0.13104765515E+03 -0.88489544921E+02  0.16443284219E+04  0.16612144909E+04  0.17553842419E+03 0.  0.
        -24    2    5    5    0    0  0.87592876567E+02 -0.73652214190E+02  0.56753323171E+03  0.58343045145E+03  0.72110761370E+02 0.  0.
          5    1    3    3  501    0 -0.89405364995E+01  0.19255697437E+02  0.55972661952E+01  0.22452938906E+02  0.47000000000E+01 0. -1.
        -13    1    4    4    0    0 -0.43352537461E+02  0.57763804470E+02  0.25019284273E+03  0.26040844488E+03  0.00000000000E+00 0.  1.
         14    1    4    4    0    0 -0.78754581189E+02  0.11470043014E+02  0.56352778665E+03  0.56911985756E+03  0.00000000000E+00 0. -1.
         -5    1    5    5    0  502  0.43454778583E+02 -0.14837330731E+02  0.10767951902E+04  0.10777840395E+04  0.47000000000E+01 0.  1.
         13    1    6    6    0    0  0.18226463694E+02 -0.22302257226E+02  0.31979687604E+03  0.32109132125E+03  0.00000000000E+00 0. -1.
        -14    1    6    6    0    0  0.69366412873E+02 -0.51349956964E+02  0.24773635567E+03  0.26233913020E+03  0.00000000000E+00 0.  1.
</event>
<event>
12    1  0.1598254E-001  0.2290627E+03  0.7818608E-02  0.1128513E+00
         21   -1    0    0  501  502  0.00000000000E+00  0.00000000000E+00  0.16362894513E+03  0.16362894513E+03  0.00000000000E+00 0. -1.
         21   -1    0    0  502  503 -0.00000000000E+00 -0.00000000000E+00 -0.31243926511E+03  0.31243926511E+03  0.00000000000E+00 0.  1.
         -6    2    1    2    0  503  0.74870841811E+01 -0.14078087316E+03 -0.61095313246E+02  0.23707037936E+03  0.18053923893E+03 0.  0.
        -24    2    3    3    0    0 -0.34069280405E+02 -0.14501147360E+03 -0.83818016877E+02  0.18928711160E+03  0.81333310045E+02 0.  0.
          6    2    1    2  501    0 -0.74870841811E+01  0.14078087316E+03 -0.87715006739E+02  0.23899783088E+03  0.17190325791E+03 0.  0.
         24    2    5    5    0    0 -0.23781819050E+01  0.92493833176E+02  0.16515487128E+02  0.12391601231E+03  0.80756745028E+02 0.  0.
          5    1    5    5  501    0 -0.51089022761E+01  0.48287039980E+02 -0.10423049387E+03  0.11508181857E+03  0.47000000000E+01 0. -1.
        -13    1    6    6    0    0  0.33730231422E+02  0.59450701356E+02 -0.86189794522E+01  0.68894130449E+02  0.00000000000E+00 0.  1.
         14    1    6    6    0    0 -0.36108413327E+02  0.33043131820E+02  0.25134466580E+02  0.55021881863E+02  0.00000000000E+00 0. -1.
         -5    1    3    3    0  503  0.41556364586E+02  0.42306004424E+01  0.22722703631E+02  0.47783267762E+02  0.47000000000E+01 0.  1.
         13    1    4    4    0    0  0.19416667773E+02 -0.17673028754E+02 -0.32883410623E+02  0.42079230352E+02  0.00000000000E+00 0. -1.
        -14    1    4    4    0    0 -0.53485948178E+02 -0.12733844485E+03 -0.50934606254E+02  0.14720788125E+03  0.00000000000E+00 0.  1.
</event>
<event>
12    1  0.1598254E-001  0.1733928E+03  0.7818608E-02  0.1174778E+00
         21   -1    0    0  501  502  0.00000000000E+00  0.00000000000E+00  0.90382688394E+03  0.90382688394E+03  0.00000000000E+00 0. -1.
         21   -1    0    0  502  503 -0.00000000000E+00 -0.00000000000E+00 -0.33240087510E+02  0.33240087510E+02  0.00000000000E+00 0. -1.
         -6    2    1    2    0  503  0.17757542952E+02  0.12573098678E+02  0.39337840842E+03  0.42989724104E+03  0.17202224419E+03 0.  0.
        -24    2    3    3    0    0 -0.12977585611E+01 -0.52730914928E+02  0.29194550903E+03  0.30767432262E+03  0.81541860326E+02 0.  0.
          6    2    1    2  501    0 -0.17757542952E+02 -0.12573098678E+02  0.47720838801E+03  0.50716973041E+03  0.17035221373E+03 0.  0.
         24    2    5    5    0    0  0.41249176540E+02 -0.38918094278E+02  0.27138921623E+03  0.29139328775E+03  0.89676244520E+02 0.  0.
          5    1    5    5  501    0 -0.59006719493E+02  0.26344995600E+02  0.20581917177E+03  0.21577644266E+03  0.47000000000E+01 0. -1.
        -13    1    6    6    0    0 -0.64743835846E+01 -0.47536560686E+02  0.19574620689E+03  0.20153962329E+03  0.00000000000E+00 0.  1.
         14    1    6    6    0    0  0.47723560125E+02  0.86184664086E+01  0.75643009339E+02  0.89853664456E+02  0.00000000000E+00 0. -1.
         -5    1    3    3    0  503  0.19055301513E+02  0.65304013606E+02  0.10143289939E+03  0.12222291842E+03  0.47000000000E+01 0.  1.
         13    1    4    4    0    0  0.13001844327E+02 -0.31884273074E+02  0.33652324357E+02  0.48147001568E+02  0.00000000000E+00 0. -1.
        -14    1    4    4    0    0 -0.14299602888E+02 -0.20846641854E+02  0.25829318468E+03  0.25952732105E+03  0.00000000000E+00 0.  1.
</event>
<event>
12    1  0.1598254E-001  0.1736102E+03  0.7818608E-02  0.1174409E+00
         21   -1    0    0  503  502  0.00000000000E+00  0.00000000000E+00  0.32292448084E+03  0.32292448084E+03  0.00000000000E+00 0.  1.
         21   -1    0    0  501  503 -0.00000000000E+00 -0.00000000000E+00 -0.11390345244E+03  0.11390345244E+03  0.00000000000E+00 0.  1.
          6    2    1    2  501    0 -0.82802258077E+01 -0.61836529338E+01  0.10138432280E+02  0.17283025382E+03  0.17222284727E+03 0.  0.
         24    2    3    3    0    0  0.22376799708E+02 -0.44403338145E+02  0.52718420542E+02  0.10774766820E+03  0.79736757731E+02 0.  0.
         -6    2    1    2    0  502  0.82802258077E+01  0.61836529338E+01  0.19888259611E+03  0.26399767946E+03  0.17330230241E+03 0.  0.
        -24    2    5    5    0    0 -0.23952301217E+02 -0.56414627410E+02  0.51845400406E+02  0.10090412526E+03  0.61134066054E+02 0.  0.
          5    1    3    3  501    0 -0.30657025516E+02  0.38219685211E+02 -0.42579988262E+02  0.65082585624E+02  0.47000000000E+01 0. -1.
        -11    1    4    4    0    0  0.69921650046E+00 -0.44575866036E+01  0.61325428236E+02  0.61491195552E+02  0.00000000000E+00 0.  1.
         12    1    4    4    0    0  0.21677583208E+02 -0.39945751541E+02 -0.86070076944E+01  0.46256472643E+02  0.00000000000E+00 0. -1.
         -5    1    5    5    0  502  0.32232527024E+02  0.62598280344E+02  0.14703719571E+03  0.16309355420E+03  0.47000000000E+01 0.  1.
         13    1    6    6    0    0 -0.38918549790E+02 -0.17337945976E+02  0.37230535517E+02  0.56580656265E+02  0.00000000000E+00 0. -1.
        -14    1    6    6    0    0  0.14966248573E+02 -0.39076681435E+02  0.14614864888E+02  0.44323468998E+02  0.00000000000E+00 0.  1.
</event>
<event>
12    1  0.1598254E-001  0.2513963E+03  0.7818608E-02  0.1112530E+00
         21   -1    0    0  503  502  0.00000000000E+00  0.00000000000E+00  0.11803377750E+04  0.11803377750E+04  0.00000000000E+00 0.  1.
         21   -1    0    0  501  503 -0.00000000000E+00 -0.00000000000E+00 -0.53622644118E+02  0.53622644118E+02  0.00000000000E+00 0.  1.
          6    2    1    2  501    0 -0.13024477565E+03  0.12876149340E+03  0.52310737097E+03  0.58009313324E+03  0.17124105204E+03 0.  0.
         24    2    3    3    0    0 -0.24951129833E+02  0.90966392338E+02  0.17291007958E+03  0.21243098614E+03  0.79571256354E+02 0.  0.
         -6    2    1    2    0  502  0.13024477565E+03 -0.12876149340E+03  0.60360775992E+03  0.65386728588E+03  0.17221171837E+03 0.  0.
        -24    2    5    5    0    0  0.93651869710E+01 -0.73868486043E+02  0.18062540682E+03  0.21051496746E+03  0.78401237094E+02 0.  0.
          5    1    3    3  501    0 -0.10529364582E+03  0.37795101067E+02  0.35019729139E+03  0.36766214710E+03  0.47000000000E+01 0. -1.
        -13    1    4    4    0    0 -0.35119456962E+02  0.57344993358E+01  0.34486124208E+02  0.49553541779E+02  0.00000000000E+00 0.  1.
         14    1    4    4    0    0  0.10168327129E+02  0.85231893002E+02  0.13842395537E+03  0.16287744436E+03  0.00000000000E+00 0. -1.
         -5    1    5    5    0  502  0.12087958868E+03 -0.54893007361E+02  0.42298235311E+03  0.44335231843E+03  0.47000000000E+01 0.  1.
         11    1    6    6    0    0 -0.11643810290E+02  0.57663481761E+01  0.77286174540E+02  0.78370797268E+02  0.00000000000E+00 0. -1.
        -12    1    6    6    0    0  0.21008997261E+02 -0.79634834219E+02  0.10333923228E+03  0.13214417019E+03  0.00000000000E+00 0.  1.
</event>
<event>
12    1  0.1598254E-001  0.1756994E+03  0.7818608E-02  0.1172134E+00
         21   -1    0    0  501  502  0.00000000000E+00  0.00000000000E+00  0.99435897468E+02  0.99435897468E+02  0.00000000000E+00 0. -1.
         21   -1    0    0  502  503 -0.00000000000E+00 -0.00000000000E+00 -0.31645073044E+03  0.31645073044E+03  0.00000000000E+00 0. -1.
         -6    2    1    2    0  503  0.98869441341E+00 -0.33824532040E+02 -0.78330358879E+02  0.19236923762E+03  0.17240998224E+03 0.  0.
        -24    2    3    3    0    0 -0.42845798498E+02 -0.53062789060E+02 -0.94768465687E+02  0.14153741041E+03  0.80002215122E+02 0.  0.
          6    2    1    2  501    0 -0.98869441341E+00  0.33824532040E+02 -0.13868447409E+03  0.22351739029E+03  0.17199291823E+03 0.  0.
         24    2    5    5    0    0  0.27175075229E+02  0.10076753546E+01 -0.13962073680E+02  0.91426848736E+02  0.86165126618E+02 0.  0.
          5    1    5    5  501    0 -0.28163769643E+02  0.32816856685E+02 -0.12472240041E+03  0.13209054155E+03  0.47000000000E+01 0. -1.
        -11    1    6    6    0    0 -0.29768123513E+02  0.95894574150E+01  0.29371624051E+01  0.31412191805E+02  0.00000000000E+00 0.  1.
         12    1    6    6    0    0  0.56943198742E+02 -0.85817820604E+01 -0.16899236085E+02  0.60014656931E+02  0.00000000000E+00 0. -1.
         -5    1    3    3    0  503  0.43834492911E+02  0.19238257020E+02  0.16438106808E+02  0.50831827209E+02  0.47000000000E+01 0.  1.
         13    1    4    4    0    0 -0.28829486087E+02 -0.74013330996E+02 -0.65859014888E+02  0.10318198619E+03  0.00000000000E+00 0. -1.
        -14    1    4    4    0    0 -0.14016312411E+02  0.20950541936E+02 -0.28909450800E+02  0.38355424213E+02  0.00000000000E+00 0.  1.
</event>
<event>
12    1  0.1598254E-001  0.2056947E+03  0.7818608E-02  0.1145108E+00
         21   -1    0    0  501  502  0.00000000000E+00  0.00000000000E+00  0.10371459441E+03  0.10371459441E+03  0.00000000000E+00 0. -1.
         21   -1    0    0  502  503 -0.00000000000E+00 -0.00000000000E+00 -0.48629642839E+03  0.48629642839E+03  0.00000000000E+00 0. -1.
         -6    2    1    2    0  503  0.75657646023E+02  0.81873218736E+02 -0.31049963782E+03  0.37245178698E+03  0.17286701593E+03 0.  0.
        -24    2    3    3    0    0  0.10968642769E+03  0.68885679551E+02 -0.17047129434E+03  0.22768763005E+03  0.77490937642E+02 0.  0.
          6    2    1    2  501    0 -0.75657646023E+02 -0.81873218736E+02 -0.72082196164E+02  0.21755923581E+03  0.17236262569E+03 0.  0.
         24    2    5    5    0    0  0.26944281862E+02 -0.45143718821E+02 -0.41835457819E+02  0.10436397553E+03  0.79860404351E+02 0.  0.
          5    1    5    5  501    0 -0.10260192789E+03 -0.36729499916E+02 -0.30246738345E+02  0.11319526028E+03  0.47000000000E+01 0. -1.
        -13    1    6    6    0    0 -0.45792946962E+01 -0.50274129713E+02 -0.50361340518E+02  0.71307241407E+02  0.00000000000E+00 0.  1.
         14    1    6    6    0    0  0.31523576559E+02  0.51304108921E+01  0.85258826992E+01  0.33056734121E+02  0.00000000000E+00 0. -1.
         -5    1    3    3    0  503 -0.34028781671E+02  0.12987539185E+02 -0.14002834347E+03  0.14476415693E+03  0.47000000000E+01 0.  1.
         13    1    4    4    0    0  0.87744998897E+02  0.68455811135E+02 -0.17288685127E+03  0.20560945078E+03  0.00000000000E+00 0. -1.
        -14    1    4    4    0    0  0.21941428797E+02  0.42986841592E+00  0.24155569281E+01  0.22078179268E+02  0.00000000000E+00 0.  1.
</event>
<event>
12    1  0.1598254E-001  0.1793874E+03  0.7818608E-02  0.1168442E+00
         21   -1    0    0  501  502  0.00000000000E+00  0.00000000000E+00  0.10714974746E+03  0.10714974746E+03  0.00000000000E+00 0. -1.
         21   -1    0    0  502  503 -0.00000000000E+00 -0.00000000000E+00 -0.91314915430E+03  0.91314915430E+03  0.00000000000E+00 0. -1.
         -6    2    1    2    0  503  0.17995826444E+02 -0.48400309696E+02 -0.82109191310E+03  0.84045926225E+03  0.17179465065E+03 0.  0.
        -24    2    3    3    0    0 -0.45741727896E+02 -0.21212086840E+02 -0.63631303744E+03  0.64305865894E+03  0.78024989108E+02 0.  0.
          6    2    1    2  501    0 -0.17995826444E+02  0.48400309696E+02  0.15092506251E+02  0.17983963952E+03  0.17160440684E+03 0.  0.
         24    2    5    5    0    0 -0.10698839926E+00 -0.39138692743E+02  0.21070511995E+02  0.90168495734E+02  0.78450891844E+02 0.  0.
          5    1    5    5  501    0 -0.17888838044E+02  0.87539002439E+02 -0.59780057433E+01  0.89671143783E+02  0.47000000000E+01 0. -1.
        -13    1    6    6    0    0  0.22555659703E+02  0.10336788029E+02 -0.10848367317E+02  0.27079402594E+02  0.00000000000E+00 0.  1.
         14    1    6    6    0    0 -0.22662648102E+02 -0.49475480772E+02  0.31918879312E+02  0.63089093140E+02  0.00000000000E+00 0. -1.
         -5    1    3    3    0  503  0.63737554339E+02 -0.27188222856E+02 -0.18477887566E+03  0.19740060330E+03  0.47000000000E+01 0.  1.
         11    1    4    4    0    0 -0.98682153778E+01  0.24353036277E+02 -0.34683146812E+03  0.34782541501E+03  0.00000000000E+00 0. -1.
        -12    1    4    4    0    0 -0.35873512518E+02 -0.45565123117E+02 -0.28948156933E+03  0.29523324393E+03  0.00000000000E+00 0.  1.
</event>
<event>
12    1  0.1598254E-001  0.1807443E+03  0.7818608E-02  0.1167274E+00
         21   -1    0    0  501  502  0.00000000000E+00  0.00000000000E+00  0.49808858207E+03  0.49808858207E+03  0.00000000000E+00 0.  1.
         21   -1    0    0  502  503 -0.00000000000E+00 -0.00000000000E+00 -0.31706259369E+03  0.31706259369E+03  0.00000000000E+00 0.  1.
         -6    2    1    2    0  503  0.27064041469E+02 -0.47728119116E+02 -0.27271335894E+03  0.32673751853E+03  0.17138959763E+03 0.  0.
        -24    2    3    3    0    0  0.75047023995E+02 -0.40206512815E+02 -0.12363425992E+03  0.16987576750E+03  0.79521862864E+02 0.  0.
          6    2    1    2  501    0 -0.27064041469E+02  0.47728119116E+02  0.45373934731E+03  0.48841365723E+03  0.17221518392E+03 0.  0.
         24    2    5    5    0    0  0.43748211545E+02  0.19186681451E+02  0.16086327962E+03  0.18571336013E+03  0.79563953142E+02 0.  0.
          5    1    5    5  501    0 -0.70812253014E+02  0.28541437665E+02  0.29287606769E+03  0.30270029710E+03  0.47000000000E+01 0. -1.
        -11    1    6    6    0    0  0.72767951003E+01  0.39068521687E+02  0.12387453265E+03  0.13009304737E+03  0.00000000000E+00 0.  1.
         12    1    6    6    0    0  0.36471416445E+02 -0.19881840237E+02  0.36988746969E+02  0.55620312756E+02  0.00000000000E+00 0. -1.
         -5    1    3    3    0  503 -0.47982982526E+02 -0.75216063007E+01 -0.14907909902E+03  0.15686175103E+03  0.47000000000E+01 0.  1.
         11    1    4    4    0    0  0.22868726872E+01 -0.43555569515E+02 -0.43966270745E+02  0.61930205762E+02  0.00000000000E+00 0. -1.
        -12    1    4    4    0    0  0.72760151308E+02  0.33490566998E+01 -0.79667989179E+02  0.10794556174E+03  0.00000000000E+00 0.  1.
</event>
<event>
12    1  0.1598254E-001  0.1836509E+03  0.7818608E-02  0.1164747E+00
         21   -1    0    0  501  502  0.00000000000E+00  0.00000000000E+00  0.14679509698E+03  0.14679509698E+03  0.00000000000E+00 0.  1.
         21   -1    0    0  502  503 -0.00000000000E+00 -0.00000000000E+00 -0.25495687939E+03  0.25495687939E+03  0.00000000000E+00 0. -1.
         -6    2    1    2    0  503  0.52096454922E+02 -0.30978207441E+02  0.11613528374E+02  0.18401778124E+03  0.17336083704E+03 0.  0.
        -24    2    3    3    0    0  0.68717431014E+02  0.37959799132E+02  0.44557847901E+01  0.11258929330E+03  0.80582028219E+02 0.  0.
          6    2    1    2  501    0 -0.52096454922E+02  0.30978207441E+02 -0.11977531079E+03  0.21773419513E+03  0.17143034942E+03 0.  0.
         24    2    5    5    0    0  0.36278426248E+02 -0.49670796214E+01 -0.41530855668E+02  0.94257606091E+02  0.76281637650E+02 0.  0.
          5    1    5    5  501    0 -0.88374881170E+02  0.35945287062E+02 -0.78244455119E+02  0.12347658904E+03  0.47000000000E+01 0. -1.
        -13    1    6    6    0    0 -0.33615285466E+01 -0.16838753857E+02 -0.49256004579E+02  0.52163181389E+02  0.00000000000E+00 0.  1.
         14    1    6    6    0    0  0.39639954794E+02  0.11871674236E+02  0.77251489110E+01  0.42094424702E+02  0.00000000000E+00 0. -1.
         -5    1    3    3    0  503 -0.16620976092E+02 -0.68938006573E+02  0.71577435842E+01  0.71428487942E+02  0.47000000000E+01 0.  1.
         11    1    4    4    0    0 -0.70524142508E+01 -0.74551147952E+01 -0.18643411542E+02  0.21281261178E+02  0.00000000000E+00 0. -1.
        -12    1    4    4    0    0  0.75769845265E+02  0.45414913928E+02  0.23099196333E+02  0.91308032121E+02  0.00000000000E+00 0.  1.
</event>
<event>
12    1  0.1598254E-001  0.2176428E+03  0.7818608E-02  0.1135666E+00
         21   -1    0    0  501  502  0.00000000000E+00  0.00000000000E+00  0.47064567019E+02  0.47064567019E+02  0.00000000000E+00 0. -1.
         21   -1    0    0  502  503 -0.00000000000E+00 -0.00000000000E+00 -0.10685517585E+04  0.10685517585E+04  0.00000000000E+00 0.  1.
         -6    2    1    2    0  503 -0.76376596260E+02  0.10830042488E+03 -0.64564920997E+03  0.68134519954E+03  0.17264417776E+03 0.  0.
        -24    2    3    3    0    0 -0.22843457391E+02  0.42746360072E+02 -0.14457901359E+03  0.17315570332E+03  0.82041035927E+02 0.  0.
          6    2    1    2  501    0  0.76376596260E+02 -0.10830042488E+03 -0.37583798147E+03  0.43427112593E+03  0.17255392207E+03 0.  0.
         24    2    5    5    0    0  0.12369195028E+02 -0.92452650451E+02 -0.33465852368E+03  0.35638699975E+03  0.79466197618E+02 0.  0.
          5    1    5    5  501    0  0.64007401232E+02 -0.15847774433E+02 -0.41179457791E+02  0.77884126180E+02  0.47000000000E+01 0. -1.
        -13    1    6    6    0    0 -0.86344749513E+01 -0.92871413796E+02 -0.20742533224E+03  0.22743113708E+03  0.00000000000E+00 0.  1.
         14    1    6    6    0    0  0.21003669980E+02  0.41876334553E+00 -0.12723319144E+03  0.12895586267E+03  0.00000000000E+00 0. -1.
         -5    1    3    3    0  503 -0.53533138869E+02  0.65554064811E+02 -0.50107019638E+03  0.50818949623E+03  0.47000000000E+01 0.  1.
         11    1    4    4    0    0 -0.39487908997E+01  0.65503651853E+02 -0.96190980554E+02  0.11644323121E+03  0.00000000000E+00 0. -1.
        -12    1    4    4    0    0 -0.18894666492E+02 -0.22757291781E+02 -0.48388033036E+02  0.56712472104E+02  0.00000000000E+00 0.  1.
</event>
<event>
12    1  0.1598254E-001  0.3426606E+03  0.7818608E-02  0.1065786E+00
         21   -1    0    0  501  502  0.00000000000E+00  0.00000000000E+00  0.19735571731E+03  0.19735571731E+03  0.00000000000E+00 0. -1.
         21   -1    0    0  502  503 -0.00000000000E+00 -0.00000000000E+00 -0.65951222513E+03  0.65951222513E+03  0.00000000000E+00 0.  1.
         -6    2    1    2    0  503  0.24534266637E+03  0.16373347504E+03 -0.36745626491E+03  0.50243448000E+03  0.17439789356E+03 0.  0.
        -24    2    3    3    0    0  0.79312953927E+02  0.14012466684E+02 -0.17129296446E+03  0.20497124495E+03  0.78645010668E+02 0.  0.
          6    2    1    2  501    0 -0.24534266637E+03 -0.16373347504E+03 -0.94700242917E+02  0.35443346244E+03  0.17220124418E+03 0.  0.
         24    2    5    5    0    0 -0.13762013005E+03 -0.73529277572E+02 -0.11782979040E+03  0.21196238453E+03  0.81843375395E+02 0.  0.
          5    1    5    5  501    0 -0.10772253633E+03 -0.90204197468E+02  0.23129547487E+02  0.14247107791E+03  0.47000000000E+01 0. -1.
        -13    1    6    6    0    0 -0.26214571589E+02  0.18107863636E+02 -0.23830147726E+02  0.39786611186E+02  0.00000000000E+00 0.  1.
         14    1    6    6    0    0 -0.11140555846E+03 -0.91637141207E+02 -0.93999642678E+02  0.17217577335E+03  0.00000000000E+00 0. -1.
         -5    1    3    3    0  503  0.16602971245E+03  0.14972100836E+03 -0.19616330045E+03  0.29746323504E+03  0.47000000000E+01 0.  1.
         13    1    4    4    0    0 -0.10141746140E+02 -0.81771848972E+01 -0.55330609385E+02  0.56843624995E+02  0.00000000000E+00 0. -1.
        -14    1    4    4    0    0  0.89454700067E+02  0.22189651581E+02 -0.11596235507E+03  0.14812761996E+03  0.00000000000E+00 0.  1.
</event>
<event>
12    1  0.1598254E-001  0.1809189E+03  0.7818608E-02  0.1167281E+00
         21   -1    0    0  501  502  0.00000000000E+00  0.00000000000E+00  0.53512021414E+02  0.53512021414E+02  0.00000000000E+00 0.  1.
         21   -1    0    0  502  503 -0.00000000000E+00 -0.00000000000E+00 -0.60742404970E+03  0.60742404970E+03  0.00000000000E+00 0.  1.
         -6    2    1    2    0  503  0.83418880505E+01  0.54124294801E+02 -0.28816413887E+03  0.33944955235E+03  0.17084613333E+03 0.  0.
        -24    2    3    3    0    0 -0.48655490225E+02  0.17855388999E+02 -0.91227270705E+02  0.13119404894E+03  0.78760979623E+02 0.  0.
          6    2    1    2  501    0 -0.83418880505E+01 -0.54124294801E+02 -0.26574788942E+03  0.32148651877E+03  0.17243147809E+03 0.  0.
         24    2    5    5    0    0 -0.50949674312E+02 -0.88489994475E+02 -0.17500649817E+03  0.21540864713E+03  0.73124978116E+02 0.  0.
          5    1    5    5  501    0  0.42607786262E+02  0.34365699674E+02 -0.90741391254E+02  0.10607787164E+03  0.47000000000E+01 0. -1.
        -11    1    6    6    0    0 -0.58423420067E+01 -0.56831307758E+02 -0.40440074647E+02  0.69995215116E+02  0.00000000000E+00 0.  1.
         12    1    6    6    0    0 -0.45107332306E+02 -0.31658686718E+02 -0.13456642352E+03  0.14541343202E+03  0.00000000000E+00 0. -1.
         -5    1    3    3    0  503  0.56997378276E+02  0.36268905803E+02 -0.19693686816E+03  0.20825550341E+03  0.47000000000E+01 0.  1.
         11    1    4    4    0    0 -0.22209120225E+02 -0.26111983949E+02 -0.11071161088E+02  0.36022927904E+02  0.00000000000E+00 0. -1.
        -12    1    4    4    0    0 -0.26446370000E+02  0.43967372948E+02 -0.80156109617E+02  0.95171121034E+02  0.00000000000E+00 0.  1.
</event>
<event>
12    1  0.1598254E-001  0.2174976E+03  0.7818608E-02  0.1135930E+00
         21   -1    0    0  503  502  0.00000000000E+00  0.00000000000E+00  0.95869086218E+02  0.95869086218E+02  0.00000000000E+00 0.  1.
         21   -1    0    0  501  503 -0.00000000000E+00 -0.00000000000E+00 -0.79084430057E+03  0.79084430057E+03  0.00000000000E+00 0. -1.
          6    2    1    2  501    0 -0.93523091634E+02  0.92463242699E+02 -0.61984727393E+03  0.65660597614E+03  0.17211840397E+03 0.  0.
         24    2    3    3    0    0  0.85653530904E+01  0.39387416226E+01 -0.27586654547E+03  0.28700691041E+03  0.78624021482E+02 0.  0.
         -6    2    1    2    0  502  0.93523091634E+02 -0.92463242699E+02 -0.75127940425E+02  0.23010741065E+03  0.17323161687E+03 0.  0.
        -24    2    5    5    0    0  0.12471341344E+03 -0.10555131533E+03 -0.59024281839E+02  0.19235093254E+03  0.82586316909E+02 0.  0.
          5    1    3    3  501    0 -0.10208844472E+03  0.88524501077E+02 -0.34398072845E+03  0.36959906573E+03  0.47000000000E+01 0. -1.
        -13    1    4    4    0    0 -0.11890013790E+02  0.24960393445E+02 -0.23545519133E+03  0.23707285968E+03  0.00000000000E+00 0.  1.
         14    1    4    4    0    0  0.20455366881E+02 -0.21021651822E+02 -0.40411354138E+02  0.49934050735E+02  0.00000000000E+00 0. -1.
         -5    1    5    5    0  502 -0.31190321809E+02  0.13088072630E+02 -0.16103658585E+02  0.37756478114E+02  0.47000000000E+01 0.  1.
         11    1    6    6    0    0  0.16926350045E+02 -0.31728123755E+02 -0.49739127135E+02  0.61377161315E+02  0.00000000000E+00 0. -1.
        -12    1    6    6    0    0  0.10778706340E+03 -0.73823191574E+02 -0.92851547040E+01  0.13097377122E+03  0.00000000000E+00 0.  1.
</event>
<event>
12    1  0.1598254E-001  0.2355571E+03  0.7818608E-02  0.1123119E+00
         21   -1    0    0  501  502  0.00000000000E+00  0.00000000000E+00  0.15811431084E+04  0.15811431084E+04  0.00000000000E+00 0. -1.
         21   -1    0    0  502  503 -0.00000000000E+00 -0.00000000000E+00 -0.24616661070E+03  0.24616661070E+03  0.00000000000E+00 0. -1.
         -6    2    1    2    0  503 -0.15808666871E+03  0.29714380682E+02 -0.17872462106E+03  0.29568505498E+03  0.17208376543E+03 0.  0.
        -24    2    3    3    0    0 -0.15281468656E+03  0.15095969207E+02 -0.20257692870E+03  0.26683173057E+03  0.81126713743E+02 0.  0.
          6    2    1    2  501    0  0.15808666871E+03 -0.29714380682E+02  0.15137011188E+04  0.15316246641E+04  0.16943640559E+03 0.  0.
         24    2    5    5    0    0  0.26573046164E+02  0.25193521897E+02  0.71798480784E+03  0.72323289761E+03  0.78884723316E+02 0.  0.
          5    1    5    5  501    0  0.13151362255E+03 -0.54907902578E+02  0.79571631095E+03  0.80839176653E+03  0.47000000000E+01 0. -1.
        -13    1    6    6    0    0 -0.60495334764E+01 -0.21888929317E+02  0.97499708116E+02  0.10010951585E+03  0.00000000000E+00 0.  1.
         14    1    6    6    0    0  0.32622579641E+02  0.47082451213E+02  0.62048509973E+03  0.62312338176E+03  0.00000000000E+00 0. -1.
         -5    1    3    3    0  503 -0.52719821546E+01  0.14618411475E+02  0.23852307642E+02  0.28853324414E+02  0.47000000000E+01 0.  1.
         13    1    4    4    0    0 -0.98281074824E+02  0.44666065547E+02 -0.10114816041E+03  0.14793639658E+03  0.00000000000E+00 0. -1.
        -14    1    4    4    0    0 -0.54533611733E+02 -0.29570096340E+02 -0.10142876829E+03  0.11889533399E+03  0.00000000000E+00 0.  1.
</event>
<event>
12    1  0.1598254E-001  0.1837164E+03  0.7818608E-02  0.1164536E+00
         21   -1    0    0  501  502  0.00000000000E+00  0.00000000000E+00  0.63815060524E+03  0.63815060524E+03  0.00000000000E+00 0.  1.
         21   -1    0    0  502  503 -0.00000000000E+00 -0.00000000000E+00 -0.56617588224E+02  0.56617588224E+02  0.00000000000E+00 0.  1.
         -6    2    1    2    0  503  0.21903992458E+00 -0.60788879467E+02  0.19674945767E+03  0.26837622081E+03  0.17210494169E+03 0.  0.
        -24    2    3    3    0    0  0.58324948310E+02 -0.42228262886E+01  0.13520691472E+03  0.16646650805E+03  0.77527779901E+02 0.  0.
          6    2    1    2  501    0 -0.21903992458E+00  0.60788879467E+02  0.38478355934E+03  0.42639197265E+03  0.17336779101E+03 0.  0.
         24    2    5    5    0    0 -0.80799576440E+01  0.31840896018E+02  0.38667181370E+03  0.39597100492E+03  0.78732565423E+02 0.  0.
          5    1    5    5  501    0  0.78609177194E+01  0.28947983448E+02 -0.18882543581E+01  0.30420967730E+02  0.47000000000E+01 0. -1.
        -11    1    6    6    0    0 -0.25093717419E+02 -0.10872060554E+02  0.25580553560E+03  0.25726322784E+03  0.00000000000E+00 0.  1.
         12    1    6    6    0    0  0.17013759775E+02  0.42712956572E+02  0.13086627809E+03  0.13870777708E+03  0.00000000000E+00 0. -1.
         -5    1    3    3    0  503 -0.58105908385E+02 -0.56566053178E+02  0.61542542957E+02  0.10190971276E+03  0.47000000000E+01 0.  1.
         13    1    4    4    0    0 -0.81475630680E+01  0.58885159127E+01 -0.48086588613E+01  0.11143635118E+02  0.00000000000E+00 0. -1.
        -14    1    4    4    0    0  0.66472511378E+02 -0.10111342201E+02  0.14001557358E+03  0.15532287293E+03  0.00000000000E+00 0.  1.
</event>
<event>
12    1  0.1598254E-001  0.1824490E+03  0.7818608E-02  0.1165569E+00
         21   -1    0    0  501  502  0.00000000000E+00  0.00000000000E+00  0.20848560862E+03  0.20848560862E+03  0.00000000000E+00 0.  1.
         21   -1    0    0  502  503 -0.00000000000E+00 -0.00000000000E+00 -0.26628104062E+03  0.26628104062E+03  0.00000000000E+00 0.  1.
         -6    2    1    2    0  503 -0.66818960067E+01 -0.60222552299E+02 -0.17942560926E+03  0.25589293992E+03  0.17209370675E+03 0.  0.
        -24    2    3    3    0    0  0.32747230416E+02 -0.49922106451E+02 -0.18892880101E+03  0.21378408280E+03  0.80280411023E+02 0.  0.
          6    2    1    2  501    0  0.66818960067E+01  0.60222552299E+02  0.12163017727E+03  0.21887370932E+03  0.17158204180E+03 0.  0.
         24    2    5    5    0    0 -0.43342205448E+02  0.84141393279E+02  0.64186294567E+02  0.13889614159E+03  0.78828528481E+02 0.  0.
          5    1    5    5  501    0  0.50024101455E+02 -0.23918840979E+02  0.57443882701E+02  0.79977567729E+02  0.47000000000E+01 0. -1.
        -11    1    6    6    0    0  0.18436421254E+01  0.35617069231E+02  0.63217499588E+02  0.72583929978E+02  0.00000000000E+00 0.  1.
         12    1    6    6    0    0 -0.45185847573E+02  0.48524324048E+02  0.96879497880E+00  0.66312211612E+02  0.00000000000E+00 0. -1.
         -5    1    3    3    0  503 -0.39429126422E+02 -0.10300445848E+02  0.95031917467E+01  0.42108857126E+02  0.47000000000E+01 0.  1.
         13    1    4    4    0    0 -0.12034177693E+02 -0.43715130860E+02 -0.49121366737E+02  0.66848655701E+02  0.00000000000E+00 0. -1.
        -14    1    4    4    0    0  0.44781408108E+02 -0.62069755907E+01 -0.13980743427E+03  0.14693542710E+03  0.00000000000E+00 0.  1.
</event>
<event>
12    1  0.1598254E-001  0.1846034E+03  0.7818608E-02  0.1163585E+00
         21   -1    0    0  501  502  0.00000000000E+00  0.00000000000E+00  0.11306133084E+03  0.11306133084E+03  0.00000000000E+00 0.  1.
         21   -1    0    0  502  503 -0.00000000000E+00 -0.00000000000E+00 -0.30583995005E+03  0.30583995005E+03  0.00000000000E+00 0.  1.
         -6    2    1    2    0  503 -0.22278711182E+01  0.65748949790E+02 -0.68313598655E+02  0.19683794700E+03  0.17248345373E+03 0.  0.
        -24    2    3    3    0    0 -0.27930243313E+02 -0.11921996617E+02 -0.16280371340E+01  0.91185488596E+02  0.85964587655E+02 0.  0.
          6    2    1    2  501    0  0.22278711182E+01 -0.65748949790E+02 -0.12446502055E+03  0.22206333388E+03  0.17173437369E+03 0.  0.
         24    2    5    5    0    0 -0.16745924073E+02 -0.68653931580E+01 -0.13599231676E+03  0.15895828889E+03  0.80288652958E+02 0.  0.
          5    1    5    5  501    0  0.18973795191E+02 -0.58883556632E+02  0.11527296205E+02  0.63105044991E+02  0.47000000000E+01 0. -1.
        -11    1    6    6    0    0 -0.48136430277E+02 -0.10470219197E+02 -0.67854628180E+02  0.83851010580E+02  0.00000000000E+00 0.  1.
         12    1    6    6    0    0  0.31390506205E+02  0.36048260388E+01 -0.68137688578E+02  0.75107278311E+02  0.00000000000E+00 0. -1.
         -5    1    3    3    0  503  0.25702372195E+02  0.77670946407E+02 -0.66685561521E+02  0.10565245841E+03  0.47000000000E+01 0.  1.
         13    1    4    4    0    0  0.13746822274E+02 -0.72928186185E+01 -0.34536811516E+02  0.37880756008E+02  0.00000000000E+00 0. -1.
        -14    1    4    4    0    0 -0.41677065587E+02 -0.46291779986E+01  0.32908774382E+02  0.53304732588E+02  0.00000000000E+00 0.  1.
</event>
<event>
12    1  0.1598254E-001  0.3035142E+03  0.7818608E-02  0.1083615E+00
         21   -1    0    0  501  502  0.00000000000E+00  0.00000000000E+00  0.43551362434E+03  0.43551362434E+03  0.00000000000E+00 0. -1.
         21   -1    0    0  502  503 -0.00000000000E+00 -0.00000000000E+00 -0.23878866586E+03  0.23878866586E+03  0.00000000000E+00 0. -1.
         -6    2    1    2    0  503 -0.18001059790E+03  0.17201869664E+03 -0.17086358444E+02  0.30303941076E+03  0.17189151660E+03 0.  0.
        -24    2    3    3    0    0 -0.12602394485E+03  0.91674565881E+02  0.55053219007E+02  0.18222572490E+03  0.76740453404E+02 0.  0.
          6    2    1    2  501    0  0.18001059790E+03 -0.17201869664E+03  0.21381131692E+03  0.37126287944E+03  0.17357015601E+03 0.  0.
         24    2    5    5    0    0  0.49212815981E+02 -0.40945998522E+02  0.13881584647E+03  0.17142664015E+03  0.77580781567E+02 0.  0.
          5    1    5    5  501    0  0.13079778192E+03 -0.13107269812E+03  0.74995470449E+02  0.19983623929E+03  0.47000000000E+01 0. -1.
        -11    1    6    6    0    0 -0.68357604528E+01 -0.18309572498E+02 -0.51269448900E+00  0.19550726883E+02  0.00000000000E+00 0.  1.
         12    1    6    6    0    0  0.56048576434E+02 -0.22636426024E+02  0.13932854096E+03  0.15187591326E+03  0.00000000000E+00 0. -1.
         -5    1    3    3    0  503 -0.53986653050E+02  0.80344130759E+02 -0.72139577451E+02  0.12081368585E+03  0.47000000000E+01 0.  1.
         11    1    4    4    0    0 -0.44736060241E+02  0.60999005794E+02  0.57954708509E+02  0.95293976893E+02  0.00000000000E+00 0. -1.
        -12    1    4    4    0    0 -0.81287884608E+02  0.30675560088E+02 -0.29014895026E+01  0.86931748010E+02  0.00000000000E+00 0.  1.
</event>
<event>
12    1  0.1598254E-001  0.1809264E+03  0.7818608E-02  0.1168841E+00
         21   -1    0    0  501  502  0.00000000000E+00  0.00000000000E+00  0.99796054728E+03  0.99796054728E+03  0.00000000000E+00 0.  1.
         21   -1    0    0  502  503 -0.00000000000E+00 -0.00000000000E+00 -0.51159578174E+02  0.51159578174E+02  0.00000000000E+00 0.  1.
         -6    2    1    2    0  503  0.44207749670E+00  0.54766761815E+02  0.15383792394E+03  0.23748784286E+03  0.17243774248E+03 0.  0.
        -24    2    3    3    0    0 -0.42560731796E+02  0.20259196643E+02  0.15651152139E+03  0.18208701448E+03  0.80236983845E+02 0.  0.
          6    2    1    2  501    0 -0.44207749670E+00 -0.54766761815E+02  0.79296304517E+03  0.81163228260E+03  0.16418580181E+03 0.  0.
         24    2    5    5    0    0  0.56424586951E+02 -0.41182040380E+02  0.37860238433E+03  0.39314069435E+03  0.79625031689E+02 0.  0.
          5    1    5    5  501    0 -0.56866664447E+02 -0.13584721436E+02  0.41436066084E+03  0.41849158825E+03  0.47000000000E+01 0. -1.
        -13    1    6    6    0    0 -0.11870773693E+01 -0.46254697332E+02  0.13292999986E+03  0.14075258804E+03  0.00000000000E+00 0.  1.
         14    1    6    6    0    0  0.57611664320E+02  0.50726569528E+01  0.24567238447E+03  0.25238810631E+03  0.00000000000E+00 0. -1.
         -5    1    3    3    0  503  0.43002809293E+02  0.34507565172E+02 -0.26735974510E+01  0.55400828374E+02  0.47000000000E+01 0.  1.
         11    1    4    4    0    0 -0.47450372218E+01  0.23329068820E+02  0.13769363012E+03  0.13973652566E+03  0.00000000000E+00 0. -1.
        -12    1    4    4    0    0 -0.37815694574E+02 -0.30698721765E+01  0.18817891273E+02  0.42350488820E+02  0.00000000000E+00 0.  1.
</event>
<event>
12    1  0.1598254E-001  0.2407535E+03  0.7818608E-02  0.1119708E+00
         21   -1    0    0  503  502  0.00000000000E+00  0.00000000000E+00  0.21394401265E+03  0.21394401265E+03  0.00000000000E+00 0.  1.
         21   -1    0    0  501  503 -0.00000000000E+00 -0.00000000000E+00 -0.29875917434E+03  0.29875917434E+03  0.00000000000E+00 0. -1.
          6    2    1    2  501    0  0.14896433268E+03  0.77778483015E+02 -0.12470059746E+03  0.27113188979E+03  0.17240184984E+03 0.  0.
         24    2    3    3    0    0  0.97229441708E+02  0.21498791973E+02 -0.56657109661E+01  0.12958579564E+03  0.82732193011E+02 0.  0.
         -6    2    1    2    0  502 -0.14896433268E+03 -0.77778483015E+02  0.39885435770E+02  0.24157129720E+03  0.16889635525E+03 0.  0.
        -24    2    5    5    0    0 -0.10382063865E+03 -0.11830619387E+03  0.22846633873E+02  0.17838222198E+03  0.80766131022E+02 0.  0.
          5    1    3    3  501    0  0.51734890970E+02  0.56279691042E+02 -0.11903488649E+03  0.14154609415E+03  0.47000000000E+01 0. -1.
        -11    1    4    4    0    0  0.93156661595E+02  0.25094322578E+02 -0.32809514708E+02  0.10190364508E+03  0.00000000000E+00 0.  1.
         12    1    4    4    0    0  0.40727801124E+01 -0.35955306048E+01  0.27143803742E+02  0.27682150562E+02  0.00000000000E+00 0. -1.
         -5    1    5    5    0  502 -0.45143694024E+02  0.40527710857E+02  0.17038801897E+02  0.63189075223E+02  0.47000000000E+01 0.  1.
         13    1    6    6    0    0 -0.26412814262E+02 -0.43710966889E+00 -0.17526727097E+02  0.31701955536E+02  0.00000000000E+00 0. -1.
        -14    1    6    6    0    0 -0.77407824392E+02 -0.11786908420E+03  0.40373360970E+02  0.14668026644E+03  0.00000000000E+00 0.  1.
</event>
<event>
12    1  0.1598254E-001  0.2106283E+03  0.7818608E-02  0.1141248E+00
         21   -1    0    0  503  502  0.00000000000E+00  0.00000000000E+00  0.34833499548E+03  0.34833499548E+03  0.00000000000E+00 0. -1.
         21   -1    0    0  501  503 -0.00000000000E+00 -0.00000000000E+00 -0.16108674342E+03  0.16108674342E+03  0.00000000000E+00 0. -1.
          6    2    1    2  501    0  0.12073769093E+03 -0.21602145427E+02  0.21126982461E+03  0.29832734613E+03  0.17123090831E+03 0.  0.
         24    2    3    3    0    0  0.81788508667E+01  0.30159308274E+02  0.86342844277E+02  0.12232285477E+03  0.80816561193E+02 0.  0.
         -6    2    1    2    0  502 -0.12073769093E+03  0.21602145427E+02 -0.24021572554E+02  0.21109439277E+03  0.17011632495E+03 0.  0.
        -24    2    5    5    0    0 -0.56760706692E+02 -0.25070854611E+02 -0.72704071434E+02  0.11801647304E+03  0.69221964215E+02 0.  0.
          5    1    3    3  501    0  0.11255884006E+03 -0.51761453702E+02  0.12492698033E+03  0.17600449136E+03  0.47000000000E+01 0. -1.
        -11    1    4    4    0    0 -0.32552766154E+02  0.89993832627E+01  0.61419001418E+02  0.70092547525E+02  0.00000000000E+00 0.  1.
         12    1    4    4    0    0  0.40731617020E+02  0.21159925012E+02  0.24923842860E+02  0.52230307241E+02  0.00000000000E+00 0. -1.
         -5    1    5    5    0  502 -0.63976984239E+02  0.46673000039E+02  0.48682498880E+02  0.93077919734E+02  0.47000000000E+01 0.  1.
         11    1    6    6    0    0 -0.70961932682E+02 -0.26635194155E+02 -0.70585949582E+02  0.10357319024E+03  0.00000000000E+00 0. -1.
        -12    1    6    6    0    0  0.14201225990E+02  0.15643395442E+01 -0.21181218520E+01  0.14443282799E+02  0.00000000000E+00 0.  1.
</event>
<event>
12    1  0.1598254E-001  0.2107122E+03  0.7818608E-02  0.1141011E+00
         21   -1    0    0  503  502  0.00000000000E+00  0.00000000000E+00  0.68482643086E+03  0.68482643086E+03  0.00000000000E+00 0. -1.
         21   -1    0    0  501  503 -0.00000000000E+00 -0.00000000000E+00 -0.74685061772E+02  0.74685061772E+02  0.00000000000E+00 0. -1.
          6    2    1    2  501    0 -0.64447963893E+02 -0.10292857724E+03  0.16703117277E+03  0.26885248189E+03  0.17214648494E+03 0.  0.
         24    2    3    3    0    0 -0.10297244327E+03 -0.84196645804E+02  0.16338216313E+03  0.22560405952E+03  0.80691147004E+02 0.  0.
         -6    2    1    2    0  502  0.64447963893E+02  0.10292857724E+03  0.44311019632E+03  0.49065901074E+03  0.17219694156E+03 0.  0.
        -24    2    5    5    0    0  0.16487759557E+02  0.10309430051E+03  0.17582629143E+03  0.21906559316E+03  0.78578421565E+02 0.  0.
          5    1    3    3  501    0  0.38524479374E+02 -0.18731931436E+02  0.36490096428E+01  0.43248422373E+02  0.47000000000E+01 0. -1.
        -13    1    4    4    0    0  0.38673001605E+01  0.11338325762E+02  0.16412223372E+02  0.20319318827E+02  0.00000000000E+00 0.  1.
         14    1    4    4    0    0 -0.10683974343E+03 -0.95534971566E+02  0.14696993976E+03  0.20528474069E+03  0.00000000000E+00 0. -1.
         -5    1    5    5    0  502  0.47960204336E+02 -0.16572326629E+00  0.26728390489E+03  0.27159341759E+03  0.47000000000E+01 0.  1.
         11    1    6    6    0    0 -0.28092151380E+02  0.40540409509E+02  0.98023869669E+02  0.10973318913E+03  0.00000000000E+00 0. -1.
        -12    1    6    6    0    0  0.44579910937E+02  0.62553890998E+02  0.77802421758E+02  0.10933240402E+03  0.00000000000E+00 0.  1.
</event>
<event>
12    1  0.1598254E-001  0.2422227E+03  0.7818608E-02  0.1118550E+00
         21   -1    0    0  501  502  0.00000000000E+00  0.00000000000E+00  0.11545930052E+03  0.11545930052E+03  0.00000000000E+00 0. -1.
         21   -1    0    0  502  503 -0.00000000000E+00 -0.00000000000E+00 -0.54209317009E+03  0.54209317009E+03  0.00000000000E+00 0. -1.
         -6    2    1    2    0  503  0.98685542394E+02  0.13738602903E+03 -0.12817647246E+03  0.27404571639E+03  0.17337268910E+03 0.  0.
        -24    2    3    3    0    0  0.13259784317E+03  0.12190278017E+03 -0.79961665002E+02  0.21291853096E+03  0.80609907165E+02 0.  0.
          6    2    1    2  501    0 -0.98685542394E+02 -0.13738602903E+03 -0.29845739710E+03  0.38350675422E+03  0.17142594727E+03 0.  0.
         24    2    5    5    0    0 -0.88189270046E+02 -0.14980243703E+03 -0.30900501248E+03  0.36356481070E+03  0.80480782470E+02 0.  0.
          5    1    5    5  501    0 -0.10496272347E+02  0.12416408007E+02  0.10547615382E+02  0.19941943517E+02  0.47000000000E+01 0. -1.
        -11    1    6    6    0    0 -0.57857176826E+02 -0.39523265963E+02 -0.16785518907E+03  0.18189256708E+03  0.00000000000E+00 0.  1.
         12    1    6    6    0    0 -0.30332093220E+02 -0.11027917107E+03 -0.14114982342E+03  0.18167224362E+03  0.00000000000E+00 0. -1.
         -5    1    3    3    0  503 -0.33912300774E+02  0.15483248860E+02 -0.48214807462E+02  0.61127185422E+02  0.47000000000E+01 0.  1.
         11    1    4    4    0    0  0.82425039327E+01  0.55216132678E+02 -0.28829881273E+02  0.62832493450E+02  0.00000000000E+00 0. -1.
        -12    1    4    4    0    0  0.12435533923E+03  0.66686647490E+02 -0.51131783729E+02  0.15008603751E+03  0.00000000000E+00 0.  1.
</event>
<event>
12    1  0.1598254E-001  0.2085802E+03  0.7818608E-02  0.1143128E+00
         21   -1    0    0  503  502  0.00000000000E+00  0.00000000000E+00  0.33433351535E+03  0.33433351535E+03  0.00000000000E+00 0. -1.
         21   -1    0    0  501  503 -0.00000000000E+00 -0.00000000000E+00 -0.13328726396E+03  0.13328726396E+03  0.00000000000E+00 0. -1.
          6    2    1    2  501    0 -0.77257919925E+02  0.87845412588E+02  0.58056025192E+02  0.21650913688E+03  0.17268497789E+03 0.  0.
         24    2    3    3    0    0 -0.58717422299E+01  0.10605057384E+03  0.29186125164E+02  0.13724391506E+03  0.81871000670E+02 0.  0.
         -6    2    1    2    0  502  0.77257919925E+02 -0.87845412588E+02  0.14299022620E+03  0.25111164243E+03  0.17007424695E+03 0.  0.
        -24    2    5    5    0    0  0.82448563449E+02 -0.43939592913E+01  0.52172199796E+02  0.12757585103E+03  0.82076713156E+02 0.  0.
          5    1    3    3  501    0 -0.71386177695E+02 -0.18205161255E+02  0.28869900027E+02  0.79265221818E+02  0.47000000000E+01 0. -1.
        -13    1    4    4    0    0  0.24075684729E+02  0.70478160817E+02  0.46299033154E+02  0.87694983998E+02  0.00000000000E+00 0.  1.
         14    1    4    4    0    0 -0.29947426959E+02  0.35572413025E+02 -0.17112907989E+02  0.49548931066E+02  0.00000000000E+00 0. -1.
         -5    1    5    5    0  502 -0.51906435235E+01 -0.83451453296E+02  0.90818026401E+02  0.12353579140E+03  0.47000000000E+01 0.  1.
         11    1    6    6    0    0  0.28930656241E+02  0.32788642233E+02 -0.58394868531E+00  0.43731212264E+02  0.00000000000E+00 0. -1.
        -12    1    6    6    0    0  0.53517907208E+02 -0.37182601524E+02  0.52756148481E+02  0.83844638771E+02  0.00000000000E+00 0.  1.
</event>
<event>
12    1  0.1598254E-001  0.1789806E+03  0.7818608E-02  0.1168806E+00
         21   -1    0    0  501  502  0.00000000000E+00  0.00000000000E+00  0.23359947464E+02  0.23359947464E+02  0.00000000000E+00 0. -1.
         21   -1    0    0  502  503 -0.00000000000E+00 -0.00000000000E+00 -0.15743491579E+04  0.15743491579E+04  0.00000000000E+00 0. -1.
         -6    2    1    2    0  503  0.46856135683E+02 -0.13325560076E+02 -0.10625525812E+04  0.10775126137E+04  0.17216961657E+03 0.  0.
        -24    2    3    3    0    0 -0.57750829342E+01  0.42686550113E+02 -0.74557305554E+03  0.75131403714E+03  0.82085980032E+02 0.  0.
          6    2    1    2  501    0 -0.46856135683E+02  0.13325560076E+02 -0.48843662922E+03  0.52019649165E+03  0.17222363704E+03 0.  0.
         24    2    5    5    0    0 -0.81857130591E+02 -0.27707790165E+02 -0.39547477362E+03  0.41261953281E+03  0.79914146558E+02 0.  0.
          5    1    5    5  501    0  0.35000994908E+02  0.41033350241E+02 -0.92961855598E+02  0.10757695884E+03  0.47000000000E+01 0. -1.
        -11    1    6    6    0    0  0.71642290508E+01  0.15926162996E+02 -0.82093550281E+02  0.83930446463E+02  0.00000000000E+00 0.  1.
         12    1    6    6    0    0 -0.89021359642E+02 -0.43633953160E+02 -0.31338122334E+03  0.32868908635E+03  0.00000000000E+00 0. -1.
         -5    1    3    3    0  503  0.52631218617E+02 -0.56012110189E+02 -0.31697952567E+03  0.32619857656E+03  0.47000000000E+01 0.  1.
         11    1    4    4    0    0  0.33458540060E+02  0.36916285522E+02 -0.31464110942E+03  0.31856131870E+03  0.00000000000E+00 0. -1.
        -12    1    4    4    0    0 -0.39233622994E+02  0.57702645909E+01 -0.43093194612E+03  0.43275271844E+03  0.00000000000E+00 0.  1.
</event>
<event>
12    1  0.1598254E-001  0.2636366E+03  0.7818608E-02  0.1105077E+00
         21   -1    0    0  503  502  0.00000000000E+00  0.00000000000E+00  0.22114395130E+03  0.22114395130E+03  0.00000000000E+00 0.  1.
         21   -1    0    0  501  503 -0.00000000000E+00 -0.00000000000E+00 -0.10509540542E+04  0.10509540542E+04  0.00000000000E+00 0.  1.
          6    2    1    2  501    0  0.80619312990E+02  0.18257818410E+03 -0.94786784547E+03  0.98384840602E+03  0.17224972170E+03 0.  0.
         24    2    3    3    0    0  0.72501964073E+02  0.18757356758E+03 -0.94878814966E+03  0.97318153350E+03  0.80268089364E+02 0.  0.
         -6    2    1    2    0  502 -0.80619312990E+02 -0.18257818410E+03  0.11805774255E+03  0.28824959950E+03  0.17121896535E+03 0.  0.
        -24    2    5    5    0    0 -0.85081193934E+02 -0.45418385323E+02  0.49160248425E+02  0.13462123792E+03  0.80028172462E+02 0.  0.
          5    1    3    3  501    0  0.81173489171E+01 -0.49953834767E+01  0.92030419271E+00  0.10666872519E+02  0.47000000000E+01 0. -1.
        -11    1    4    4    0    0  0.49396512821E+01  0.19622474189E+02 -0.26709846999E+03  0.26786383540E+03  0.00000000000E+00 0.  1.
         12    1    4    4    0    0  0.67562312791E+02  0.16795109339E+03 -0.68168967967E+03  0.70531769810E+03  0.00000000000E+00 0. -1.
         -5    1    5    5    0  502  0.44618809433E+01 -0.13715979878E+03  0.68897494125E+02  0.15362836157E+03  0.47000000000E+01 0.  1.
         13    1    6    6    0    0 -0.90878575927E+02 -0.42892780956E+02  0.17092043151E+02  0.10193549019E+03  0.00000000000E+00 0. -1.
        -14    1    6    6    0    0  0.57973819933E+01 -0.25256043671E+01  0.32068205274E+02  0.32685747734E+02  0.00000000000E+00 0.  1.
</event>
<event>
12    1  0.1598254E-001  0.2143970E+03  0.7818608E-02  0.1138966E+00
         21   -1    0    0  503  502  0.00000000000E+00  0.00000000000E+00  0.34518504569E+02  0.34518504569E+02  0.00000000000E+00 0. -1.
         21   -1    0    0  501  503 -0.00000000000E+00 -0.00000000000E+00 -0.13205416415E+04  0.13205416415E+04  0.00000000000E+00 0. -1.
          6    2    1    2  501    0  0.13188263049E+01 -0.12069884993E+03 -0.57626702997E+03  0.61485752668E+03  0.17718954994E+03 0.  0.
         24    2    3    3    0    0  0.62063285902E+01 -0.73161759780E+02 -0.13919684545E+03  0.17515751666E+03  0.76897543844E+02 0.  0.
         -6    2    1    2    0  502 -0.13188263049E+01  0.12069884993E+03 -0.70975610698E+03  0.74020261941E+03  0.17197742500E+03 0.  0.
        -24    2    5    5    0    0 -0.64971815508E+02  0.10150598486E+03 -0.51146489406E+03  0.53100997082E+03  0.76488230978E+02 0.  0.
          5    1    3    3  501    0 -0.48875022853E+01 -0.47537090148E+02 -0.43707018452E+03  0.43970001003E+03  0.47000000000E+01 0. -1.
        -11    1    4    4    0    0  0.15588276313E+02  0.71879105875E+01 -0.58214370903E+02  0.60692449256E+02  0.00000000000E+00 0.  1.
         12    1    4    4    0    0 -0.93819477231E+01 -0.80349670367E+02 -0.80982474547E+02  0.11446506740E+03  0.00000000000E+00 0. -1.
         -5    1    5    5    0  502  0.63652989203E+02  0.19192865072E+02 -0.19829121292E+03  0.20919264859E+03  0.47000000000E+01 0.  1.
         11    1    6    6    0    0 -0.24098559415E+02  0.35962423892E+02 -0.66221487502E+02  0.79115876441E+02  0.00000000000E+00 0. -1.
        -12    1    6    6    0    0 -0.40873256093E+02  0.65543560964E+02 -0.44524340656E+03  0.45189409438E+03  0.00000000000E+00 0.  1.
</event>
<event>
12    1  0.1598254E-001  0.1797760E+03  0.7818608E-02  0.1168079E+00
         21   -1    0    0  503  502  0.00000000000E+00  0.00000000000E+00  0.14865959388E+03  0.14865959388E+03  0.00000000000E+00 0.  1.
         21   -1    0    0  501  503 -0.00000000000E+00 -0.00000000000E+00 -0.22823514277E+03  0.22823514277E+03  0.00000000000E+00 0.  1.
          6    2    1    2  501    0  0.24676217836E+02  0.46427367550E+02 -0.81367694884E+02  0.19710978494E+03  0.17165998184E+03 0.  0.
         24    2    3    3    0    0  0.38440558460E+02 -0.15651636295E+02  0.46239916036E+01  0.90058769365E+02  0.79790666044E+02 0.  0.
         -6    2    1    2    0  502 -0.24676217836E+02 -0.46427367550E+02  0.17921459965E+01  0.17978495171E+03  0.17191567959E+03 0.  0.
        -24    2    5    5    0    0  0.51276563144E+02 -0.10457254040E+02 -0.20742506501E+01  0.95525156863E+02  0.79888127953E+02 0.  0.
          5    1    3    3  501    0 -0.13764340624E+02  0.62079003845E+02 -0.85991686487E+02  0.10705101558E+03  0.47000000000E+01 0. -1.
        -11    1    4    4    0    0  0.47523769416E+02 -0.30146589074E+02 -0.20301031640E+02  0.59828566571E+02  0.00000000000E+00 0.  1.
         12    1    4    4    0    0 -0.90832109555E+01  0.14494952778E+02  0.24925023243E+02  0.30230202794E+02  0.00000000000E+00 0. -1.
         -5    1    5    5    0  502 -0.75952780980E+02 -0.35970113510E+02  0.38663966466E+01  0.84259794846E+02  0.47000000000E+01 0.  1.
         13    1    6    6    0    0 -0.12295491099E+02 -0.64614056362E+01  0.23164517080E+02  0.27009696697E+02  0.00000000000E+00 0. -1.
        -14    1    6    6    0    0  0.63572054243E+02 -0.39958484038E+01 -0.25238767730E+02  0.68515460165E+02  0.00000000000E+00 0.  1.
</event>
<event>
12    1  0.1598254E-001  0.2856403E+03  0.7818608E-02  0.1093088E+00
         21   -1    0    0  501  502  0.00000000000E+00  0.00000000000E+00  0.85445177365E+03  0.85445177365E+03  0.00000000000E+00 0. -1.
         21   -1    0    0  502  503 -0.00000000000E+00 -0.00000000000E+00 -0.10131039416E+03  0.10131039416E+03  0.00000000000E+00 0.  1.
         -6    2    1    2    0  503  0.21157812857E+03 -0.74621652401E+02  0.49940849946E+03  0.57370097459E+03  0.17143588719E+03 0.  0.
        -24    2    3    3    0    0  0.10850716026E+03  0.19823342902E+02  0.21045898053E+03  0.25267543645E+03  0.85936749703E+02 0.  0.
          6    2    1    2  501    0 -0.21157812857E+03  0.74621652401E+02  0.25373288003E+03  0.38206119322E+03  0.17679560361E+03 0.  0.
         24    2    5    5    0    0 -0.63175840587E+02  0.88811150299E+02  0.10178979067E+03  0.16914484031E+03  0.79813584486E+02 0.  0.
          5    1    5    5  501    0 -0.14840228798E+03 -0.14189497898E+02  0.15194308937E+03  0.21291635291E+03  0.47000000000E+01 0. -1.
        -13    1    6    6    0    0 -0.40344448330E+02  0.63073453184E+02  0.11066468758E+03  0.13361365231E+03  0.00000000000E+00 0.  1.
         14    1    6    6    0    0 -0.22831392257E+02  0.25737697115E+02 -0.88748969139E+01  0.35531187996E+02  0.00000000000E+00 0. -1.
         -5    1    3    3    0  503  0.10307096831E+03 -0.94444995303E+02  0.28894951893E+03  0.32102553814E+03  0.47000000000E+01 0.  1.
         13    1    4    4    0    0  0.39823907811E+02  0.16539955852E+02  0.16428236351E+03  0.16984760443E+03  0.00000000000E+00 0. -1.
        -14    1    4    4    0    0  0.68683252445E+02  0.32833870499E+01  0.46176617025E+02  0.82827832018E+02  0.00000000000E+00 0.  1.
</event>
<event>
12    1  0.1598254E-001  0.2650839E+03  0.7818608E-02  0.1104334E+00
         21   -1    0    0  501  502  0.00000000000E+00  0.00000000000E+00  0.23358139213E+03  0.23358139213E+03  0.00000000000E+00 0. -1.
         21   -1    0    0  502  503 -0.00000000000E+00 -0.00000000000E+00 -0.32657580037E+03  0.32657580037E+03  0.00000000000E+00 0.  1.
         -6    2    1    2    0  503  0.13568152225E+02  0.19949261697E+03 -0.12765460454E+03  0.29421956732E+03  0.17403464240E+03 0.  0.
        -24    2    3    3    0    0  0.17497910359E+02  0.10063411966E+03 -0.14476368753E+03  0.19370461216E+03  0.78304205753E+02 0.  0.
          6    2    1    2  501    0 -0.13568152225E+02 -0.19949261697E+03  0.34660196296E+02  0.26593762518E+03  0.17187231394E+03 0.  0.
         24    2    5    5    0    0  0.59485165315E+02 -0.56777746930E+02 -0.16817965525E+02  0.97484627349E+02  0.49580350603E+02 0.  0.
          5    1    5    5  501    0 -0.73053317540E+02 -0.14271487004E+03  0.51478161821E+02  0.16845299783E+03  0.47000000000E+01 0. -1.
        -13    1    6    6    0    0  0.53432800815E+02 -0.39711117121E+02  0.76861213285E+01  0.67015770435E+02  0.00000000000E+00 0.  1.
         14    1    6    6    0    0  0.60523644999E+01 -0.17066629809E+02 -0.24504086854E+02  0.30468856913E+02  0.00000000000E+00 0. -1.
         -5    1    3    3    0  503 -0.39297581340E+01  0.98858497305E+02  0.17109082997E+02  0.10051495515E+03  0.47000000000E+01 0.  1.
         13    1    4    4    0    0  0.30048078629E+02  0.46740164539E+01 -0.22789720556E+02  0.38001379213E+02  0.00000000000E+00 0. -1.
        -14    1    4    4    0    0 -0.12550168270E+02  0.95960103208E+02 -0.12197396698E+03  0.15570323295E+03  0.00000000000E+00 0.  1.
</event>
<event>
12    1  0.1598254E-001  0.2095790E+03  0.7818608E-02  0.1142102E+00
         21   -1    0    0  501  502  0.00000000000E+00  0.00000000000E+00  0.90206328692E+02  0.90206328692E+02  0.00000000000E+00 0. -1.
         21   -1    0    0  502  503 -0.00000000000E+00 -0.00000000000E+00 -0.49862103092E+03  0.49862103092E+03  0.00000000000E+00 0.  1.
         -6    2    1    2    0  503 -0.57544246607E+02 -0.10423586925E+03 -0.15525452319E+03  0.26082049083E+03  0.17247291007E+03 0.  0.
        -24    2    3    3    0    0 -0.44637064702E+02 -0.12464196492E+02 -0.13865794015E+03  0.16655399713E+03  0.79789635003E+02 0.  0.
          6    2    1    2  501    0  0.57544246607E+02  0.10423586925E+03 -0.25316017904E+03  0.32800686879E+03  0.17123659937E+03 0.  0.
         24    2    5    5    0    0 -0.31209065970E+02  0.74029009847E+02 -0.14196458559E+03  0.18248657862E+03  0.81811415557E+02 0.  0.
          5    1    5    5  501    0  0.88753312576E+02  0.30206859408E+02 -0.11119559345E+03  0.14552029017E+03  0.47000000000E+01 0. -1.
        -11    1    6    6    0    0  0.25934712200E+02  0.30495290054E+02 -0.32542916652E+02  0.51590827059E+02  0.00000000000E+00 0.  1.
         12    1    6    6    0    0 -0.57143778169E+02  0.43533719793E+02 -0.10942166894E+03  0.13089575156E+03  0.00000000000E+00 0. -1.
         -5    1    3    3    0  503 -0.12907181905E+02 -0.91771672762E+02 -0.16596583046E+02  0.94266493703E+02  0.47000000000E+01 0.  1.
         11    1    4    4    0    0 -0.22731805753E+02  0.17190493190E+02 -0.63411419217E+01  0.29196885618E+02  0.00000000000E+00 0. -1.
        -12    1    4    4    0    0 -0.21905258949E+02 -0.29654689682E+02 -0.13231679822E+03  0.13735711151E+03  0.00000000000E+00 0.  1.
</event>
<event>
12    1  0.1598254E-001  0.1822339E+03  0.7818608E-02  0.1166197E+00
         21   -1    0    0  503  502  0.00000000000E+00  0.00000000000E+00  0.75392631005E+02  0.75392631005E+02  0.00000000000E+00 0.  1.
         21   -1    0    0  501  503 -0.00000000000E+00 -0.00000000000E+00 -0.43811749566E+03  0.43811749566E+03  0.00000000000E+00 0.  1.
          6    2    1    2  501    0 -0.46042562180E+02 -0.37012506864E+02 -0.15884015684E+03  0.24005416106E+03  0.17001753328E+03 0.  0.
         24    2    3    3    0    0 -0.54487320722E+02 -0.73429333013E+02 -0.16195171475E+03  0.20224846088E+03  0.79469157238E+02 0.  0.
         -6    2    1    2    0  502  0.46042562180E+02  0.37012506864E+02 -0.20388470782E+03  0.27345596560E+03  0.17239300405E+03 0.  0.
        -24    2    5    5    0    0  0.74180408805E+02  0.28723657301E+01 -0.20151422146E+03  0.22890266208E+03  0.79230446919E+02 0.  0.
          5    1    3    3  501    0  0.84447585418E+01  0.36416826149E+02  0.31115579119E+01  0.37805700182E+02  0.47000000000E+01 0. -1.
        -13    1    4    4    0    0 -0.18876718683E+02 -0.22924985611E+02 -0.85833879861E+00  0.29708958565E+02  0.00000000000E+00 0.  1.
         14    1    4    4    0    0 -0.35610602040E+02 -0.50504347402E+02 -0.16109337595E+03  0.17253950232E+03  0.00000000000E+00 0. -1.
         -5    1    5    5    0  502 -0.28137846624E+02  0.34140141134E+02 -0.23704863515E+01  0.44553303524E+02  0.47000000000E+01 0.  1.
         11    1    6    6    0    0  0.69409431487E+02 -0.22335299209E+02 -0.97368727755E+02  0.12164375822E+03  0.00000000000E+00 0. -1.
        -12    1    6    6    0    0  0.47709773178E+01  0.25207664940E+02 -0.10414549371E+03  0.10725890386E+03  0.00000000000E+00 0.  1.
</event>
<event>
12    1  0.1598254E-001  0.2347053E+03  0.7818608E-02  0.1123610E+00
         21   -1    0    0  501  502  0.00000000000E+00  0.00000000000E+00  0.16523184880E+03  0.16523184880E+03  0.00000000000E+00 0.  1.
         21   -1    0    0  502  503 -0.00000000000E+00 -0.00000000000E+00 -0.56289132749E+03  0.56289132749E+03  0.00000000000E+00 0.  1.
         -6    2    1    2    0  503  0.14114152890E+03  0.74461235542E+02 -0.43194267551E+03  0.49092725922E+03  0.17020485347E+03 0.  0.
        -24    2    3    3    0    0  0.16917152041E+03  0.78839577051E+02 -0.39418225977E+03  0.44346370167E+03  0.80285232505E+02 0.  0.
          6    2    1    2  501    0 -0.14114152890E+03 -0.74461235542E+02  0.34283196822E+02  0.23719591707E+03  0.17210798561E+03 0.  0.
         24    2    5    5    0    0 -0.85242058625E+01 -0.30828223223E+02  0.44531244474E+02  0.97130551558E+02  0.80176498296E+02 0.  0.
          5    1    5    5  501    0 -0.13261732304E+03 -0.43633012320E+02 -0.10248047652E+02  0.14006536551E+03  0.47000000000E+01 0. -1.
        -13    1    6    6    0    0 -0.76620698112E+01 -0.16656759431E+02  0.67600362158E+02  0.70042586421E+02  0.00000000000E+00 0.  1.
         14    1    6    6    0    0 -0.86213605138E+00 -0.14171463792E+02 -0.23069117684E+02  0.27087965138E+02  0.00000000000E+00 0. -1.
         -5    1    3    3    0  503 -0.28029991510E+02 -0.43783415088E+01 -0.37760415741E+02  0.47463557551E+02  0.47000000000E+01 0.  1.
         11    1    4    4    0    0  0.16145019335E+02  0.43087174660E+02 -0.91592129110E+02  0.10250016773E+03  0.00000000000E+00 0. -1.
        -12    1    4    4    0    0  0.15302650108E+03  0.35752402391E+02 -0.30259013066E+03  0.34096353395E+03  0.00000000000E+00 0.  1.
</event>
<event>
12    1  0.1598254E-001  0.2164470E+03  0.7818608E-02  0.1137249E+00
         21   -1    0    0  503  502  0.00000000000E+00  0.00000000000E+00  0.51067988320E+02  0.51067988320E+02  0.00000000000E+00 0. -1.
         21   -1    0    0  501  503 -0.00000000000E+00 -0.00000000000E+00 -0.10474551724E+04  0.10474551724E+04  0.00000000000E+00 0. -1.
          6    2    1    2  501    0 -0.98323374385E+02  0.83270972923E+02 -0.29728598579E+03  0.36773396711E+03  0.17391886710E+03 0.  0.
         24    2    3    3    0    0 -0.58320301269E+02  0.12411334366E+03 -0.21549462216E+03  0.26783270450E+03  0.80567026785E+02 0.  0.
         -6    2    1    2    0  502  0.98323374385E+02 -0.83270972923E+02 -0.69910119826E+03  0.73078919358E+03  0.16943677041E+03 0.  0.
        -24    2    5    5    0    0  0.64425279622E+02 -0.56374910333E+02 -0.66620161801E+03  0.67622774756E+03  0.78298298615E+02 0.  0.
          5    1    3    3  501    0 -0.40003073116E+02 -0.40842370737E+02 -0.81791363633E+02  0.99901262610E+02  0.47000000000E+01 0. -1.
        -11    1    4    4    0    0 -0.55312564286E+02  0.96931382599E+02 -0.21287981670E+03  0.24036012369E+03  0.00000000000E+00 0.  1.
         12    1    4    4    0    0 -0.30077369828E+01  0.27181961061E+02 -0.26148054589E+01  0.27472580812E+02  0.00000000000E+00 0. -1.
         -5    1    5    5    0  502  0.33898094762E+02 -0.26896062590E+02 -0.32899580254E+02  0.54561446024E+02  0.47000000000E+01 0.  1.
         13    1    6    6    0    0  0.78945542325E+02 -0.56981340928E+02 -0.62500466381E+03  0.63254256904E+03  0.00000000000E+00 0. -1.
        -14    1    6    6    0    0 -0.14520262702E+02  0.60643059483E+00 -0.41196954195E+02  0.43685178516E+02  0.00000000000E+00 0.  1.
</event>
<event>
12    1  0.1598254E-001  0.1935072E+03  0.7818608E-02  0.1155442E+00
         21   -1    0    0  501  502  0.00000000000E+00  0.00000000000E+00  0.40465361226E+03  0.40465361226E+03  0.00000000000E+00 0.  1.
         21   -1    0    0  502  503 -0.00000000000E+00 -0.00000000000E+00 -0.17366610120E+03  0.17366610120E+03  0.00000000000E+00 0.  1.
         -6    2    1    2    0  503 -0.87428466717E+02 -0.10184133245E+02 -0.82501189226E+02  0.20991747767E+03  0.17178896310E+03 0.  0.
        -24    2    3    3    0    0 -0.10330133682E+03  0.28287394081E+02 -0.97706470883E+02  0.16536080577E+03  0.79538033547E+02 0.  0.
          6    2    1    2  501    0  0.87428466717E+02  0.10184133245E+02  0.31348870029E+03  0.36840223579E+03  0.17232988355E+03 0.  0.
         24    2    5    5    0    0  0.91002991700E+02  0.53546041620E+01  0.33070828219E+03  0.34956860681E+03  0.67231143633E+02 0.  0.
          5    1    5    5  501    0 -0.35745249836E+01  0.48295290830E+01 -0.17219581896E+02  0.18833628983E+02  0.47000000000E+01 0. -1.
        -13    1    6    6    0    0  0.77724811866E+02  0.28553276480E+02  0.28319813503E+03  0.29505528238E+03  0.00000000000E+00 0.  1.
         14    1    6    6    0    0  0.13278179834E+02 -0.23198672318E+02  0.47510147160E+02  0.54513324428E+02  0.00000000000E+00 0. -1.
         -5    1    3    3    0  503  0.15872870102E+02 -0.38471527326E+02  0.15205281657E+02  0.44556671895E+02  0.47000000000E+01 0.  1.
         13    1    4    4    0    0 -0.67721353412E+02  0.29295610760E+02 -0.14965705168E+02  0.75288690047E+02  0.00000000000E+00 0. -1.
        -14    1    4    4    0    0 -0.35579983407E+02 -0.10082166789E+01 -0.82740765715E+02  0.90072115725E+02  0.00000000000E+00 0.  1.
</event>
<event>
12    1  0.1598254E-001  0.2276871E+03  0.7818608E-02  0.1129542E+00
         21   -1    0    0  503  502  0.00000000000E+00  0.00000000000E+00  0.94629533541E+02  0.94629533541E+02  0.00000000000E+00 0. -1.
         21   -1    0    0  501  503 -0.00000000000E+00 -0.00000000000E+00 -0.10253265045E+04  0.10253265045E+04  0.00000000000E+00 0.  1.
          6    2    1    2  501    0  0.21350753703E+02 -0.13863189860E+03 -0.85781765282E+03  0.88752044764E+03  0.17935094508E+03 0.  0.
         24    2    3    3    0    0 -0.56017421691E+02 -0.55303514370E+02 -0.35458417454E+03  0.37157909647E+03  0.78387868120E+02 0.  0.
         -6    2    1    2    0  502 -0.21350753703E+02  0.13863189860E+03 -0.72879318094E+02  0.23243559035E+03  0.17041200270E+03 0.  0.
        -24    2    5    5    0    0  0.47845719971E+02  0.11000969513E+03 -0.59694549583E+02  0.15625612710E+03  0.80381540575E+02 0.  0.
          5    1    3    3  501    0  0.77368175394E+02 -0.83328384230E+02 -0.50323347828E+03  0.51594135117E+03  0.47000000000E+01 0. -1.
        -13    1    4    4    0    0 -0.68720026735E+02 -0.55276568355E+02 -0.34375192771E+03  0.35488495162E+03  0.00000000000E+00 0.  1.
         14    1    4    4    0    0  0.12702605044E+02 -0.26946015231E-01 -0.10832246831E+02  0.16694144854E+02  0.00000000000E+00 0. -1.
         -5    1    5    5    0  502 -0.69196473674E+02  0.28622203468E+02 -0.13184768511E+02  0.76179463250E+02  0.47000000000E+01 0.  1.
         13    1    6    6    0    0  0.40811788807E+02  0.38464150144E+02 -0.62930084662E+02  0.84292873408E+02  0.00000000000E+00 0. -1.
        -14    1    6    6    0    0  0.70339311644E+01  0.71545544989E+02  0.32355350790E+01  0.71963253696E+02  0.00000000000E+00 0.  1.
</event>
<event>
12    1  0.1598254E-001  0.1801617E+03  0.7818608E-02  0.1171927E+00
         21   -1    0    0  503  502  0.00000000000E+00  0.00000000000E+00  0.26467083036E+03  0.26467083036E+03  0.00000000000E+00 0. -1.
         21   -1    0    0  501  503 -0.00000000000E+00 -0.00000000000E+00 -0.11480182856E+03  0.11480182856E+03  0.00000000000E+00 0. -1.
          6    2    1    2  501    0 -0.10992977154E+02 -0.54241220636E+02  0.46163694108E+02  0.18598202419E+03  0.17145049171E+03 0.  0.
         24    2    3    3    0    0  0.19619529972E+02 -0.96023210571E+02  0.14223739473E+02  0.12494833696E+03  0.76186542245E+02 0.  0.
         -6    2    1    2    0  502  0.10992977154E+02  0.54241220636E+02  0.10370530769E+03  0.19349063473E+03  0.15369085634E+03 0.  0.
        -24    2    5    5    0    0  0.23765930126E+02 -0.10400883821E+02  0.22385409219E+02  0.88720572769E+02  0.81836640129E+02 0.  0.
          5    1    3    3  501    0 -0.30612507126E+02  0.41781989935E+02  0.31939954635E+02  0.61033687235E+02  0.47000000000E+01 0. -1.
        -11    1    4    4    0    0  0.23986555626E+02 -0.45405497038E+02  0.42629854494E+02  0.66740681044E+02  0.00000000000E+00 0.  1.
         12    1    4    4    0    0 -0.43670256538E+01 -0.50617713533E+02 -0.28406115021E+02  0.58207655914E+02  0.00000000000E+00 0. -1.
         -5    1    5    5    0  502 -0.12772952972E+02  0.64642104457E+02  0.81319898467E+02  0.10477006196E+03  0.47000000000E+01 0.  1.
         11    1    6    6    0    0 -0.15029103108E+02 -0.91446245477E+01  0.41777577543E+02  0.45330608684E+02  0.00000000000E+00 0. -1.
        -12    1    6    6    0    0  0.38795033234E+02 -0.12562592735E+01 -0.19392168323E+02  0.43389964085E+02  0.00000000000E+00 0.  1.
</event>
<event>
12    1  0.1598254E-001  0.2419992E+03  0.7818608E-02  0.1118674E+00
         21   -1    0    0  501  502  0.00000000000E+00  0.00000000000E+00  0.62748423690E+03  0.62748423690E+03  0.00000000000E+00 0. -1.
         21   -1    0    0  502  503 -0.00000000000E+00 -0.00000000000E+00 -0.10416108268E+03  0.10416108268E+03  0.00000000000E+00 0. -1.
         -6    2    1    2    0  503  0.16015643695E+03 -0.50277476274E+02  0.14050710710E+03  0.27875269233E+03  0.17257725058E+03 0.  0.
        -24    2    3    3    0    0  0.16614045467E+03  0.44839411655E+01  0.11362825936E+03  0.21727762613E+03  0.81703299117E+02 0.  0.
          6    2    1    2  501    0 -0.16015643695E+03  0.50277476274E+02  0.38281604713E+03  0.45289262725E+03  0.17431493614E+03 0.  0.
         24    2    5    5    0    0 -0.20067803382E+02  0.58172014009E+02  0.15324799231E+03  0.18380020674E+03  0.80689955418E+02 0.  0.
          5    1    5    5  501    0 -0.14008863357E+03 -0.78945377349E+01  0.22956805482E+03  0.26909242051E+03  0.47000000000E+01 0. -1.
        -13    1    6    6    0    0 -0.50313285222E+02  0.38780549441E+02  0.79468978896E+02  0.10173827348E+03  0.00000000000E+00 0.  1.
         14    1    6    6    0    0  0.30245481840E+02  0.19391464568E+02  0.73779013413E+02  0.82061933258E+02  0.00000000000E+00 0. -1.
         -5    1    3    3    0  503 -0.59840177216E+01 -0.54761417439E+02  0.26878847737E+02  0.61475066195E+02  0.47000000000E+01 0.  1.
         13    1    4    4    0    0  0.77443081840E+02 -0.13861528502E+02  0.94632594680E+01  0.79240937507E+02  0.00000000000E+00 0. -1.
        -14    1    4    4    0    0  0.88697372829E+02  0.18345469667E+02  0.10416499989E+03  0.13803668863E+03  0.00000000000E+00 0.  1.
</event>
<event>
12    1  0.1598254E-001  0.2121835E+03  0.7818608E-02  0.1140254E+00
         21   -1    0    0  501  502  0.00000000000E+00  0.00000000000E+00  0.53076867903E+03  0.53076867903E+03  0.00000000000E+00 0.  1.
         21   -1    0    0  502  503 -0.00000000000E+00 -0.00000000000E+00 -0.12871192702E+03  0.12871192702E+03  0.00000000000E+00 0.  1.
         -6    2    1    2    0  503  0.10803039116E+03  0.60104598569E+02  0.60456233302E+01  0.21020713305E+03  0.16990397594E+03 0.  0.
        -24    2    3    3    0    0 -0.13509648211E+01  0.26028940207E+01 -0.22452022751E+02  0.83301920804E+02  0.80165556948E+02 0.  0.
          6    2    1    2  501    0 -0.10803039116E+03 -0.60104598569E+02  0.39601112867E+03  0.44927347300E+03  0.17244915578E+03 0.  0.
         24    2    5    5    0    0 -0.14351181333E+03 -0.63911934123E+02  0.33264785194E+03  0.37640083094E+03  0.79640543969E+02 0.  0.
          5    1    5    5  501    0  0.35481422167E+02  0.38073355539E+01  0.63363276728E+02  0.72872642060E+02  0.47000000000E+01 0. -1.
        -13    1    6    6    0    0 -0.59118794819E+02 -0.29709462613E+02  0.61356131930E+02  0.90234466779E+02  0.00000000000E+00 0.  1.
         14    1    6    6    0    0 -0.84393018509E+02 -0.34202471510E+02  0.27129172001E+03  0.28616636416E+03  0.00000000000E+00 0. -1.
         -5    1    3    3    0  503  0.10938135598E+03  0.57501704548E+02  0.28497646081E+02  0.12690521224E+03  0.47000000000E+01 0.  1.
         11    1    4    4    0    0 -0.17654583215E+02  0.37638008611E+02 -0.12024135792E+02  0.43276828006E+02  0.00000000000E+00 0. -1.
        -12    1    4    4    0    0  0.16303618394E+02 -0.35035114590E+02 -0.10427886959E+02  0.40025092798E+02  0.00000000000E+00 0.  1.
</event>
<event>
12    1  0.1598254E-001  0.1999822E+03  0.7818608E-02  0.1150044E+00
         21   -1    0    0  503  502  0.00000000000E+00  0.00000000000E+00  0.77719874238E+03  0.77719874238E+03  0.00000000000E+00 0.  1.
         21   -1    0    0  501  503 -0.00000000000E+00 -0.00000000000E+00 -0.97008533910E+02  0.97008533910E+02  0.00000000000E+00 0.  1.
          6    2    1    2  501    0  0.93366288252E+02  0.41017193944E+02  0.40035319385E+02  0.20395026026E+03  0.17202676501E+03 0.  0.
         24    2    3    3    0    0  0.18800677227E+02  0.76435930413E+02  0.44751011747E+02  0.12113211614E+03  0.80463778099E+02 0.  0.
         -6    2    1    2    0  502 -0.93366288252E+02 -0.41017193944E+02  0.64015488909E+03  0.67025701604E+03  0.17043037153E+03 0.  0.
        -24    2    5    5    0    0 -0.60653687803E+02 -0.22669922727E+02  0.16193512902E+03  0.19054568043E+03  0.76758550528E+02 0.  0.
          5    1    3    3  501    0  0.74565611025E+02 -0.35418736469E+02 -0.47156923615E+01  0.82818144118E+02  0.47000000000E+01 0. -1.
        -13    1    4    4    0    0 -0.23800926864E+02  0.45838784069E+02 -0.81057485594E+00  0.51655931664E+02  0.00000000000E+00 0.  1.
         14    1    4    4    0    0  0.42601604091E+02  0.30597146344E+02  0.45561586603E+02  0.69476184476E+02  0.00000000000E+00 0. -1.
         -5    1    5    5    0  502 -0.32712600449E+02 -0.18347271217E+02  0.47821976007E+03  0.47971133561E+03  0.47000000000E+01 0.  1.
         13    1    6    6    0    0 -0.49256142837E+02 -0.22057997503E+02  0.16880578708E+03  0.17722335233E+03  0.00000000000E+00 0. -1.
        -14    1    6    6    0    0 -0.11397544966E+02 -0.61192522405E+00 -0.68706580593E+01  0.13322328096E+02  0.00000000000E+00 0.  1.
</event>
<event>
12    1  0.1598254E-001  0.2319939E+03  0.7818608E-02  0.1125356E+00
         21   -1    0    0  501  502  0.00000000000E+00  0.00000000000E+00  0.11384868651E+03  0.11384868651E+03  0.00000000000E+00 0.  1.
         21   -1    0    0  502  503 -0.00000000000E+00 -0.00000000000E+00 -0.80374316036E+03  0.80374316036E+03  0.00000000000E+00 0. -1.
         -6    2    1    2    0  503 -0.13473700584E+03  0.75837204160E+02 -0.63967178904E+03  0.68022400083E+03  0.17210273479E+03 0.  0.
        -24    2    3    3    0    0 -0.28153974507E+02 -0.67040789053E+01 -0.17110208581E+03  0.19262512597E+03  0.83611748152E+02 0.  0.
          6    2    1    2  501    0  0.13473700584E+03 -0.75837204160E+02 -0.50222684808E+02  0.23736784604E+03  0.17296194375E+03 0.  0.
         24    2    5    5    0    0  0.94048626862E+02 -0.81583083451E+02  0.25602556771E+02  0.15099587968E+03  0.81506570573E+02 0.  0.
          5    1    5    5  501    0  0.40688378981E+02  0.57458792907E+01 -0.75825241579E+02  0.86371966363E+02  0.47000000000E+01 0. -1.
        -13    1    6    6    0    0  0.10095395347E+03 -0.77062289916E+02  0.41056230988E+02  0.13347625763E+03  0.00000000000E+00 0.  1.
         14    1    6    6    0    0 -0.69053266098E+01 -0.45207935342E+01 -0.15453674218E+02  0.17519622045E+02  0.00000000000E+00 0. -1.
         -5    1    3    3    0  503 -0.10658303133E+03  0.82541283065E+02 -0.46856970323E+03  0.48759887486E+03  0.47000000000E+01 0.  1.
         11    1    4    4    0    0 -0.98416795841E+01 -0.17014128786E+02 -0.17047107637E+03  0.17160048693E+03  0.00000000000E+00 0. -1.
        -12    1    4    4    0    0 -0.18312294923E+02  0.10310049880E+02 -0.63100944782E+00  0.21024639041E+02  0.00000000000E+00 0.  1.
</event>
<event>
12    1  0.1598254E-001  0.1968988E+03  0.7818608E-02  0.1152460E+00
         21   -1    0    0  503  502  0.00000000000E+00  0.00000000000E+00  0.34547296182E+03  0.34547296182E+03  0.00000000000E+00 0. -1.
         21   -1    0    0  501  503 -0.00000000000E+00 -0.00000000000E+00 -0.12090467974E+03  0.12090467974E+03  0.00000000000E+00 0.  1.
          6    2    1    2  501    0  0.72153193489E+02  0.61237612590E+02  0.49147743981E+02  0.20293995221E+03  0.17266439974E+03 0.  0.
         24    2    3    3    0    0  0.34618593477E+02  0.10715080046E+02  0.91509390269E+02  0.12692698247E+03  0.80145058586E+02 0.  0.
         -6    2    1    2    0  502 -0.72153193489E+02 -0.61237612590E+02  0.17542053810E+03  0.26343768935E+03  0.17225249624E+03 0.  0.
        -24    2    5    5    0    0 -0.75353669848E+02  0.11035992048E+02  0.15208503417E+03  0.18727764261E+03  0.78377861179E+02 0.  0.
          5    1    3    3  501    0  0.37534600013E+02  0.50522532543E+02 -0.42361646288E+02  0.76012969742E+02  0.47000000000E+01 0. -1.
        -11    1    4    4    0    0  0.55612767038E+00  0.40440311411E+02  0.28930737988E+02  0.49726408130E+02  0.00000000000E+00 0.  1.
         12    1    4    4    0    0  0.34062465806E+02 -0.29725231364E+02  0.62578652281E+02  0.77200574336E+02  0.00000000000E+00 0. -1.
         -5    1    5    5    0  502  0.32004763590E+01 -0.72273604638E+02  0.23335503925E+02  0.76160046742E+02  0.47000000000E+01 0.  1.
         13    1    6    6    0    0 -0.76147618936E+02 -0.10860602797E+02  0.76120202139E+02  0.10821597727E+03  0.00000000000E+00 0. -1.
        -14    1    6    6    0    0  0.79394908734E+00  0.21896594845E+02  0.75964832032E+02  0.79061665342E+02  0.00000000000E+00 0.  1.
</event>
<event>
12    1  0.1598254E-001  0.4156225E+03  0.7818608E-02  0.1038527E+00
         21   -1    0    0  503  502  0.00000000000E+00  0.00000000000E+00  0.66255675074E+03  0.66255675074E+03  0.00000000000E+00 0. -1.
         21   -1    0    0  501  503 -0.00000000000E+00 -0.00000000000E+00 -0.49279115467E+03  0.49279115467E+03  0.00000000000E+00 0.  1.
          6    2    1    2  501    0  0.17511519347E+03  0.33552498807E+03 -0.31173369319E+03  0.51927903623E+03  0.17096921769E+03 0.  0.
         24    2    3    3    0    0  0.19168725406E+03  0.30015199897E+03 -0.31122460501E+03  0.47993147314E+03  0.81475384600E+02 0.  0.
         -6    2    1    2    0  502 -0.17511519347E+03 -0.33552498807E+03  0.48149928926E+03  0.63606886917E+03  0.17175474425E+03 0.  0.
        -24    2    5    5    0    0 -0.16375122146E+03 -0.19508779278E+03  0.25254384849E+03  0.36719263457E+03  0.78602328514E+02 0.  0.
          5    1    3    3  501    0 -0.16572060598E+02  0.35372989102E+02 -0.50908818561E+00  0.39347563092E+02  0.47000000000E+01 0. -1.
        -13    1    4    4    0    0  0.49674997017E+02  0.68668006825E+02 -0.32474510296E+02  0.90760642951E+02  0.00000000000E+00 0.  1.
         14    1    4    4    0    0  0.14201225705E+03  0.23148399214E+03 -0.27875009471E+03  0.38917083019E+03  0.00000000000E+00 0. -1.
         -5    1    5    5    0  502 -0.11363972010E+02 -0.14043719529E+03  0.22895544077E+03  0.26887623461E+03  0.47000000000E+01 0.  1.
         11    1    6    6    0    0 -0.46894089358E+02 -0.89963834623E+02  0.14409633740E+03  0.17622798191E+03  0.00000000000E+00 0. -1.
        -12    1    6    6    0    0 -0.11685713210E+03 -0.10512395816E+03  0.10844751109E+03  0.19096465265E+03  0.00000000000E+00 0.  1.
</event>
<event>
12    1  0.1598254E-001  0.1895481E+03  0.7818608E-02  0.1159752E+00
         21   -1    0    0  503  502  0.00000000000E+00  0.00000000000E+00  0.33986790112E+02  0.33986790112E+02  0.00000000000E+00 0.  1.
         21   -1    0    0  501  503 -0.00000000000E+00 -0.00000000000E+00 -0.10907206186E+04  0.10907206186E+04  0.00000000000E+00 0.  1.
          6    2    1    2  501    0  0.53475494795E+02  0.53720742180E+02 -0.39694140550E+03  0.43822759728E+03  0.16951519381E+03 0.  0.
         24    2    3    3    0    0  0.67427558149E+02  0.25391502471E+02 -0.13137084306E+03  0.17074485106E+03  0.81879800681E+02 0.  0.
         -6    2    1    2    0  502 -0.53475494795E+02 -0.53720742180E+02 -0.65979242295E+03  0.68647981140E+03  0.17373239015E+03 0.  0.
        -24    2    5    5    0    0 -0.69605078177E+02  0.24560534159E+02 -0.39560903981E+03  0.41043077297E+03  0.80615260831E+02 0.  0.
          5    1    3    3  501    0 -0.13952063354E+02  0.28329239709E+02 -0.26557056244E+03  0.26748274623E+03  0.47000000000E+01 0. -1.
        -11    1    4    4    0    0  0.83079621426E+02  0.33083767456E+02 -0.12098516746E+03  0.15044656829E+03  0.00000000000E+00 0.  1.
         12    1    4    4    0    0 -0.15652063277E+02 -0.76922649847E+01 -0.10385675599E+02  0.20298282762E+02  0.00000000000E+00 0. -1.
         -5    1    5    5    0  502  0.16129583383E+02 -0.78281276338E+02 -0.26418338314E+03  0.27604903842E+03  0.47000000000E+01 0.  1.
         11    1    6    6    0    0  0.98737096756E+01  0.55573402541E+01 -0.69905025133E+01  0.13313200173E+02  0.00000000000E+00 0. -1.
        -12    1    6    6    0    0 -0.79478787853E+02  0.19003193905E+02 -0.38861853730E+03  0.39711757280E+03  0.00000000000E+00 0.  1.
</event>
<event>
12    1  0.1598254E-001  0.2744672E+03  0.7818608E-02  0.1098878E+00
         21   -1    0    0  503  502  0.00000000000E+00  0.00000000000E+00  0.88558382987E+03  0.88558382987E+03  0.00000000000E+00 0. -1.
         21   -1    0    0  501  503 -0.00000000000E+00 -0.00000000000E+00 -0.86568278160E+02  0.86568278160E+02  0.00000000000E+00 0.  1.
          6    2    1    2  501    0  0.15262304855E+03 -0.14954977102E+03  0.46866891323E+03  0.54266273558E+03  0.17080212351E+03 0.  0.
         24    2    3    3    0    0  0.12479782516E+03 -0.62034014133E+02  0.18830992396E+03  0.24760934443E+03  0.80168846283E+02 0.  0.
         -6    2    1    2    0  502 -0.15262304855E+03  0.14954977102E+03  0.33034663848E+03  0.42948937245E+03  0.17225936995E+03 0.  0.
        -24    2    5    5    0    0 -0.88502235797E+02  0.30085658753E+02  0.23071658534E+03  0.26117006211E+03  0.79005480737E+02 0.  0.
          5    1    3    3  501    0  0.27825223385E+02 -0.87515756885E+02  0.28035898927E+03  0.29505339114E+03  0.47000000000E+01 0. -1.
        -13    1    4    4    0    0  0.84641073983E+02 -0.71456302956E+02  0.96304377052E+02  0.14678095134E+03  0.00000000000E+00 0.  1.
         14    1    4    4    0    0  0.40156751179E+02  0.94222888229E+01  0.92005546905E+02  0.10082839309E+03  0.00000000000E+00 0. -1.
         -5    1    5    5    0  502 -0.64120812749E+02  0.11946411227E+03  0.99630053140E+02  0.16831931035E+03  0.47000000000E+01 0.  1.
         13    1    6    6    0    0  0.14982957177E+02  0.21542783961E+01  0.31469428965E+02  0.34920694159E+02  0.00000000000E+00 0. -1.
        -14    1    6    6    0    0 -0.10348519297E+03  0.27931380357E+02  0.19924715637E+03  0.22624936795E+03  0.00000000000E+00 0.  1.
</event>
<event>
12    1  0.1598254E-001  0.1986809E+03  0.7818608E-02  0.1151568E+00
         21   -1    0    0  503  502  0.00000000000E+00  0.00000000000E+00  0.10414288075E+03  0.10414288075E+03  0.00000000000E+00 0.  1.
         21   -1    0    0  501  503 -0.00000000000E+00 -0.00000000000E+00 -0.39060880745E+03  0.39060880745E+03  0.00000000000E+00 0.  1.
          6    2    1    2  501    0  0.17623077687E+02  0.97664802529E+02 -0.19728787719E+03  0.27999396318E+03  0.17211951201E+03 0.  0.
         24    2    3    3    0    0 -0.66745117982E+01  0.75318151463E+02 -0.21563207055E+03  0.24193683377E+03  0.79491311716E+02 0.  0.
         -6    2    1    2    0  502 -0.17623077687E+02 -0.97664802529E+02 -0.89178049509E+02  0.21475772501E+03  0.16828300395E+03 0.  0.
        -24    2    5    5    0    0 -0.95695175591E+01  0.13876886182E+02 -0.20712360967E+02  0.83547783851E+02  0.79164933229E+02 0.  0.
          5    1    3    3  501    0  0.24297589486E+02  0.22346651066E+02  0.18344193364E+02  0.38057129409E+02  0.47000000000E+01 0. -1.
        -13    1    4    4    0    0  0.20608866443E+02  0.24787079580E+02 -0.15543140304E+03  0.15873892320E+03  0.00000000000E+00 0.  1.
         14    1    4    4    0    0 -0.27283378241E+02  0.50531071883E+02 -0.60200667518E+02  0.83197910572E+02  0.00000000000E+00 0. -1.
         -5    1    5    5    0  502 -0.80535601283E+01 -0.11154168871E+03 -0.68465688542E+02  0.13120994116E+03  0.47000000000E+01 0.  1.
         11    1    6    6    0    0  0.32801404441E+02 -0.67162574067E+01 -0.12431592428E+02  0.35715329162E+02  0.00000000000E+00 0. -1.
        -12    1    6    6    0    0 -0.42370922000E+02  0.20593143589E+02 -0.82807685386E+01  0.47832454689E+02  0.00000000000E+00 0.  1.
</event>
<event>
12    1  0.1598254E-001  0.1976299E+03  0.7818608E-02  0.1152013E+00
         21   -1    0    0  501  502  0.00000000000E+00  0.00000000000E+00  0.41434104109E+03  0.41434104109E+03  0.00000000000E+00 0.  1.
         21   -1    0    0  502  503 -0.00000000000E+00 -0.00000000000E+00 -0.12844256827E+03  0.12844256827E+03  0.00000000000E+00 0. -1.
         -6    2    1    2    0  503 -0.62667150252E+02  0.72901880500E+02  0.21017071163E+01  0.19764103209E+03  0.17267224586E+03 0.  0.
        -24    2    3    3    0    0 -0.10558673307E+03  0.47552885958E+02  0.23668338855E+02  0.14312615597E+03  0.80715990330E+02 0.  0.
          6    2    1    2  501    0  0.62667150252E+02 -0.72901880500E+02  0.28379676570E+03  0.34514257728E+03  0.17129196866E+03 0.  0.
         24    2    5    5    0    0  0.24514224563E+01 -0.95637684741E+02  0.23057443929E+03  0.26149117743E+03  0.77849133609E+02 0.  0.
          5    1    5    5  501    0  0.60215727796E+02  0.22735804241E+02  0.53222326412E+02  0.83651399852E+02  0.47000000000E+01 0. -1.
        -13    1    6    6    0    0 -0.38422859169E+01  0.10304225065E+02  0.56932095734E+02  0.57984512931E+02  0.00000000000E+00 0.  1.
         14    1    6    6    0    0  0.62937083732E+01 -0.10594190981E+03  0.17364234356E+03  0.20350666450E+03  0.00000000000E+00 0. -1.
         -5    1    3    3    0  503  0.42919582817E+02  0.25348994541E+02 -0.21566631739E+02  0.54514876117E+02  0.47000000000E+01 0.  1.
         13    1    4    4    0    0 -0.58309326768E+02  0.30279750064E+02 -0.27613708526E+02  0.71269613095E+02  0.00000000000E+00 0. -1.
        -14    1    4    4    0    0 -0.47277406301E+02  0.17273135895E+02  0.51282047381E+02  0.71856542874E+02  0.00000000000E+00 0.  1.
</event>
<event>
12    1  0.1598254E-001  0.3486333E+03  0.7818608E-02  0.1063190E+00
         21   -1    0    0  503  502  0.00000000000E+00  0.00000000000E+00  0.41794224205E+03  0.41794224205E+03  0.00000000000E+00 0.  1.
         21   -1    0    0  501  503 -0.00000000000E+00 -0.00000000000E+00 -0.49686282425E+03  0.49686282425E+03  0.00000000000E+00 0. -1.
          6    2    1    2  501    0 -0.26018760828E+03  0.15693941721E+03 -0.33409106989E+03  0.48286851723E+03  0.17093153537E+03 0.  0.
         24    2    3    3    0    0 -0.20996651195E+03  0.69346030085E+02 -0.16354467555E+03  0.28461887006E+03  0.73254571619E+02 0.  0.
         -6    2    1    2    0  502  0.26018760828E+03 -0.15693941721E+03  0.25517048769E+03  0.43193654906E+03  0.17067405324E+03 0.  0.
        -24    2    5    5    0    0  0.20812491054E+03 -0.18257791833E+03  0.22997635044E+03  0.36849609046E+03  0.79054236252E+02 0.  0.
          5    1    3    3  501    0 -0.50221096327E+02  0.87593387123E+02 -0.17054639434E+03  0.19824964717E+03  0.47000000000E+01 0. -1.
        -13    1    4    4    0    0 -0.12950502938E+03  0.13446935761E+02 -0.12121719223E+03  0.17789317133E+03  0.00000000000E+00 0.  1.
         14    1    4    4    0    0 -0.80461482575E+02  0.55899094323E+02 -0.42327483325E+02  0.10672569873E+03  0.00000000000E+00 0. -1.
         -5    1    5    5    0  502  0.52062697743E+02  0.25638501127E+02  0.25194137245E+02  0.63440458603E+02  0.47000000000E+01 0.  1.
         13    1    6    6    0    0  0.19242964959E+02  0.62134839714E+01  0.22989173092E+02  0.30617007740E+02  0.00000000000E+00 0. -1.
        -14    1    6    6    0    0  0.18888194558E+03 -0.18879140231E+03  0.20698717735E+03  0.33787908272E+03  0.00000000000E+00 0.  1.
</event>
<event>
12    1  0.1598254E-001  0.2311237E+03  0.7818608E-02  0.1125927E+00
         21   -1    0    0  501  502  0.00000000000E+00  0.00000000000E+00  0.45260187979E+03  0.45260187979E+03  0.00000000000E+00 0. -1.
         21   -1    0    0  502  503 -0.00000000000E+00 -0.00000000000E+00 -0.12607033873E+03  0.12607033873E+03  0.00000000000E+00 0. -1.
         -6    2    1    2    0  503  0.12381008130E+03 -0.91239208112E+02  0.89324491037E+02  0.24778423907E+03  0.17252430293E+03 0.  0.
        -24    2    3    3    0    0  0.14650298549E+03 -0.37346139082E+02  0.77703366675E+02  0.18797979675E+03  0.80254170799E+02 0.  0.
          6    2    1    2  501    0 -0.12381008130E+03  0.91239208112E+02  0.23720705002E+03  0.33088797945E+03  0.17194807658E+03 0.  0.
         24    2    5    5    0    0 -0.10017507641E+03  0.46341920079E+02  0.62305325481E+02  0.14871475646E+03  0.77791424436E+02 0.  0.
          5    1    5    5  501    0 -0.23635004890E+02  0.44897288033E+02  0.17490172454E+03  0.18217322299E+03  0.47000000000E+01 0. -1.
        -11    1    6    6    0    0  0.26773280268E+01 -0.98679445392E+01 -0.71452956909E+01  0.12473959488E+02  0.00000000000E+00 0.  1.
         12    1    6    6    0    0 -0.10285240444E+03  0.56209864618E+02  0.69450621172E+02  0.13624079698E+03  0.00000000000E+00 0. -1.
         -5    1    3    3    0  503 -0.22692904186E+02 -0.53893069030E+02  0.11621124362E+02  0.59804442320E+02  0.47000000000E+01 0.  1.
         11    1    4    4    0    0  0.22660949554E+02 -0.29280047152E+02  0.47549938191E+02  0.60264719512E+02  0.00000000000E+00 0. -1.
        -12    1    4    4    0    0  0.12384203594E+03 -0.80660919304E+01  0.30153428484E+02  0.12771507724E+03  0.00000000000E+00 0.  1.
</event>
<event>
12    1  0.1598254E-001  0.2157273E+03  0.7818608E-02  0.1137286E+00
         21   -1    0    0  501  502  0.00000000000E+00  0.00000000000E+00  0.37262368268E+04  0.37262368268E+04  0.00000000000E+00 0.  1.
         21   -1    0    0  502  503 -0.00000000000E+00 -0.00000000000E+00 -0.15111512606E+02  0.15111512606E+02  0.00000000000E+00 0. -1.
         -6    2    1    2    0  503  0.99072959547E+02 -0.82430610220E+02  0.26394219555E+04  0.26481482822E+04  0.17184530387E+03 0.  0.
        -24    2    3    3    0    0  0.92279974547E+02  0.84379130786E+01  0.16884172160E+04  0.16927764500E+04  0.78438653320E+02 0.  0.
          6    2    1    2  501    0 -0.99072959547E+02  0.82430610220E+02  0.10717033587E+04  0.10932000572E+04  0.17299716544E+03 0.  0.
         24    2    5    5    0    0 -0.30053091569E+02 -0.23314851782E+02  0.49292719502E+03  0.50078990999E+03  0.79790624282E+02 0.  0.
          5    1    5    5  501    0 -0.69019867978E+02  0.10574546200E+03  0.57877616364E+03  0.59241014720E+03  0.47000000000E+01 0. -1.
        -11    1    6    6    0    0 -0.16536586761E+02 -0.17843007970E+02  0.48188511890E+03  0.48249880772E+03  0.00000000000E+00 0.  1.
         12    1    6    6    0    0 -0.13516504808E+02 -0.54718438126E+01  0.11042076124E+02  0.18291102265E+02  0.00000000000E+00 0. -1.
         -5    1    3    3    0  503  0.67929850004E+01 -0.90868523299E+02  0.95100473953E+03  0.95537183221E+03  0.47000000000E+01 0.  1.
         11    1    4    4    0    0  0.10330843110E+02 -0.68604151018E+01  0.32869028400E+02  0.35130679508E+02  0.00000000000E+00 0. -1.
        -12    1    4    4    0    0  0.81949131436E+02  0.15298328180E+02  0.16555481876E+04  0.16576457705E+04  0.00000000000E+00 0.  1.
</event>
<event>
12    1  0.1598254E-001  0.2021861E+03  0.7818608E-02  0.1147918E+00
         21   -1    0    0  501  502  0.00000000000E+00  0.00000000000E+00  0.98525016653E+03  0.98525016653E+03  0.00000000000E+00 0.  1.
         21   -1    0    0  502  503 -0.00000000000E+00 -0.00000000000E+00 -0.14079292676E+03  0.14079292676E+03  0.00000000000E+00 0.  1.
         -6    2    1    2    0  503 -0.55310668019E+02 -0.91808019158E+02 -0.50650655806E+02  0.20838445271E+03  0.17137855415E+03 0.  0.
        -24    2    3    3    0    0 -0.59301320858E+02  0.59413221014E+01 -0.46649610803E+02  0.11035916318E+03  0.80318196857E+02 0.  0.
          6    2    1    2  501    0  0.55310668019E+02  0.91808019158E+02  0.89510789557E+03  0.91765864058E+03  0.17143877487E+03 0.  0.
         24    2    5    5    0    0 -0.71672684687E+01  0.52876416053E+02  0.22387652630E+03  0.24238624860E+03  0.76046757796E+02 0.  0.
          5    1    5    5  501    0  0.62477936487E+02  0.38931603105E+02  0.67123136927E+03  0.67527239197E+03  0.47000000000E+01 0. -1.
        -11    1    6    6    0    0  0.18828299314E+02  0.59006989572E+02  0.11890139924E+03  0.13406667153E+03  0.00000000000E+00 0.  1.
         12    1    6    6    0    0 -0.25995567783E+02 -0.61305735195E+01  0.10497512707E+03  0.10831957708E+03  0.00000000000E+00 0. -1.
         -5    1    3    3    0  503  0.39906528394E+01 -0.97749341259E+02 -0.40010450029E+01  0.98025289532E+02  0.47000000000E+01 0.  1.
         11    1    4    4    0    0 -0.11228489187E+02  0.34362391131E+02 -0.40324311730E+02  0.54156283202E+02  0.00000000000E+00 0. -1.
        -12    1    4    4    0    0 -0.48072831672E+02 -0.28421069030E+02 -0.63252990722E+01  0.56202879980E+02  0.00000000000E+00 0.  1.
</event>
<event>
12    1  0.1598254E-001  0.2398388E+03  0.7818608E-02  0.1121661E+00
         21   -1    0    0  503  502  0.00000000000E+00  0.00000000000E+00  0.34765099046E+03  0.34765099046E+03  0.00000000000E+00 0.  1.
         21   -1    0    0  501  503 -0.00000000000E+00 -0.00000000000E+00 -0.79522570429E+03  0.79522570429E+03  0.00000000000E+00 0. -1.
          6    2    1    2  501    0 -0.10758090953E+03  0.99713556639E+02 -0.73414356144E+03  0.76918651577E+03  0.17653521397E+03 0.  0.
         24    2    3    3    0    0 -0.60257140117E+02  0.94309732322E+02 -0.27157093088E+03  0.30414429295E+03  0.78915979919E+02 0.  0.
         -6    2    1    2    0  502  0.10758090953E+03 -0.99713556639E+02  0.28656884761E+03  0.37369017897E+03  0.18975299724E+03 0.  0.
        -24    2    5    5    0    0  0.75916333886E+02 -0.14495716477E+03  0.23915952681E+03  0.30075621483E+03  0.80505603057E+02 0.  0.
          5    1    3    3  501    0 -0.47323769410E+02  0.54038243177E+01 -0.46257263056E+03  0.46504222283E+03  0.47000000000E+01 0. -1.
        -11    1    4    4    0    0  0.16708050334E+01  0.68819479966E+02 -0.11810615962E+03  0.13670397709E+03  0.00000000000E+00 0.  1.
         12    1    4    4    0    0 -0.61927945151E+02  0.25490252356E+02 -0.15346477126E+03  0.16744031585E+03  0.00000000000E+00 0. -1.
         -5    1    5    5    0  502  0.31664575642E+02  0.45243608126E+02  0.47409320799E+02  0.72933964142E+02  0.47000000000E+01 0.  1.
         11    1    6    6    0    0  0.51772017350E+02 -0.10782847629E+03  0.22401654476E+03  0.25395025971E+03  0.00000000000E+00 0. -1.
        -12    1    6    6    0    0  0.24144316535E+02 -0.37128688478E+02  0.15142982051E+02  0.46805955117E+02  0.00000000000E+00 0.  1.
</event>
<event>
12    1  0.1598254E-001  0.1762219E+03  0.7818608E-02  0.1171727E+00
         21   -1    0    0  503  502  0.00000000000E+00  0.00000000000E+00  0.27102180825E+03  0.27102180825E+03  0.00000000000E+00 0.  1.
         21   -1    0    0  501  503 -0.00000000000E+00 -0.00000000000E+00 -0.13294036697E+03  0.13294036697E+03  0.00000000000E+00 0.  1.
          6    2    1    2  501    0  0.26175276387E+02  0.24764476538E+02 -0.73084717833E+01  0.17550564313E+03  0.17161116694E+03 0.  0.
         24    2    3    3    0    0 -0.11459484220E+02 -0.41128179864E+02 -0.33329971876E+02  0.95147533138E+02  0.78226076723E+02 0.  0.
         -6    2    1    2    0  502 -0.26175276387E+02 -0.24764476538E+02  0.14538991306E+03  0.22845653209E+03  0.17249850969E+03 0.  0.
        -24    2    5    5    0    0  0.74693953881E+01  0.45735827789E+02  0.43757464811E+02  0.10018532961E+03  0.77297003381E+02 0.  0.
          5    1    3    3  501    0  0.37634760607E+02  0.65892656402E+02  0.26021500093E+02  0.80358109987E+02  0.47000000000E+01 0. -1.
        -13    1    4    4    0    0 -0.87985881046E+01  0.22522738289E+02 -0.16441142334E+02  0.29240383957E+02  0.00000000000E+00 0.  1.
         14    1    4    4    0    0 -0.26608961153E+01 -0.63650918154E+02 -0.16888829543E+02  0.65907149182E+02  0.00000000000E+00 0. -1.
         -5    1    5    5    0  502 -0.33644671775E+02 -0.70500304327E+02  0.10163244825E+03  0.12827120248E+03  0.47000000000E+01 0.  1.
         13    1    6    6    0    0  0.32946426301E+02  0.22139464179E+01 -0.59488072388E+00  0.33026087383E+02  0.00000000000E+00 0. -1.
        -14    1    6    6    0    0 -0.25477030913E+02  0.43521881371E+02  0.44352345535E+02  0.67159242228E+02  0.00000000000E+00 0.  1.
</event>
<event>
12    1  0.1598254E-001  0.1948416E+03  0.7818608E-02  0.1154445E+00
         21   -1    0    0  501  502  0.00000000000E+00  0.00000000000E+00  0.32029336325E+03  0.32029336325E+03  0.00000000000E+00 0. -1.
         21   -1    0    0  502  503 -0.00000000000E+00 -0.00000000000E+00 -0.15375560020E+03  0.15375560020E+03  0.00000000000E+00 0. -1.
         -6    2    1    2    0  503 -0.45535153252E+02 -0.75762886915E+02 -0.31216939145E+02  0.19732654307E+03  0.17363698366E+03 0.  0.
        -24    2    3    3    0    0  0.60523250334E+01 -0.10761159262E+03 -0.22311484795E+02  0.13586919942E+03  0.79660225293E+02 0.  0.
          6    2    1    2  501    0  0.45535153252E+02  0.75762886915E+02  0.19775470220E+03  0.27672242038E+03  0.17220601175E+03 0.  0.
         24    2    5    5    0    0 -0.15288751284E+02  0.53607917303E+02  0.18731001341E+03  0.21098375926E+03  0.79508180918E+02 0.  0.
          5    1    5    5  501    0  0.60823904537E+02  0.22154969612E+02  0.10444688782E+02  0.65738661116E+02  0.47000000000E+01 0. -1.
        -13    1    6    6    0    0  0.16904802756E+02  0.81828115895E+01  0.37317287133E+01  0.19148278276E+02  0.00000000000E+00 0.  1.
         14    1    6    6    0    0 -0.32193554041E+02  0.45425105713E+02  0.18357828470E+03  0.19183548098E+03  0.00000000000E+00 0. -1.
         -5    1    3    3    0  503 -0.51587478286E+02  0.31848705704E+02 -0.89054543506E+01  0.61457343647E+02  0.47000000000E+01 0.  1.
         11    1    4    4    0    0 -0.23455927229E+02 -0.82652973660E+02 -0.38271639943E+02  0.94055371994E+02  0.00000000000E+00 0. -1.
        -12    1    4    4    0    0  0.29508252262E+02 -0.24958618960E+02  0.15960155148E+02  0.41813827429E+02  0.00000000000E+00 0.  1.
</event>
<event>
12    1  0.1598254E-001  0.2061428E+03  0.7818608E-02  0.1144789E+00
         21   -1    0    0  503  502  0.00000000000E+00  0.00000000000E+00  0.33178891503E+03  0.33178891503E+03  0.00000000000E+00 0.  1.
         21   -1    0    0  501  503 -0.00000000000E+00 -0.00000000000E+00 -0.15588443666E+03  0.15588443666E+03  0.00000000000E+00 0.  1.
          6    2    1    2  501    0 -0.10286025208E+03  0.45750692187E+02 -0.15660578573E+02  0.20673680383E+03  0.17268901251E+03 0.  0.
         24    2    3    3    0    0 -0.12746750399E+03  0.47516764230E+02  0.24443120977E+02  0.15941838696E+03  0.79441478350E+02 0.  0.
         -6    2    1    2    0  502  0.10286025208E+03 -0.45750692187E+02  0.19156505694E+03  0.28093654786E+03  0.17191514066E+03 0.  0.
        -24    2    5    5    0    0  0.64631123952E+01  0.25583806817E+02  0.69750026255E+02  0.10993359178E+03  0.80771439540E+02 0.  0.
          5    1    3    3  501    0  0.24607251912E+02 -0.17660720428E+01 -0.40103699550E+02  0.47318416866E+02  0.47000000000E+01 0. -1.
        -13    1    4    4    0    0 -0.41444586705E+02  0.51858683687E+02 -0.90580564374E+01  0.67000188264E+02  0.00000000000E+00 0.  1.
         14    1    4    4    0    0 -0.86022917283E+02 -0.43419194569E+01  0.33501177414E+02  0.92418198698E+02  0.00000000000E+00 0. -1.
         -5    1    5    5    0  502  0.96397139681E+02 -0.71334499005E+02  0.12181503069E+03  0.17100295608E+03  0.47000000000E+01 0.  1.
         13    1    6    6    0    0 -0.74364399620E+01 -0.62587185802E+01 -0.15262865960E+02  0.18094951641E+02  0.00000000000E+00 0. -1.
        -14    1    6    6    0    0  0.13899552357E+02  0.31842525397E+02  0.85012892215E+02  0.91838640137E+02  0.00000000000E+00 0.  1.
</event>
<event>
12    1  0.1598254E-001  0.2227173E+03  0.7818608E-02  0.1132102E+00
         21   -1    0    0  501  502  0.00000000000E+00  0.00000000000E+00  0.61528823336E+03  0.61528823336E+03  0.00000000000E+00 0. -1.
         21   -1    0    0  502  503 -0.00000000000E+00 -0.00000000000E+00 -0.26414789174E+03  0.26414789174E+03  0.00000000000E+00 0. -1.
         -6    2    1    2    0  503  0.66626421343E+02  0.12324643870E+03 -0.19155269199E+03  0.29281979334E+03  0.17152910216E+03 0.  0.
        -24    2    3    3    0    0  0.76928428623E+02  0.78010539727E+02 -0.20379097388E+03  0.24460897035E+03  0.79367247023E+02 0.  0.
          6    2    1    2  501    0 -0.66626421343E+02 -0.12324643870E+03  0.54269303362E+03  0.58661633176E+03  0.17313066532E+03 0.  0.
         24    2    5    5    0    0 -0.97454567476E+02 -0.70208133049E+02  0.46775705861E+03  0.48965795506E+03  0.80880605909E+02 0.  0.
          5    1    5    5  501    0  0.30828146133E+02 -0.53038305649E+02  0.74935975017E+02  0.96958376698E+02  0.47000000000E+01 0. -1.
        -13    1    6    6    0    0  0.86836413674E+01  0.51159307642E+01  0.11945469816E+02  0.15629223401E+02  0.00000000000E+00 0.  1.
         14    1    6    6    0    0 -0.10613820884E+03 -0.75324063814E+02  0.45581158879E+03  0.47402873166E+03  0.00000000000E+00 0. -1.
         -5    1    3    3    0  503 -0.10302007280E+02  0.45235898972E+02  0.12238281890E+02  0.48210822991E+02  0.47000000000E+01 0.  1.
         11    1    4    4    0    0  0.25056324356E+02  0.54009904898E+01 -0.41939487278E+01  0.25972664369E+02  0.00000000000E+00 0. -1.
        -12    1    4    4    0    0  0.51872104267E+02  0.72609549237E+02 -0.19959702516E+03  0.21863630598E+03  0.00000000000E+00 0.  1.
</event>
<event>
12    1  0.1598254E-001  0.1928078E+03  0.7818608E-02  0.1156430E+00
         21   -1    0    0  503  502  0.00000000000E+00  0.00000000000E+00  0.14923183586E+03  0.14923183586E+03  0.00000000000E+00 0. -1.
         21   -1    0    0  501  503 -0.00000000000E+00 -0.00000000000E+00 -0.70814395507E+03  0.70814395507E+03  0.00000000000E+00 0. -1.
          6    2    1    2  501    0 -0.20555791806E+02  0.81371247304E+02 -0.62618020373E+03  0.65519196007E+03  0.17358293849E+03 0.  0.
         24    2    3    3    0    0 -0.33908085952E+02  0.53540191545E+01 -0.14647775721E+03  0.16929749630E+03  0.77636879634E+02 0.  0.
         -6    2    1    2    0  502  0.20555791806E+02 -0.81371247304E+02  0.67268084514E+02  0.20218383086E+03  0.17120013377E+03 0.  0.
        -24    2    5    5    0    0 -0.48964926318E+02 -0.56803407440E+02  0.14474376425E+02  0.11137648194E+03  0.81061840903E+02 0.  0.
          5    1    3    3  501    0  0.13352294146E+02  0.76017228149E+02 -0.47970244652E+03  0.48589446378E+03  0.47000000000E+01 0. -1.
        -13    1    4    4    0    0  0.18678985946E+02 -0.21665607749E+01 -0.89270066541E+02  0.91229070377E+02  0.00000000000E+00 0.  1.
         14    1    4    4    0    0 -0.52587071897E+02  0.75205799294E+01 -0.57207690673E+02  0.78068425918E+02  0.00000000000E+00 0. -1.
         -5    1    5    5    0  502  0.69520718123E+02 -0.24567839864E+02  0.52793708088E+02  0.90807348919E+02  0.47000000000E+01 0.  1.
         11    1    6    6    0    0 -0.33334922831E+02 -0.49853548727E+02  0.45951245413E+02  0.75552037404E+02  0.00000000000E+00 0. -1.
        -12    1    6    6    0    0 -0.15630003486E+02 -0.69498587127E+01 -0.31476868988E+02  0.35824444537E+02  0.00000000000E+00 0.  1.
</event>
<event>
12    1  0.1598254E-001  0.1976660E+03  0.7818608E-02  0.1151984E+00
         21   -1    0    0  501  502  0.00000000000E+00  0.00000000000E+00  0.12880198995E+04  0.12880198995E+04  0.00000000000E+00 0. -1.
         21   -1    0    0  502  503 -0.00000000000E+00 -0.00000000000E+00 -0.30707250905E+02  0.30707250905E+02  0.00000000000E+00 0. -1.
         -6    2    1    2    0  503  0.97985824057E+02 -0.19138195116E+01  0.71948133026E+03  0.74614022020E+03  0.17165942787E+03 0.  0.
        -24    2    3    3    0    0  0.12193911583E+03 -0.31863502337E+01  0.69946293823E+03  0.71454582923E+03  0.80299684380E+02 0.  0.
          6    2    1    2  501    0 -0.97985824057E+02  0.19138195116E+01  0.53783131833E+03  0.57258693021E+03  0.17025974640E+03 0.  0.
         24    2    5    5    0    0 -0.32013248241E+02  0.43706470384E+02  0.43928468741E+03  0.44675952901E+03  0.60728383390E+02 0.  0.
          5    1    5    5  501    0 -0.65972575816E+02 -0.41792650872E+02  0.98546630917E+02  0.12582740120E+03  0.47000000000E+01 0. -1.
        -11    1    6    6    0    0  0.10269132795E+02  0.56113437885E+01  0.16889443315E+02  0.20547397961E+02  0.00000000000E+00 0.  1.
         12    1    6    6    0    0 -0.42282381036E+02  0.38095126595E+02  0.42239524410E+03  0.42621213105E+03  0.00000000000E+00 0. -1.
         -5    1    3    3    0  503 -0.23953291771E+02  0.12725307221E+01  0.20018392030E+02  0.31594390967E+02  0.47000000000E+01 0.  1.
         13    1    4    4    0    0  0.70412444642E+02 -0.32067352812E+02  0.26429085732E+03  0.27538315987E+03  0.00000000000E+00 0. -1.
        -14    1    4    4    0    0  0.51526671185E+02  0.28881002579E+02  0.43517208091E+03  0.43916266936E+03  0.00000000000E+00 0.  1.
</event>
<event>
12    1  0.1598254E-001  0.1898483E+03  0.7818608E-02  0.1159261E+00
         21   -1    0    0  503  502  0.00000000000E+00  0.00000000000E+00  0.76929895356E+03  0.76929895356E+03  0.00000000000E+00 0.  1.
         21   -1    0    0  501  503 -0.00000000000E+00 -0.00000000000E+00 -0.75822901062E+02  0.75822901062E+02  0.00000000000E+00 0.  1.
          6    2    1    2  501    0 -0.87209745290E+02  0.19696336834E+02  0.83962688163E+02  0.20758641650E+03  0.16747806409E+03 0.  0.
         24    2    3    3    0    0 -0.28932937567E+02  0.61542673212E+02  0.11298977390E+02  0.10536407525E+03  0.79682532347E+02 0.  0.
         -6    2    1    2    0  502  0.87209745290E+02 -0.19696336834E+02  0.60951336433E+03  0.63753543812E+03  0.16416884054E+03 0.  0.
        -24    2    5    5    0    0  0.59346826701E+02 -0.35568328992E+02  0.19450024242E+03  0.22125879485E+03  0.79611294008E+02 0.  0.
          5    1    3    3  501    0 -0.58276807723E+02 -0.41846336377E+02  0.72663710774E+02  0.10222234125E+03  0.47000000000E+01 0. -1.
        -11    1    4    4    0    0 -0.36827017168E+02  0.77063566258E+02  0.15867944898E+01  0.85425642254E+02  0.00000000000E+00 0.  1.
         12    1    4    4    0    0  0.78940796005E+01 -0.15520893046E+02  0.97121828998E+01  0.19938432997E+02  0.00000000000E+00 0. -1.
         -5    1    5    5    0  502  0.27862918590E+02  0.15871992158E+02  0.41501312192E+03  0.41627664327E+03  0.47000000000E+01 0.  1.
         13    1    6    6    0    0  0.48124046654E+02 -0.40559357233E+02  0.19858136403E+03  0.20831597026E+03  0.00000000000E+00 0. -1.
        -14    1    6    6    0    0  0.11222780046E+02  0.49910282402E+01 -0.40811216132E+01  0.12942824594E+02  0.00000000000E+00 0.  1.
</event>
<event>
12    1  0.1598254E-001  0.5387507E+03  0.7818608E-02  0.1004141E+00
         21   -1    0    0  503  502  0.00000000000E+00  0.00000000000E+00  0.17753637767E+04  0.17753637767E+04  0.00000000000E+00 0. -1.
         21   -1    0    0  501  503 -0.00000000000E+00 -0.00000000000E+00 -0.44938140500E+03  0.44938140500E+03  0.00000000000E+00 0.  1.
          6    2    1    2  501    0 -0.42968831457E+03  0.27558807988E+03 -0.22436168053E+03  0.58345941179E+03  0.17177276869E+03 0.  0.
         24    2    3    3    0    0 -0.22584452150E+03  0.20805139942E+03 -0.88675613369E+02  0.32939978493E+03  0.79685137953E+02 0.  0.
         -6    2    1    2    0  502  0.42968831457E+03 -0.27558807988E+03  0.15503440522E+04  0.16412857699E+04  0.17225405872E+03 0.  0.
        -24    2    5    5    0    0  0.32421081416E+03 -0.15566466073E+03  0.12174299967E+04  0.12720148830E+04  0.80882180047E+02 0.  0.
          5    1    3    3  501    0 -0.20384379307E+03  0.67536680464E+02 -0.13568606716E+03  0.25405962687E+03  0.47000000000E+01 0. -1.
        -11    1    4    4    0    0 -0.16966459452E+03  0.10837803967E+03 -0.41050016189E+02  0.20546770536E+03  0.00000000000E+00 0.  1.
         12    1    4    4    0    0 -0.56179926981E+02  0.99673359745E+02 -0.47625597180E+02  0.12393207957E+03  0.00000000000E+00 0. -1.
         -5    1    5    5    0  502  0.10547750041E+03 -0.11992341915E+03  0.33291405548E+03  0.36927088687E+03  0.47000000000E+01 0.  1.
         11    1    6    6    0    0  0.24810338946E+03 -0.12502040654E+03  0.80754009396E+03  0.85399437777E+03  0.00000000000E+00 0. -1.
        -12    1    6    6    0    0  0.76107424703E+02 -0.30644254192E+02  0.40988990277E+03  0.41802050524E+03  0.00000000000E+00 0.  1.
</event>
<event>
12    1  0.1598254E-001  0.1920341E+03  0.7818608E-02  0.1157358E+00
         21   -1    0    0  501  502  0.00000000000E+00  0.00000000000E+00  0.47030287107E+03  0.47030287107E+03  0.00000000000E+00 0.  1.
         21   -1    0    0  502  503 -0.00000000000E+00 -0.00000000000E+00 -0.12470681680E+03  0.12470681680E+03  0.00000000000E+00 0.  1.
         -6    2    1    2    0  503  0.40662246642E+02 -0.67393584554E+02 -0.10097353423E+02  0.19229938945E+03  0.17516216799E+03 0.  0.
        -24    2    3    3    0    0 -0.13400925920E+02 -0.12820722545E+01  0.43265905776E+02  0.91486264714E+02  0.79476848855E+02 0.  0.
          6    2    1    2  501    0 -0.40662246642E+02  0.67393584554E+02  0.35569340770E+03  0.40271029843E+03  0.17164635342E+03 0.  0.
         24    2    5    5    0    0 -0.32446263348E+02  0.96736742553E+02  0.34785335396E+03  0.37089709762E+03  0.78434327932E+02 0.  0.
          5    1    5    5  501    0 -0.82159832939E+01 -0.29343157999E+02  0.78400537321E+01  0.31813200803E+02  0.47000000000E+01 0. -1.
        -11    1    6    6    0    0  0.62104713024E+01  0.70608320430E+02  0.12964762895E+03  0.14775862940E+03  0.00000000000E+00 0.  1.
         12    1    6    6    0    0 -0.38656734651E+02  0.26128422123E+02  0.21820572501E+03  0.22313846823E+03  0.00000000000E+00 0. -1.
         -5    1    3    3    0  503  0.54063172562E+02 -0.66111512300E+02 -0.53363259200E+02  0.10081312473E+03  0.47000000000E+01 0.  1.
         11    1    4    4    0    0 -0.24967898920E+02  0.20493598392E+02 -0.91398355934E+01  0.33569631309E+02  0.00000000000E+00 0. -1.
        -12    1    4    4    0    0  0.11566973000E+02 -0.21775670646E+02  0.52405741370E+02  0.57916633405E+02  0.00000000000E+00 0.  1.
</event>
<event>
12    1  0.1598254E-001  0.2918705E+03  0.7818608E-02  0.1089405E+00
         21   -1    0    0  503  502  0.00000000000E+00  0.00000000000E+00  0.92262099991E+03  0.92262099991E+03  0.00000000000E+00 0.  1.
         21   -1    0    0  501  503 -0.00000000000E+00 -0.00000000000E+00 -0.15209750068E+03  0.15209750068E+03  0.00000000000E+00 0. -1.
          6    2    1    2  501    0  0.16981450672E+03 -0.16232822029E+03  0.48141827575E+02  0.29560125628E+03  0.17284400294E+03 0.  0.
         24    2    3    3    0    0  0.10757794109E+03 -0.18144153427E+03  0.48943384228E+02  0.23032153994E+03  0.78476194684E+02 0.  0.
         -6    2    1    2    0  502 -0.16981450672E+03  0.16232822029E+03  0.72238167165E+03  0.77911724431E+03  0.17320791856E+03 0.  0.
        -24    2    5    5    0    0 -0.67839627543E+02  0.14071172197E+02  0.18756357909E+03  0.21481988438E+03  0.78531990760E+02 0.  0.
          5    1    3    3  501    0  0.62236565629E+02  0.19113313975E+02 -0.80155665316E+00  0.65279716340E+02  0.47000000000E+01 0. -1.
        -13    1    4    4    0    0  0.58269293849E+02 -0.39026831460E+02  0.36600853537E+02  0.79107690266E+02  0.00000000000E+00 0.  1.
         14    1    4    4    0    0  0.49308647244E+02 -0.14241470280E+03  0.12342530691E+02  0.15121384967E+03  0.00000000000E+00 0. -1.
         -5    1    5    5    0  502 -0.10197487918E+03  0.14825704809E+03  0.53481809256E+03  0.56429735993E+03  0.47000000000E+01 0.  1.
         13    1    6    6    0    0 -0.46901832554E+02  0.15763008055E+01  0.18434651622E+03  0.19022593058E+03  0.00000000000E+00 0. -1.
        -14    1    6    6    0    0 -0.20937794989E+02  0.12494871392E+02  0.32170628652E+01  0.24593953801E+02  0.00000000000E+00 0.  1.
</event>
<event>
12    1  0.1598254E-001  0.2389968E+03  0.7818608E-02  0.1120571E+00
         21   -1    0    0  501  502  0.00000000000E+00  0.00000000000E+00  0.70843732166E+02  0.70843732166E+02  0.00000000000E+00 0.  1.
         21   -1    0    0  502  503 -0.00000000000E+00 -0.00000000000E+00 -0.17079271743E+04  0.17079271743E+04  0.00000000000E+00 0.  1.
         -6    2    1    2    0  503 -0.42842638025E+02  0.15910832213E+03 -0.14650102784E+04  0.14842736155E+04  0.17222688523E+03 0.  0.
        -24    2    3    3    0    0  0.88873081118E+01  0.15044782471E+02 -0.39926207340E+03  0.40757885035E+03  0.80031158170E+02 0.  0.
          6    2    1    2  501    0  0.42842638025E+02 -0.15910832213E+03 -0.17207316375E+03  0.29449729100E+03  0.17311421352E+03 0.  0.
         24    2    5    5    0    0 -0.28209497284E+02 -0.88556701394E+02 -0.14999784507E+03  0.19185545346E+03  0.75306682289E+02 0.  0.
          5    1    5    5  501    0  0.71052135309E+02 -0.70551620734E+02 -0.22075318687E+02  0.10264183755E+03  0.47000000000E+01 0. -1.
        -13    1    6    6    0    0  0.20493671214E+02 -0.96975707029E+01 -0.12088618161E+02  0.25693737105E+02  0.00000000000E+00 0.  1.
         14    1    6    6    0    0 -0.48703168498E+02 -0.78859130691E+02 -0.13790922691E+03  0.16616171635E+03  0.00000000000E+00 0. -1.
         -5    1    3    3    0  503 -0.51729946137E+02  0.14406353966E+03 -0.10657482050E+04  0.10766947651E+04  0.47000000000E+01 0.  1.
         11    1    4    4    0    0 -0.16364696781E+02  0.26737563389E+02 -0.65041477525E+02  0.72201761719E+02  0.00000000000E+00 0. -1.
        -12    1    4    4    0    0  0.25252004893E+02 -0.11692780917E+02 -0.33422059587E+03  0.33537708864E+03  0.00000000000E+00 0.  1.
</event>
<event>
12    1  0.1598254E-001  0.1833860E+03  0.7818608E-02  0.1166777E+00
         21   -1    0    0  501  502  0.00000000000E+00  0.00000000000E+00  0.18199869120E+03  0.18199869120E+03  0.00000000000E+00 0.  1.
         21   -1    0    0  502  503 -0.00000000000E+00 -0.00000000000E+00 -0.34384350066E+03  0.34384350066E+03  0.00000000000E+00 0.  1.
         -6    2    1    2    0  503 -0.15278127567E+02 -0.48812037383E+01 -0.26579555992E+03  0.32292058467E+03  0.18268326962E+03 0.  0.
        -24    2    3    3    0    0 -0.18511706048E+02 -0.61399160280E+02 -0.23893419579E+03  0.26008462105E+03  0.80261572649E+02 0.  0.
          6    2    1    2  501    0  0.15278127567E+02  0.48812037383E+01  0.10395075046E+03  0.20292160719E+03  0.17353435628E+03 0.  0.
         24    2    5    5    0    0  0.20843828747E+02 -0.42160690090E+02  0.47932763319E+01  0.92929737125E+02  0.80006072010E+02 0.  0.
          5    1    5    5  501    0 -0.55657011802E+01  0.47041893829E+02  0.99157474124E+02  0.10999187006E+03  0.47000000000E+01 0. -1.
        -13    1    6    6    0    0 -0.27012746960E+02 -0.17456232463E+02 -0.15081526910E+02  0.35522682951E+02  0.00000000000E+00 0.  1.
         14    1    6    6    0    0  0.47856575707E+02 -0.24704457628E+02  0.19874803242E+02  0.57407054174E+02  0.00000000000E+00 0. -1.
         -5    1    3    3    0  503  0.32335784810E+01  0.56517956541E+02 -0.26861364124E+02  0.62835963620E+02  0.47000000000E+01 0.  1.
         11    1    4    4    0    0 -0.20896147975E+02 -0.44126292619E+02 -0.48379921192E+02  0.68734238012E+02  0.00000000000E+00 0. -1.
        -12    1    4    4    0    0  0.23844419274E+01 -0.17272867661E+02 -0.19055427460E+03  0.19135038304E+03  0.00000000000E+00 0.  1.
</event>
<event>
12    1  0.1598254E-001  0.2131411E+03  0.7818608E-02  0.1139675E+00
         21   -1    0    0  501  502  0.00000000000E+00  0.00000000000E+00  0.71737201699E+03  0.71737201699E+03  0.00000000000E+00 0. -1.
         21   -1    0    0  502  503 -0.00000000000E+00 -0.00000000000E+00 -0.11293011030E+03  0.11293011030E+03  0.00000000000E+00 0. -1.
         -6    2    1    2    0  503  0.67405377508E+02  0.10564448042E+03  0.25846663710E+02  0.21470250374E+03  0.17240903088E+03 0.  0.
        -24    2    3    3    0    0  0.62554201636E+02  0.10794108549E+03  0.74377452963E+02  0.16565012554E+03  0.79647049543E+02 0.  0.
          6    2    1    2  501    0 -0.67405377508E+02 -0.10564448042E+03  0.57859524298E+03  0.61559962354E+03  0.16877855356E+03 0.  0.
         24    2    5    5    0    0 -0.19905355116E+02  0.10878054798E+02  0.19980609754E+03  0.21642915864E+03  0.80028425318E+02 0.  0.
          5    1    5    5  501    0 -0.47500022392E+02 -0.11652253522E+03  0.37878914545E+03  0.39917046490E+03  0.47000000000E+01 0. -1.
        -13    1    6    6    0    0 -0.26447376097E+02 -0.95809291010E+01  0.19125113632E+03  0.19330870401E+03  0.00000000000E+00 0.  1.
         14    1    6    6    0    0  0.65420209811E+01  0.20458983899E+02  0.85549612181E+01  0.23120454627E+02  0.00000000000E+00 0. -1.
         -5    1    3    3    0  503  0.48511758713E+01 -0.22966050738E+01 -0.48530789253E+02  0.49052378207E+02  0.47000000000E+01 0.  1.
         13    1    4    4    0    0 -0.16901039335E+02  0.33497436822E+02  0.87707156153E+01  0.38531141388E+02  0.00000000000E+00 0. -1.
        -14    1    4    4    0    0  0.79455240972E+02  0.74443648672E+02  0.65606737347E+02  0.12711898415E+03  0.00000000000E+00 0.  1.
</event>
<event>
12    1  0.1598254E-001  0.1978020E+03  0.7818608E-02  0.1152027E+00
         21   -1    0    0  503  502  0.00000000000E+00  0.00000000000E+00  0.25900713406E+02  0.25900713406E+02  0.00000000000E+00 0. -1.
         21   -1    0    0  501  503 -0.00000000000E+00 -0.00000000000E+00 -0.24405245343E+04  0.24405245343E+04  0.00000000000E+00 0. -1.
          6    2    1    2  501    0  0.98059705214E+02 -0.15719236094E+01 -0.19782721686E+04  0.19881364121E+04  0.17177730759E+03 0.  0.
         24    2    3    3    0    0  0.12589333729E+02  0.20972090821E+02 -0.46729421705E+03  0.47456782197E+03  0.79072197718E+02 0.  0.
         -6    2    1    2    0  502 -0.98059705214E+02  0.15719236094E+01 -0.43635165231E+03  0.47828883560E+03  0.16952660280E+03 0.  0.
        -24    2    5    5    0    0 -0.63626229780E+02  0.50882850111E+02 -0.38267977137E+03  0.39754236505E+03  0.70418485084E+02 0.  0.
          5    1    3    3  501    0  0.85470371485E+02 -0.22544014431E+02 -0.15109779516E+04  0.15135685901E+04  0.47000000000E+01 0. -1.
        -13    1    4    4    0    0 -0.26501447428E+02  0.18265675567E+02 -0.33634834441E+03  0.33788484785E+03  0.00000000000E+00 0.  1.
         14    1    4    4    0    0  0.39090781157E+02  0.27064152539E+01 -0.13094587264E+03  0.13668297412E+03  0.00000000000E+00 0. -1.
         -5    1    5    5    0  502 -0.34433475434E+02 -0.49310926502E+02 -0.53671880934E+02  0.80746470548E+02  0.47000000000E+01 0.  1.
         13    1    6    6    0    0 -0.54281391019E+02  0.17829787614E-01 -0.16078380834E+03  0.16969944830E+03  0.00000000000E+00 0. -1.
        -14    1    6    6    0    0 -0.93448387615E+01  0.50865020324E+02 -0.22189596303E+03  0.22784291675E+03  0.00000000000E+00 0.  1.
</event>
<event>
12    1  0.1598254E-001  0.2914253E+03  0.7818608E-02  0.1089834E+00
         21   -1    0    0  503  502  0.00000000000E+00  0.00000000000E+00  0.36201560533E+03  0.36201560533E+03  0.00000000000E+00 0. -1.
         21   -1    0    0  501  503 -0.00000000000E+00 -0.00000000000E+00 -0.30180409401E+03  0.30180409401E+03  0.00000000000E+00 0.  1.
          6    2    1    2  501    0 -0.23200682462E+03  0.32663153933E+02 -0.12806995521E+03  0.31832468063E+03  0.17330505064E+03 0.  0.
         24    2    3    3    0    0 -0.70749486732E+02  0.67344627683E+02 -0.74746239349E+02  0.14491117967E+03  0.76625458857E+02 0.  0.
         -6    2    1    2    0  502  0.23200682462E+03 -0.32663153933E+02  0.18828146653E+03  0.34549501870E+03  0.17036093746E+03 0.  0.
        -24    2    5    5    0    0  0.22739356584E+03 -0.21443613732E-01  0.19821524313E+03  0.31074543846E+03  0.74603020527E+02 0.  0.
          5    1    3    3  501    0 -0.16125733789E+03 -0.34681473750E+02 -0.53323715863E+02  0.17341350097E+03  0.47000000000E+01 0. -1.
        -11    1    4    4    0    0 -0.45776641402E+02  0.20518238655E+01 -0.48869314505E+01  0.46082458466E+02  0.00000000000E+00 0.  1.
         12    1    4    4    0    0 -0.24972845330E+02  0.65292803818E+02 -0.69859307899E+02  0.98828721202E+02  0.00000000000E+00 0. -1.
         -5    1    5    5    0  502  0.46132587819E+01 -0.32641710319E+02 -0.99337766016E+01  0.34749580238E+02  0.47000000000E+01 0.  1.
         11    1    6    6    0    0  0.38623642251E+02 -0.13531715063E+02  0.66513521709E+01  0.41462435276E+02  0.00000000000E+00 0. -1.
        -12    1    6    6    0    0  0.18876992359E+03  0.13510271449E+02  0.19156389096E+03  0.26928300319E+03  0.00000000000E+00 0.  1.
</event>
<event>
12    1  0.1598254E-001  0.3027887E+03  0.7818608E-02  0.1083914E+00
         21   -1    0    0  501  502  0.00000000000E+00  0.00000000000E+00  0.50686327882E+03  0.50686327882E+03  0.00000000000E+00 0.  1.
         21   -1    0    0  502  503 -0.00000000000E+00 -0.00000000000E+00 -0.18156802798E+03  0.18156802798E+03  0.00000000000E+00 0. -1.
         -6    2    1    2    0  503  0.16853924680E+03  0.18316683379E+03  0.13728077644E+03  0.33201799424E+03  0.17156447829E+03 0.  0.
        -24    2    3    3    0    0  0.16560905793E+03  0.17507785791E+03  0.16509384350E+03  0.30252775455E+03  0.78666693808E+02 0.  0.
          6    2    1    2  501    0 -0.16853924680E+03 -0.18316683379E+03  0.18801447441E+03  0.35641331255E+03  0.17241067271E+03 0.  0.
         24    2    5    5    0    0 -0.52963831764E+02 -0.54853851816E+02  0.13735209251E+03  0.17638369042E+03  0.80196610874E+02 0.  0.
          5    1    5    5  501    0 -0.11557541504E+03 -0.12831298198E+03  0.50662381898E+02  0.18002962213E+03  0.47000000000E+01 0. -1.
        -13    1    6    6    0    0 -0.56838876922E+02 -0.52532702666E+02  0.57537071312E+02  0.96440952683E+02  0.00000000000E+00 0.  1.
         14    1    6    6    0    0  0.38750451581E+01 -0.23211491499E+01  0.79815021199E+02  0.79942737740E+02  0.00000000000E+00 0. -1.
         -5    1    3    3    0  503  0.29301888670E+01  0.80889758800E+01 -0.27813067062E+02  0.29490239691E+02  0.47000000000E+01 0.  1.
         11    1    4    4    0    0  0.24696331794E+01  0.11577582526E+02 -0.76596399412E+01  0.14099985433E+02  0.00000000000E+00 0. -1.
        -12    1    4    4    0    0  0.16313942475E+03  0.16350027539E+03  0.17275348344E+03  0.28842776912E+03  0.00000000000E+00 0.  1.
</event>
<event>
12    1  0.1598254E-001  0.1771266E+03  0.7818608E-02  0.1171724E+00
         21   -1    0    0  503  502  0.00000000000E+00  0.00000000000E+00  0.29754770623E+03  0.29754770623E+03  0.00000000000E+00 0.  1.
         21   -1    0    0  501  503 -0.00000000000E+00 -0.00000000000E+00 -0.15824339852E+03  0.15824339852E+03  0.00000000000E+00 0.  1.
          6    2    1    2  501    0 -0.79173280939E+01 -0.21770092618E+02 -0.64641030506E+02  0.18855316657E+03  0.17560527549E+03 0.  0.
         24    2    3    3    0    0 -0.44605305571E+02  0.38416212766E+02 -0.15063614756E+01  0.93808902992E+02  0.73023300852E+02 0.  0.
         -6    2    1    2    0  502  0.79173280939E+01  0.21770092618E+02  0.20394533822E+03  0.26723793818E+03  0.17113092533E+03 0.  0.
        -24    2    5    5    0    0  0.49853332690E+02  0.43518873334E+02  0.71172882253E+02  0.12623349496E+03  0.80560964280E+02 0.  0.
          5    1    3    3  501    0  0.36687977477E+02 -0.60186305384E+02 -0.63134669031E+02  0.94744263577E+02  0.47000000000E+01 0. -1.
        -11    1    4    4    0    0  0.52657644289E+00  0.61523418162E+01 -0.30563997828E+02  0.31181509839E+02  0.00000000000E+00 0.  1.
         12    1    4    4    0    0 -0.45131882013E+02  0.32263870950E+02  0.29057636353E+02  0.62627393153E+02  0.00000000000E+00 0. -1.
         -5    1    5    5    0  502 -0.41936004596E+02 -0.21748780716E+02  0.13277245597E+03  0.14100444322E+03  0.47000000000E+01 0.  1.
         11    1    6    6    0    0  0.44515814306E+02  0.63961072768E+02  0.70515513694E+02  0.10509573837E+03  0.00000000000E+00 0. -1.
        -12    1    6    6    0    0  0.53375183845E+01 -0.20442199433E+02  0.65736855900E+00  0.21137756589E+02  0.00000000000E+00 0.  1.
</event>
<event>
12    1  0.1598254E-001  0.2650125E+03  0.7818608E-02  0.1104172E+00
         21   -1    0    0  501  502  0.00000000000E+00  0.00000000000E+00  0.36840754132E+02  0.36840754132E+02  0.00000000000E+00 0. -1.
         21   -1    0    0  502  503 -0.00000000000E+00 -0.00000000000E+00 -0.21372455109E+04  0.21372455109E+04  0.00000000000E+00 0.  1.
         -6    2    1    2    0  503 -0.17549370407E+03  0.99215639542E+02 -0.14076537386E+04  0.14323828733E+04  0.17201704744E+03 0.  0.
        -24    2    3    3    0    0 -0.47395148383E+02 -0.13736757676E+02 -0.45603801279E+03  0.46555193481E+03  0.79579747994E+02 0.  0.
          6    2    1    2  501    0  0.17549370407E+03 -0.99215639542E+02 -0.69275101823E+03  0.74170339180E+03  0.17198303652E+03 0.  0.
         24    2    5    5    0    0  0.38315694085E+02 -0.11597612790E+02 -0.36070944981E+03  0.37188124780E+03  0.81128036125E+02 0.  0.
          5    1    5    5  501    0  0.13717800999E+03 -0.87618026752E+02 -0.33204156842E+03  0.36982214400E+03  0.47000000000E+01 0. -1.
        -13    1    6    6    0    0  0.25821651409E+02  0.31655332332E+02 -0.11401997678E+03  0.12111718644E+03  0.00000000000E+00 0.  1.
         14    1    6    6    0    0  0.12494042676E+02 -0.43252945122E+02 -0.24668947303E+03  0.25076406135E+03  0.00000000000E+00 0. -1.
         -5    1    3    3    0  503 -0.12809855569E+03  0.11295239722E+03 -0.95161572579E+03  0.96683093847E+03  0.47000000000E+01 0.  1.
         13    1    4    4    0    0 -0.41213589163E-01  0.15226166194E+02 -0.29160676720E+03  0.29200401455E+03  0.00000000000E+00 0. -1.
        -14    1    4    4    0    0 -0.47353934794E+02 -0.28962923870E+02 -0.16443124559E+03  0.17354792026E+03  0.00000000000E+00 0.  1.
</event>
<event>
12    1  0.1598254E-001  0.1895226E+03  0.7818608E-02  0.1159383E+00
         21   -1    0    0  503  502  0.00000000000E+00  0.00000000000E+00  0.12366107396E+03  0.12366107396E+03  0.00000000000E+00 0. -1.
         21   -1    0    0  501  503 -0.00000000000E+00 -0.00000000000E+00 -0.29080635494E+03  0.29080635494E+03  0.00000000000E+00 0.  1.
          6    2    1    2  501    0  0.33959000340E+02  0.60219780954E+02 -0.10626654819E+03  0.21540701078E+03  0.17414926158E+03 0.  0.
         24    2    3    3    0    0  0.88133338891E+02  0.34347537818E+02 -0.93208448808E+02  0.15378854048E+03  0.77561984742E+02 0.  0.
         -6    2    1    2    0  502 -0.33959000340E+02 -0.60219780954E+02 -0.60878732793E+02  0.19906041812E+03  0.17646301096E+03 0.  0.
        -24    2    5    5    0    0 -0.28958907697E+02 -0.10900520864E+03 -0.38423044540E+02  0.14491831975E+03  0.82487788195E+02 0.  0.
          5    1    3    3  501    0 -0.54174338550E+02  0.25872243136E+02 -0.13058099379E+02  0.61618470296E+02  0.47000000000E+01 0. -1.
        -11    1    4    4    0    0  0.47068218471E+02 -0.15761710803E+02 -0.14228658166E+02  0.51636260812E+02  0.00000000000E+00 0.  1.
         12    1    4    4    0    0  0.41065120420E+02  0.50109248621E+02 -0.78979790643E+02  0.10215227967E+03  0.00000000000E+00 0. -1.
         -5    1    5    5    0  502 -0.50000926433E+01  0.48785427690E+02 -0.22455688253E+02  0.54142098374E+02  0.47000000000E+01 0.  1.
         13    1    6    6    0    0 -0.26387234727E+02 -0.27517599494E+02  0.21470350254E+02  0.43754775493E+02  0.00000000000E+00 0. -1.
        -14    1    6    6    0    0 -0.25716729701E+01 -0.81487609150E+02 -0.59893394794E+02  0.10116354426E+03  0.00000000000E+00 0.  1.
</event>
<event>
12    1  0.1598254E-001  0.1909057E+03  0.7818608E-02  0.1157803E+00
         21   -1    0    0  503  502  0.00000000000E+00  0.00000000000E+00  0.50026458502E+03  0.50026458502E+03  0.00000000000E+00 0.  1.
         21   -1    0    0  501  503 -0.00000000000E+00 -0.00000000000E+00 -0.73166806537E+02  0.73166806537E+02  0.00000000000E+00 0. -1.
          6    2    1    2  501    0  0.79616910114E+02  0.18216742653E+02  0.23869989932E+03  0.30521742709E+03  0.17178280990E+03 0.  0.
         24    2    3    3    0    0  0.26485165469E+02  0.78740940208E+02  0.12831538538E+03  0.16849511108E+03  0.70881342232E+02 0.  0.
         -6    2    1    2    0  502 -0.79616910114E+02 -0.18216742653E+02  0.18839787916E+03  0.26821396447E+03  0.17255221752E+03 0.  0.
        -24    2    5    5    0    0 -0.42189211990E+02 -0.13328618013E+02  0.20797602431E+03  0.22543406128E+03  0.74892640689E+02 0.  0.
          5    1    3    3  501    0  0.53131744644E+02 -0.60524197555E+02  0.11038451394E+03  0.13672231601E+03  0.47000000000E+01 0. -1.
        -11    1    4    4    0    0 -0.83537375716E+01  0.34228759863E+02  0.88436227217E+01  0.36326334745E+02  0.00000000000E+00 0.  1.
         12    1    4    4    0    0  0.34838903041E+02  0.44512180345E+02  0.11947176266E+03  0.13216877633E+03  0.00000000000E+00 0. -1.
         -5    1    5    5    0  502 -0.37427698124E+02 -0.48881246391E+01 -0.19578145148E+02  0.42779903188E+02  0.47000000000E+01 0.  1.
         11    1    6    6    0    0  0.17966224209E+02  0.17085137005E+00  0.95445022115E+02  0.97121401601E+02  0.00000000000E+00 0. -1.
        -12    1    6    6    0    0 -0.60155436199E+02 -0.13499469384E+02  0.11253100220E+03  0.12831265968E+03  0.00000000000E+00 0.  1.
</event>
<event>
12    1  0.1598254E-001  0.1983196E+03  0.7818608E-02  0.1152232E+00
         21   -1    0    0  503  502  0.00000000000E+00  0.00000000000E+00  0.24538803433E+03  0.24538803433E+03  0.00000000000E+00 0. -1.
         21   -1    0    0  501  503 -0.00000000000E+00 -0.00000000000E+00 -0.17020950992E+03  0.17020950992E+03  0.00000000000E+00 0. -1.
          6    2    1    2  501    0 -0.80970745120E+02  0.54717976946E+02  0.97395504230E+02  0.22094468482E+03  0.17256984365E+03 0.  0.
         24    2    3    3    0    0 -0.62431467605E+02 -0.52248285846E+01  0.11538341959E+03  0.15550387305E+03  0.83325470509E+02 0.  0.
         -6    2    1    2    0  502  0.80970745120E+02 -0.54717976946E+02 -0.22216979817E+02  0.19465285943E+03  0.16687067725E+03 0.  0.
        -24    2    5    5    0    0  0.88583385302E+02 -0.92791005783E+02 -0.23018524195E+01  0.15076424912E+03  0.79166744172E+02 0.  0.
          5    1    3    3  501    0 -0.18539277514E+02  0.59942805530E+02 -0.17987915362E+02  0.65440811766E+02  0.47000000000E+01 0. -1.
        -11    1    4    4    0    0  0.20735081648E+02 -0.80155211324E+00  0.19158383748E+02  0.28242339927E+02  0.00000000000E+00 0.  1.
         12    1    4    4    0    0 -0.83166549253E+02 -0.44232764713E+01  0.96225035843E+02  0.12726153312E+03  0.00000000000E+00 0. -1.
         -5    1    5    5    0  502 -0.76126401821E+01  0.38073028837E+02 -0.19915127397E+02  0.43888610307E+02  0.47000000000E+01 0.  1.
         11    1    6    6    0    0  0.68962589072E+02 -0.15508315562E+02  0.38741086113E+01  0.70790926400E+02  0.00000000000E+00 0. -1.
        -12    1    6    6    0    0  0.19620796230E+02 -0.77282690221E+02 -0.61759610309E+01  0.79973322721E+02  0.00000000000E+00 0.  1.
</event>
<event>
12    1  0.1598254E-001  0.2224744E+03  0.7818608E-02  0.1132072E+00
         21   -1    0    0  503  502  0.00000000000E+00  0.00000000000E+00  0.85608591100E+03  0.85608591100E+03  0.00000000000E+00 0.  1.
         21   -1    0    0  501  503 -0.00000000000E+00 -0.00000000000E+00 -0.58700519142E+02  0.58700519142E+02  0.00000000000E+00 0. -1.
          6    2    1    2  501    0 -0.37040873132E+02 -0.13624071116E+03  0.34173375203E+03  0.40777053652E+03  0.17193398592E+03 0.  0.
         24    2    3    3    0    0 -0.73783867534E+02 -0.11740740226E+03  0.32647626402E+03  0.36350291740E+03  0.79492532841E+02 0.  0.
         -6    2    1    2    0  502  0.37040873132E+02  0.13624071116E+03  0.45565163983E+03  0.50701589363E+03  0.17179389353E+03 0.  0.
        -24    2    5    5    0    0  0.43962167588E+02  0.16362367151E+03  0.42689978822E+03  0.46643893212E+03  0.81341687681E+02 0.  0.
          5    1    3    3  501    0  0.36742994402E+02 -0.18833308896E+02  0.15257488008E+02  0.44267619112E+02  0.47000000000E+01 0. -1.
        -11    1    4    4    0    0  0.10341021125E+02 -0.66813209430E+01  0.76210077334E+02  0.77198138933E+02  0.00000000000E+00 0.  1.
         12    1    4    4    0    0 -0.84124888659E+02 -0.11072608132E+03  0.25026618669E+03  0.28630477847E+03  0.00000000000E+00 0. -1.
         -5    1    5    5    0  502 -0.69212944555E+01 -0.27382960350E+02  0.28751851608E+02  0.40576961510E+02  0.47000000000E+01 0.  1.
         11    1    6    6    0    0 -0.17710074617E+02  0.64867168607E+02  0.11115386961E+03  0.12990988813E+03  0.00000000000E+00 0. -1.
        -12    1    6    6    0    0  0.61672242204E+02  0.98756502900E+02  0.31574591862E+03  0.33652904399E+03  0.00000000000E+00 0.  1.
</event>
<event>
12    1  0.1598254E-001  0.2083924E+03  0.7818608E-02  0.1143292E+00
         21   -1    0    0  503  502  0.00000000000E+00  0.00000000000E+00  0.10769378703E+03  0.10769378703E+03  0.00000000000E+00 0.  1.
         21   -1    0    0  501  503 -0.00000000000E+00 -0.00000000000E+00 -0.49498308977E+03  0.49498308977E+03  0.00000000000E+00 0.  1.
          6    2    1    2  501    0 -0.11735448987E+03  0.25387340626E+01 -0.32720211014E+03  0.38792860673E+03  0.17218844786E+03 0.  0.
         24    2    3    3    0    0 -0.13766133019E+03 -0.29631264151E+02 -0.29996504776E+03  0.34090495188E+03  0.80053124187E+02 0.  0.
         -6    2    1    2    0  502  0.11735448987E+03 -0.25387340626E+01 -0.60087192601E+02  0.21474827008E+03  0.16949285331E+03 0.  0.
        -24    2    5    5    0    0  0.42870301371E+02  0.41578038173E+02 -0.59534986112E+02  0.12805006444E+03  0.96362899673E+02 0.  0.
          5    1    3    3  501    0  0.20306840318E+02  0.32169998214E+02 -0.27237062378E+02  0.47023654854E+02  0.47000000000E+01 0. -1.
        -11    1    4    4    0    0 -0.50828406423E+02 -0.49045583474E+02 -0.10438552830E+03  0.12603703692E+03  0.00000000000E+00 0.  1.
         12    1    4    4    0    0 -0.86832923766E+02  0.19414319323E+02 -0.19557951946E+03  0.21486791496E+03  0.00000000000E+00 0. -1.
         -5    1    5    5    0  502  0.74484188501E+02 -0.44116772235E+02 -0.55220648858E+00  0.86698205639E+02  0.47000000000E+01 0.  1.
         13    1    6    6    0    0 -0.28229044603E+02  0.11483320923E+02 -0.36355893335E+02  0.47439399224E+02  0.00000000000E+00 0. -1.
        -14    1    6    6    0    0  0.71099345974E+02  0.30094717250E+02 -0.23179092777E+02  0.80610665214E+02  0.00000000000E+00 0.  1.
</event>
<event>
12    1  0.1598254E-001  0.1824970E+03  0.7818608E-02  0.1165766E+00
         21   -1    0    0  503  502  0.00000000000E+00  0.00000000000E+00  0.75899528592E+03  0.75899528592E+03  0.00000000000E+00 0. -1.
         21   -1    0    0  501  503 -0.00000000000E+00 -0.00000000000E+00 -0.11499704249E+03  0.11499704249E+03  0.00000000000E+00 0. -1.
          6    2    1    2  501    0  0.71921855342E+01 -0.62864160421E+02 -0.22017614976E+02  0.18382039708E+03  0.17117690503E+03 0.  0.
         24    2    3    3    0    0 -0.59212160272E+02 -0.40191424790E+02  0.22407614754E+02  0.10063818071E+03  0.67115658887E+02 0.  0.
         -6    2    1    2    0  502 -0.71921855342E+01  0.62864160421E+02  0.66601585840E+03  0.69017193133E+03  0.16957753670E+03 0.  0.
        -24    2    5    5    0    0  0.85877646585E+01  0.44671789269E+02  0.65740406875E+03  0.66416766020E+03  0.82880955480E+02 0.  0.
          5    1    3    3  501    0  0.66404345806E+02 -0.22672735631E+02 -0.44425229731E+02  0.83182216366E+02  0.47000000000E+01 0. -1.
        -13    1    4    4    0    0  0.12899854260E+02 -0.15589081602E+01  0.12848002052E+02  0.18273138518E+02  0.00000000000E+00 0.  1.
         14    1    4    4    0    0 -0.72112014532E+02 -0.38632516629E+02  0.95596127025E+01  0.82365042196E+02  0.00000000000E+00 0. -1.
         -5    1    5    5    0  502 -0.15779950193E+02  0.18192371152E+02  0.86117896519E+01  0.26004271134E+02  0.47000000000E+01 0.  1.
         11    1    6    6    0    0 -0.18248465485E+02  0.59972372181E+02  0.48269070353E+03  0.48674429343E+03  0.00000000000E+00 0. -1.
        -12    1    6    6    0    0  0.26836230143E+02 -0.15300582912E+02  0.17471336522E+03  0.17742336676E+03  0.00000000000E+00 0.  1.
</event>
<event>
12    1  0.1598254E-001  0.2102991E+03  0.7818608E-02  0.1141404E+00
         21   -1    0    0  501  502  0.00000000000E+00  0.00000000000E+00  0.10973070225E+04  0.10973070225E+04  0.00000000000E+00 0. -1.
         21   -1    0    0  502  503 -0.00000000000E+00 -0.00000000000E+00 -0.51415208111E+02  0.51415208111E+02  0.00000000000E+00 0. -1.
         -6    2    1    2    0  503  0.82881117841E+02  0.81460411635E+02  0.79118561644E+03  0.81865767771E+03  0.17527303055E+03 0.  0.
        -24    2    3    3    0    0  0.45135207168E+02  0.11423256037E+03  0.43823668679E+03  0.46215549756E+03  0.80312175282E+02 0.  0.
          6    2    1    2  501    0 -0.82881117841E+02 -0.81460411635E+02  0.25470619794E+03  0.33006455290E+03  0.17482071804E+03 0.  0.
         24    2    5    5    0    0 -0.11037449189E+03 -0.51907834837E+02  0.24976754220E+03  0.28912898484E+03  0.79591412607E+02 0.  0.
          5    1    5    5  501    0  0.27493374051E+02 -0.29552576798E+02  0.49386557432E+01  0.40935568063E+02  0.47000000000E+01 0. -1.
        -11    1    6    6    0    0 -0.51787791460E+02 -0.34773149433E+02  0.49106110369E+02  0.79388647434E+02  0.00000000000E+00 0.  1.
         12    1    6    6    0    0 -0.58586700432E+02 -0.17134685404E+02  0.20066143183E+03  0.20974033741E+03  0.00000000000E+00 0. -1.
         -5    1    3    3    0  503  0.37745910673E+02 -0.32772148739E+02  0.35294892966E+03  0.35650218015E+03  0.47000000000E+01 0.  1.
         11    1    4    4    0    0  0.24540492019E+02  0.14309729812E+02  0.21304813344E+03  0.21493373695E+03  0.00000000000E+00 0. -1.
        -12    1    4    4    0    0  0.20594715149E+02  0.99922830561E+02  0.22518855335E+03  0.24722176061E+03  0.00000000000E+00 0.  1.
</event>
<event>
12    1  0.1598254E-001  0.1998961E+03  0.7818608E-02  0.1150003E+00
         21   -1    0    0  501  502  0.00000000000E+00  0.00000000000E+00  0.21186715904E+03  0.21186715904E+03  0.00000000000E+00 0. -1.
         21   -1    0    0  502  503 -0.00000000000E+00 -0.00000000000E+00 -0.19619436080E+03  0.19619436080E+03  0.00000000000E+00 0. -1.
         -6    2    1    2    0  503  0.97705892813E+02  0.12613793793E+02 -0.34313697551E+02  0.20281978208E+03  0.17393356456E+03 0.  0.
        -24    2    3    3    0    0  0.56056135040E+02  0.63329132544E+02 -0.61561108366E+02  0.13160700722E+03  0.79860910230E+02 0.  0.
          6    2    1    2  501    0 -0.97705892813E+02 -0.12613793793E+02  0.49986495796E+02  0.20524173775E+03  0.17297390517E+03 0.  0.
         24    2    5    5    0    0  0.16150397145E+02 -0.11678223948E+02  0.97525978108E+01  0.84390645078E+02  0.81421444166E+02 0.  0.
          5    1    5    5  501    0 -0.11385628996E+03 -0.93556984583E+00  0.40233897986E+02  0.12085109268E+03  0.47000000000E+01 0. -1.
        -11    1    6    6    0    0  0.22774816577E+02  0.16796200728E+02  0.35524502880E+02  0.45418002310E+02  0.00000000000E+00 0.  1.
         12    1    6    6    0    0 -0.66244194323E+01 -0.28474424675E+02 -0.25771905069E+02  0.38972642768E+02  0.00000000000E+00 0. -1.
         -5    1    3    3    0  503  0.41649757773E+02 -0.50715338751E+02  0.27247410815E+02  0.71212774860E+02  0.47000000000E+01 0.  1.
         11    1    4    4    0    0  0.54981986179E+02  0.35663041605E+02 -0.76022554657E+02  0.10037081327E+03  0.00000000000E+00 0. -1.
        -12    1    4    4    0    0  0.10741488607E+01  0.27666090939E+02  0.14461446291E+02  0.31236193950E+02  0.00000000000E+00 0.  1.
</event>
<event>
12    1  0.1598254E-001  0.2476761E+03  0.7818608E-02  0.1114809E+00
         21   -1    0    0  501  502  0.00000000000E+00  0.00000000000E+00  0.61872435600E+03  0.61872435600E+03  0.00000000000E+00 0.  1.
         21   -1    0    0  502  503 -0.00000000000E+00 -0.00000000000E+00 -0.99078282408E+02  0.99078282408E+02  0.00000000000E+00 0. -1.
         -6    2    1    2    0  503 -0.12906597133E+03  0.12249236275E+03  0.25905896892E+03  0.35840620357E+03  0.17228190124E+03 0.  0.
        -24    2    3    3    0    0 -0.13853937368E+03  0.14722408414E+03  0.24620918232E+03  0.32859663446E+03  0.80552453132E+02 0.  0.
          6    2    1    2  501    0  0.12906597133E+03 -0.12249236275E+03  0.26058710467E+03  0.35939643484E+03  0.17203997897E+03 0.  0.
         24    2    5    5    0    0  0.13241561758E+02 -0.27901558830E+02  0.16398950676E+03  0.18130685075E+03  0.70892734876E+02 0.  0.
          5    1    5    5  501    0  0.11582440957E+03 -0.94590803916E+02  0.96597597917E+02  0.17808958409E+03  0.47000000000E+01 0. -1.
        -13    1    6    6    0    0  0.27873064632E+02 -0.34945929757E+02  0.15766601030E+03  0.16388012858E+03  0.00000000000E+00 0.  1.
         14    1    6    6    0    0 -0.14631502874E+02  0.70443709267E+01  0.63234964560E+01  0.17426722168E+02  0.00000000000E+00 0. -1.
         -5    1    3    3    0  503  0.94734023475E+01 -0.24731721396E+02  0.12849786593E+02  0.29809569114E+02  0.47000000000E+01 0.  1.
         11    1    4    4    0    0 -0.18585859733E+02  0.11328004796E+02 -0.13072681866E+01  0.21805201783E+02  0.00000000000E+00 0. -1.
        -12    1    4    4    0    0 -0.11995351394E+03  0.13589607935E+03  0.24751645051E+03  0.30679143267E+03  0.00000000000E+00 0.  1.
</event>
<event>
12    1  0.1598254E-001  0.1834437E+03  0.7818608E-02  0.1164879E+00
         21   -1    0    0  503  502  0.00000000000E+00  0.00000000000E+00  0.77530370168E+03  0.77530370168E+03  0.00000000000E+00 0.  1.
         21   -1    0    0  501  503 -0.00000000000E+00 -0.00000000000E+00 -0.69197952372E+02  0.69197952372E+02  0.00000000000E+00 0.  1.
          6    2    1    2  501    0 -0.25746068380E+02 -0.53808590309E+02  0.94365771392E+02  0.20629222713E+03  0.17347437776E+03 0.  0.
         24    2    3    3    0    0 -0.33035677865E+02 -0.74582694221E+02  0.32125110257E+01  0.11240022175E+03  0.77262897518E+02 0.  0.
         -6    2    1    2    0  502  0.25746068380E+02  0.53808590309E+02  0.61173997792E+03  0.63820942692E+03  0.17183494289E+03 0.  0.
        -24    2    5    5    0    0  0.25389369184E+02 -0.32217721995E+02  0.36445168409E+03  0.37634258307E+03  0.84416278751E+02 0.  0.
          5    1    3    3  501    0  0.72896094852E+01  0.20774103913E+02  0.91153260367E+02  0.93892005385E+02  0.47000000000E+01 0. -1.
        -11    1    4    4    0    0 -0.25465158659E+01 -0.49636790607E+02  0.35817618160E+02  0.61263345448E+02  0.00000000000E+00 0.  1.
         12    1    4    4    0    0 -0.30489161999E+02 -0.24945903614E+02 -0.32605107135E+02  0.51136876301E+02  0.00000000000E+00 0. -1.
         -5    1    5    5    0  502  0.35669919601E+00  0.86026312303E+02  0.24728829383E+03  0.26186684385E+03  0.47000000000E+01 0.  1.
         11    1    6    6    0    0 -0.17101431528E+01 -0.39170273677E+02  0.32828418502E+03  0.33061721230E+03  0.00000000000E+00 0. -1.
        -12    1    6    6    0    0  0.27099512336E+02  0.69525516820E+01  0.36167499064E+02  0.45725370773E+02  0.00000000000E+00 0.  1.
</event>
<event>
12    1  0.1598254E-001  0.2132011E+03  0.7818608E-02  0.1139068E+00
         21   -1    0    0  501  502  0.00000000000E+00  0.00000000000E+00  0.11482201278E+04  0.11482201278E+04  0.00000000000E+00 0. -1.
         21   -1    0    0  502  503 -0.00000000000E+00 -0.00000000000E+00 -0.95549705043E+02  0.95549705043E+02  0.00000000000E+00 0.  1.
         -6    2    1    2    0  503 -0.92345947930E+01 -0.12604578775E+03  0.50323015038E+02  0.21899911078E+03  0.17162571582E+03 0.  0.
        -24    2    3    3    0    0  0.58947534498E+02 -0.62764780938E+02  0.46689313691E+02  0.12578654530E+03  0.78918523912E+02 0.  0.
          6    2    1    2  501    0  0.92345947930E+01  0.12604578775E+03  0.10023474078E+04  0.10247707221E+04  0.17170290822E+03 0.  0.
         24    2    5    5    0    0 -0.79478505182E+01  0.29007146713E+02  0.73368680439E+03  0.73856739564E+03  0.79252054032E+02 0.  0.
          5    1    5    5  501    0  0.17182445311E+02  0.97038641032E+02  0.26866060336E+03  0.28620332646E+03  0.47000000000E+01 0. -1.
        -13    1    6    6    0    0 -0.28350104136E+02 -0.23331424062E+01  0.10547504159E+03  0.10924356437E+03  0.00000000000E+00 0.  1.
         14    1    6    6    0    0  0.20402253617E+02  0.31340289120E+02  0.62821176280E+03  0.62932383127E+03  0.00000000000E+00 0. -1.
         -5    1    3    3    0  503 -0.68182129291E+02 -0.63281006808E+02  0.36337013471E+01  0.93212565477E+02  0.47000000000E+01 0.  1.
         13    1    4    4    0    0  0.63760576027E+02 -0.73160914645E+02  0.23392877172E+02  0.99825633929E+02  0.00000000000E+00 0. -1.
        -14    1    4    4    0    0 -0.48130415288E+01  0.10396133707E+02  0.23296436519E+02  0.25960911373E+02  0.00000000000E+00 0.  1.
</event>
<event>
12    1  0.1598254E-001  0.2067390E+03  0.7818608E-02  0.1144493E+00
         21   -1    0    0  501  502  0.00000000000E+00  0.00000000000E+00  0.81804727618E+02  0.81804727618E+02  0.00000000000E+00 0.  1.
         21   -1    0    0  502  503 -0.00000000000E+00 -0.00000000000E+00 -0.56777068900E+03  0.56777068900E+03  0.00000000000E+00 0. -1.
         -6    2    1    2    0  503 -0.90337647545E+02 -0.69264216173E+02 -0.33779775367E+03  0.39522358915E+03  0.17069253304E+03 0.  0.
        -24    2    3    3    0    0 -0.13181259885E+03 -0.49032353531E+02 -0.25589213836E+03  0.30109538047E+03  0.73477266952E+02 0.  0.
          6    2    1    2  501    0  0.90337647545E+02  0.69264216173E+02 -0.14816820772E+03  0.25435182747E+03  0.17257639512E+03 0.  0.
         24    2    5    5    0    0  0.37673474397E+01  0.83713561099E+02 -0.10461404230E+03  0.15625873008E+03  0.80315251737E+02 0.  0.
          5    1    5    5  501    0  0.86570300106E+02 -0.14449344927E+02 -0.43554165413E+02  0.98093097382E+02  0.47000000000E+01 0. -1.
        -11    1    6    6    0    0  0.31386903756E+02  0.71334021204E+02 -0.98117171435E+02  0.12530227308E+03  0.00000000000E+00 0.  1.
         12    1    6    6    0    0 -0.27619556317E+02  0.12379539896E+02 -0.64968708688E+01  0.30956457004E+02  0.00000000000E+00 0. -1.
         -5    1    3    3    0  503  0.41474951300E+02 -0.20231862642E+02 -0.81905615312E+02  0.94128208689E+02  0.47000000000E+01 0.  1.
         11    1    4    4    0    0  0.56555139409E+01 -0.15259565215E+02 -0.36984722527E+02  0.40406792361E+02  0.00000000000E+00 0. -1.
        -12    1    4    4    0    0 -0.13746811279E+03 -0.33772788316E+02 -0.21890741583E+03  0.26068858811E+03  0.00000000000E+00 0.  1.
</event>
<event>
12    1  0.1598254E-001  0.3315657E+03  0.7818608E-02  0.1070831E+00
         21   -1    0    0  501  502  0.00000000000E+00  0.00000000000E+00  0.25787083034E+04  0.25787083034E+04  0.00000000000E+00 0.  1.
         21   -1    0    0  502  503 -0.00000000000E+00 -0.00000000000E+00 -0.42378017182E+02  0.42378017182E+02  0.00000000000E+00 0. -1.
         -6    2    1    2    0  503  0.11294573948E+03  0.25996547089E+03  0.11731288315E+04  0.12181415456E+04  0.16522343577E+03 0.  0.
        -24    2    3    3    0    0  0.50277233913E+01  0.10509131794E+03  0.35514326030E+03  0.37864479985E+03  0.78585533082E+02 0.  0.
          6    2    1    2  501    0 -0.11294573948E+03 -0.25996547089E+03  0.13632014547E+04  0.14029447749E+04  0.17203792998E+03 0.  0.
         24    2    5    5    0    0 -0.12173540603E+03 -0.99556863755E+02  0.63933944267E+03  0.66145540758E+03  0.63539397623E+02 0.  0.
          5    1    5    5  501    0  0.87896665530E+01 -0.16040860714E+03  0.72386201200E+03  0.74148936735E+03  0.47000000000E+01 0. -1.
        -13    1    6    6    0    0 -0.64790558995E+02 -0.22281351635E+02  0.34892560526E+03  0.35558874162E+03  0.00000000000E+00 0.  1.
         14    1    6    6    0    0 -0.56944847033E+02 -0.77275512120E+02  0.29041383742E+03  0.30586666595E+03  0.00000000000E+00 0. -1.
         -5    1    3    3    0  503  0.10791801608E+03  0.15487415295E+03  0.81798557123E+03  0.83949674579E+03  0.47000000000E+01 0.  1.
         13    1    4    4    0    0  0.93385353176E+01  0.16076713519E+02  0.79922806495E+01  0.20237230775E+02  0.00000000000E+00 0. -1.
        -14    1    4    4    0    0 -0.43108119263E+01  0.89014604421E+02  0.34715097965E+03  0.35840756908E+03  0.00000000000E+00 0.  1.
</event>
<event>
12    1  0.1598254E-001  0.2008943E+03  0.7818608E-02  0.1149541E+00
         21   -1    0    0  501  502  0.00000000000E+00  0.00000000000E+00  0.62855823074E+02  0.62855823074E+02  0.00000000000E+00 0.  1.
         21   -1    0    0  502  503 -0.00000000000E+00 -0.00000000000E+00 -0.17214783881E+04  0.17214783881E+04  0.00000000000E+00 0. -1.
         -6    2    1    2    0  503 -0.54238044052E+01 -0.99716411896E+02 -0.15405012952E+04  0.15535452240E+04  0.17431506517E+03 0.  0.
        -24    2    3    3    0    0 -0.35894008522E+02 -0.56679854334E+02 -0.13947998140E+04  0.13985239666E+04  0.76823031410E+02 0.  0.
          6    2    1    2  501    0  0.54238044052E+01  0.99716411896E+02 -0.11812126982E+03  0.23078898719E+03  0.17128380476E+03 0.  0.
         24    2    5    5    0    0 -0.19252242511E+02  0.77702385470E+01 -0.10693927056E+03  0.13481954835E+03  0.79430961090E+02 0.  0.
          5    1    5    5  501    0  0.24676046916E+02  0.91946173349E+02 -0.11181999251E+02  0.95969438845E+02  0.47000000000E+01 0. -1.
        -13    1    6    6    0    0  0.65464712356E+01  0.20819585751E+02  0.21819139940E+01  0.21933357818E+02  0.00000000000E+00 0.  1.
         14    1    6    6    0    0 -0.25798713747E+02 -0.13049347204E+02 -0.10912118456E+03  0.11288619053E+03  0.00000000000E+00 0. -1.
         -5    1    3    3    0  503  0.30470204116E+02 -0.43036557562E+02 -0.14570148115E+03  0.15502125736E+03  0.47000000000E+01 0.  1.
         11    1    4    4    0    0  0.19925289646E+02 -0.35516416403E+02 -0.44945439093E+03  0.45129556006E+03  0.00000000000E+00 0. -1.
        -12    1    4    4    0    0 -0.55819298168E+02 -0.21163437931E+02 -0.94534542311E+03  0.94722840654E+03  0.00000000000E+00 0.  1.
</event>
<event>
12    1  0.1598254E-001  0.1989882E+03  0.7818608E-02  0.1152228E+00
         21   -1    0    0  503  502  0.00000000000E+00  0.00000000000E+00  0.35877621589E+03  0.35877621589E+03  0.00000000000E+00 0. -1.
         21   -1    0    0  501  503 -0.00000000000E+00 -0.00000000000E+00 -0.38455710662E+03  0.38455710662E+03  0.00000000000E+00 0.  1.
          6    2    1    2  501    0  0.40584737989E+02  0.84264406202E+02 -0.32899917269E+03  0.38065217109E+03  0.16705690232E+03 0.  0.
         24    2    3    3    0    0  0.68880886609E+02  0.10072585604E+03 -0.30830778632E+03  0.34164095696E+03  0.82307823139E+02 0.  0.
         -6    2    1    2    0  502 -0.40584737989E+02 -0.84264406202E+02  0.30321828196E+03  0.36268115143E+03  0.17563792295E+03 0.  0.
        -24    2    5    5    0    0 -0.85294036069E+02 -0.92372652482E+02  0.26299190132E+03  0.30181312459E+03  0.78221752068E+02 0.  0.
          5    1    3    3  501    0 -0.28296148621E+02 -0.16461449842E+02 -0.20691386367E+02  0.39011214124E+02  0.47000000000E+01 0. -1.
        -13    1    4    4    0    0  0.53640527770E+01  0.36925175187E+01 -0.12208277642E+03  0.12225633745E+03  0.00000000000E+00 0.  1.
         14    1    4    4    0    0  0.63516833832E+02  0.97033338525E+02 -0.18622500990E+03  0.21938461951E+03  0.00000000000E+00 0. -1.
         -5    1    5    5    0  502  0.44709298080E+02  0.81082462804E+01  0.40226380641E+02  0.60868026845E+02  0.47000000000E+01 0.  1.
         11    1    6    6    0    0 -0.80388559749E+01 -0.64989763694E+02  0.13070037644E+03  0.14618782778E+03  0.00000000000E+00 0. -1.
        -12    1    6    6    0    0 -0.77255180094E+02 -0.27382888788E+02  0.13229152488E+03  0.15562529680E+03  0.00000000000E+00 0.  1.
</event>
<event>
12    1  0.1598254E-001  0.1882088E+03  0.7818608E-02  0.1160361E+00
         21   -1    0    0  503  502  0.00000000000E+00  0.00000000000E+00  0.12271690895E+04  0.12271690895E+04  0.00000000000E+00 0. -1.
         21   -1    0    0  501  503 -0.00000000000E+00 -0.00000000000E+00 -0.48527068183E+02  0.48527068183E+02  0.00000000000E+00 0. -1.
          6    2    1    2  501    0  0.84986297843E+01  0.74685512672E+02  0.18253500150E+03  0.26218613334E+03  0.17254677404E+03 0.  0.
         24    2    3    3    0    0 -0.26820948185E+02 -0.20794435565E+02  0.68634727771E+02  0.10934878366E+03  0.78068295861E+02 0.  0.
         -6    2    1    2    0  502 -0.84986297843E+01 -0.74685512672E+02  0.99610701983E+03  0.10135100244E+04  0.17124024644E+03 0.  0.
        -24    2    5    5    0    0 -0.51036183572E+02 -0.10025969212E+01  0.35527484945E+03  0.36703761493E+03  0.76750862446E+02 0.  0.
          5    1    3    3  501    0  0.35319577969E+02  0.95479948237E+02  0.11390027372E+03  0.15283734968E+03  0.47000000000E+01 0. -1.
        -11    1    4    4    0    0 -0.16046562594E+02 -0.19898643960E+02  0.85542257159E+02  0.89280042352E+02  0.00000000000E+00 0.  1.
         12    1    4    4    0    0 -0.10774385591E+02 -0.89579160455E+00 -0.16907529388E+02  0.20068741303E+02  0.00000000000E+00 0. -1.
         -5    1    5    5    0  502  0.42537553788E+02 -0.73682915751E+02  0.64083217038E+03  0.64647240942E+03  0.47000000000E+01 0.  1.
         13    1    6    6    0    0 -0.14487355879E+02 -0.36955988218E+02  0.18506684235E+03  0.18927589567E+03  0.00000000000E+00 0. -1.
        -14    1    6    6    0    0 -0.36548827693E+02  0.35953391297E+02  0.17020800710E+03  0.17776171926E+03  0.00000000000E+00 0.  1.
</event>
<event>
12    1  0.1598254E-001  0.1770074E+03  0.7818608E-02  0.1172319E+00
         21   -1    0    0  501  502  0.00000000000E+00  0.00000000000E+00  0.99817242412E+03  0.99817242412E+03  0.00000000000E+00 0.  1.
         21   -1    0    0  502  503 -0.00000000000E+00 -0.00000000000E+00 -0.30283386223E+02  0.30283386223E+02  0.00000000000E+00 0.  1.
         -6    2    1    2    0  503  0.29975169999E+02 -0.48005699434E+02  0.48945205611E+03  0.52047568408E+03  0.16771572524E+03 0.  0.
        -24    2    3    3    0    0 -0.27944800296E+02 -0.38132726164E+02  0.42260299845E+03  0.43135169701E+03  0.72360041119E+02 0.  0.
          6    2    1    2  501    0 -0.29975169999E+02  0.48005699434E+02  0.47843698178E+03  0.50798012626E+03  0.16105528599E+03 0.  0.
         24    2    5    5    0    0 -0.75716763338E+02  0.15809345140E+02  0.25372773297E+03  0.27636571589E+03  0.77571146668E+02 0.  0.
          5    1    5    5  501    0  0.45741593338E+02  0.32196354295E+02  0.22470924881E+03  0.23161441037E+03  0.47000000000E+01 0. -1.
        -13    1    6    6    0    0 -0.25406151766E+02  0.38503793619E+02  0.64810809766E+02  0.79551591644E+02  0.00000000000E+00 0.  1.
         14    1    6    6    0    0 -0.50310611572E+02 -0.22694448479E+02  0.18891692320E+03  0.19681412424E+03  0.00000000000E+00 0. -1.
         -5    1    3    3    0  503  0.57919970295E+02 -0.98729732698E+01  0.66849057665E+02  0.89123987068E+02  0.47000000000E+01 0.  1.
         13    1    4    4    0    0 -0.10067701543E+02 -0.51087523684E+02  0.37815067428E+03  0.38171877888E+03  0.00000000000E+00 0. -1.
        -14    1    4    4    0    0 -0.17877098753E+02  0.12954797520E+02  0.44452324170E+02  0.49632918136E+02  0.00000000000E+00 0.  1.
</event>
<event>
12    1  0.1598254E-001  0.2316522E+03  0.7818608E-02  0.1125739E+00
         21   -1    0    0  503  502  0.00000000000E+00  0.00000000000E+00  0.54467615955E+03  0.54467615955E+03  0.00000000000E+00 0.  1.
         21   -1    0    0  501  503 -0.00000000000E+00 -0.00000000000E+00 -0.10042100065E+03  0.10042100065E+03  0.00000000000E+00 0.  1.
          6    2    1    2  501    0  0.47123152519E+02 -0.14566482949E+03  0.17033576541E+03  0.28635687115E+03  0.17189284634E+03 0.  0.
         24    2    3    3    0    0  0.28519412859E+01 -0.13046225025E+03  0.57727834714E+02  0.16431714559E+03  0.81480605813E+02 0.  0.
         -6    2    1    2    0  502 -0.47123152519E+02  0.14566482949E+03  0.27391939349E+03  0.35874028904E+03  0.17385029997E+03 0.  0.
        -24    2    5    5    0    0 -0.86094005170E+02  0.46435925467E+02  0.15587887749E+03  0.19961531876E+03  0.77327732008E+02 0.  0.
          5    1    3    3  501    0  0.44271211233E+02 -0.15202579234E+02  0.11260793070E+03  0.12203972556E+03  0.47000000000E+01 0. -1.
        -13    1    4    4    0    0  0.19769167019E+02 -0.12163512448E+03  0.69908010595E+02  0.14167940364E+03  0.00000000000E+00 0.  1.
         14    1    4    4    0    0 -0.16917225733E+02 -0.88271257764E+01 -0.12180175881E+02  0.22637741947E+02  0.00000000000E+00 0. -1.
         -5    1    5    5    0  502  0.38970852651E+02  0.99228904019E+02  0.11804051600E+03  0.15912497028E+03  0.47000000000E+01 0.  1.
         11    1    6    6    0    0 -0.64098678144E+01  0.23953968402E+02  0.91316616233E+02  0.94623482328E+02  0.00000000000E+00 0. -1.
        -12    1    6    6    0    0 -0.79684137356E+02  0.22481957065E+02  0.64562261257E+02  0.10499183644E+03  0.00000000000E+00 0.  1.
</event>
<event>
12    1  0.1598254E-001  0.1914016E+03  0.7818608E-02  0.1157343E+00
         21   -1    0    0  503  502  0.00000000000E+00  0.00000000000E+00  0.13797445736E+03  0.13797445736E+03  0.00000000000E+00 0.  1.
         21   -1    0    0  501  503 -0.00000000000E+00 -0.00000000000E+00 -0.27798542258E+03  0.27798542258E+03  0.00000000000E+00 0.  1.
          6    2    1    2  501    0 -0.62601560047E+02  0.55349217844E+02 -0.11544688416E+03  0.22298846174E+03  0.17150329376E+03 0.  0.
         24    2    3    3    0    0 -0.19996430517E+02 -0.12837137617E+02 -0.23747130561E+01  0.84164897419E+02  0.80705894208E+02 0.  0.
         -6    2    1    2    0  502  0.62601560047E+02 -0.55349217844E+02 -0.24564081065E+02  0.19297141820E+03  0.17219780175E+03 0.  0.
        -24    2    5    5    0    0 -0.16627126493E+02 -0.32183016489E+02  0.31879730974E+02  0.92862219957E+02  0.79340196387E+02 0.  0.
          5    1    3    3  501    0 -0.42605129530E+02  0.68186355461E+02 -0.11307217110E+03  0.13882356432E+03  0.47000000000E+01 0. -1.
        -13    1    4    4    0    0 -0.32592147364E+02 -0.33090290994E+02  0.20817231373E+02  0.50897667431E+02  0.00000000000E+00 0.  1.
         14    1    4    4    0    0  0.12595716847E+02  0.20253153378E+02 -0.23191944430E+02  0.33267229988E+02  0.00000000000E+00 0. -1.
         -5    1    5    5    0  502  0.79228686540E+02 -0.23166201355E+02 -0.56443812039E+02  0.10010919825E+03  0.47000000000E+01 0.  1.
         13    1    6    6    0    0 -0.38604841577E+02 -0.42935998625E+02  0.73314503082E+01  0.58202954691E+02  0.00000000000E+00 0. -1.
        -14    1    6    6    0    0  0.21977715084E+02  0.10752982136E+02  0.24548280666E+02  0.34659265266E+02  0.00000000000E+00 0.  1.
</event>
<event>
12    1  0.1598254E-001  0.1781329E+03  0.7818608E-02  0.1169790E+00
         21   -1    0    0  503  502  0.00000000000E+00  0.00000000000E+00  0.24311309624E+03  0.24311309624E+03  0.00000000000E+00 0.  1.
         21   -1    0    0  501  503 -0.00000000000E+00 -0.00000000000E+00 -0.17168661121E+03  0.17168661121E+03  0.00000000000E+00 0.  1.
          6    2    1    2  501    0  0.11232223251E+02  0.43289096746E+02 -0.66508088627E+02  0.18950596533E+03  0.17172383732E+03 0.  0.
         24    2    3    3    0    0 -0.35336426752E+02 -0.15714055629E+02  0.30496821049E+01  0.86985798420E+02  0.77856495977E+02 0.  0.
         -6    2    1    2    0  502 -0.11232223251E+02 -0.43289096746E+02  0.13793457367E+03  0.22529374212E+03  0.17242741920E+03 0.  0.
        -24    2    5    5    0    0 -0.68383883621E+02 -0.57280873593E+02  0.81230328024E+02  0.14344300251E+03  0.77589140724E+02 0.  0.
          5    1    3    3  501    0  0.46568650004E+02  0.59003152376E+02 -0.69557770732E+02  0.10252016691E+03  0.47000000000E+01 0. -1.
        -13    1    4    4    0    0 -0.14976851702E+02 -0.43912959613E+02 -0.13707024735E+02  0.48379092963E+02  0.00000000000E+00 0.  1.
         14    1    4    4    0    0 -0.20359575050E+02  0.28198903983E+02  0.16756706840E+02  0.38606705457E+02  0.00000000000E+00 0. -1.
         -5    1    5    5    0  502  0.57151660369E+02  0.13991776847E+02  0.56704245642E+02  0.81850739618E+02  0.47000000000E+01 0.  1.
         13    1    6    6    0    0 -0.87045802590E+01 -0.51575595666E+02  0.15664678151E+02  0.54600310689E+02  0.00000000000E+00 0. -1.
        -14    1    6    6    0    0 -0.59679303362E+02 -0.57052779278E+01  0.65565649873E+02  0.88842691817E+02  0.00000000000E+00 0.  1.
</event>
<event>
12    1  0.1598254E-001  0.2256015E+03  0.7818608E-02  0.1129948E+00
         21   -1    0    0  503  502  0.00000000000E+00  0.00000000000E+00  0.72931240308E+02  0.72931240308E+02  0.00000000000E+00 0. -1.
         21   -1    0    0  501  503 -0.00000000000E+00 -0.00000000000E+00 -0.72099455760E+03  0.72099455760E+03  0.00000000000E+00 0. -1.
          6    2    1    2  501    0  0.86172412729E+02  0.11646023808E+03 -0.24917005391E+03  0.33612760362E+03  0.17293749848E+03 0.  0.
         24    2    3    3    0    0  0.61051420642E+02  0.13858312619E+03 -0.15133838534E+03  0.23262102510E+03  0.90976236539E+02 0.  0.
         -6    2    1    2    0  502 -0.86172412729E+02 -0.11646023808E+03 -0.39889326338E+03  0.45779819429E+03  0.17168191329E+03 0.  0.
        -24    2    5    5    0    0 -0.83307915406E+02 -0.35811394286E+02 -0.13027720747E+03  0.17728238930E+03  0.78957140538E+02 0.  0.
          5    1    3    3  501    0  0.25120992087E+02 -0.22122888109E+02 -0.97831668572E+02  0.10350657852E+03  0.47000000000E+01 0. -1.
        -11    1    4    4    0    0 -0.78315923948E+01 -0.98545752810E+01 -0.15342095004E+02  0.19845059146E+02  0.00000000000E+00 0.  1.
         12    1    4    4    0    0  0.68883013037E+02  0.14843770147E+03 -0.13599629033E+03  0.21277596595E+03  0.00000000000E+00 0. -1.
         -5    1    5    5    0  502 -0.28644973226E+01 -0.80648843792E+02 -0.26861605592E+03  0.28051580499E+03  0.47000000000E+01 0.  1.
         13    1    6    6    0    0 -0.37154622194E+02 -0.56119447534E+02 -0.56257637390E+02  0.87719895729E+02  0.00000000000E+00 0. -1.
        -14    1    6    6    0    0 -0.46153293213E+02  0.20308053248E+02 -0.74019570076E+02  0.89562493575E+02  0.00000000000E+00 0.  1.
</event>
<event>
12    1  0.1598254E-001  0.1787175E+03  0.7818608E-02  0.1169261E+00
         21   -1    0    0  503  502  0.00000000000E+00  0.00000000000E+00  0.53255579222E+03  0.53255579222E+03  0.00000000000E+00 0. -1.
         21   -1    0    0  501  503 -0.00000000000E+00 -0.00000000000E+00 -0.60262818393E+02  0.60262818393E+02  0.00000000000E+00 0. -1.
          6    2    1    2  501    0  0.48076544496E+02  0.79009870374E+01  0.20770442941E+03  0.27400923998E+03  0.17194811389E+03 0.  0.
         24    2    3    3    0    0  0.69823761112E+02  0.58992798574E+02  0.15718152326E+03  0.19878976988E+03  0.80348201307E+02 0.  0.
         -6    2    1    2    0  502 -0.48076544496E+02 -0.79009870374E+01  0.26458854442E+03  0.31880937064E+03  0.17105127080E+03 0.  0.
        -24    2    5    5    0    0 -0.58444635546E+02  0.48455405793E+02  0.10924947833E+03  0.15317164613E+03  0.75910492618E+02 0.  0.
          5    1    3    3  501    0 -0.21747216615E+02 -0.51091811537E+02  0.50522906146E+02  0.75219470099E+02  0.47000000000E+01 0. -1.
        -11    1    4    4    0    0  0.33303377215E+02  0.38512044977E+02  0.18902157973E+02  0.54310073820E+02  0.00000000000E+00 0.  1.
         12    1    4    4    0    0  0.36520383896E+02  0.20480753597E+02  0.13827936529E+03  0.14447969606E+03  0.00000000000E+00 0. -1.
         -5    1    5    5    0  502  0.10368091050E+02 -0.56356392830E+02  0.15533906609E+03  0.16563772450E+03  0.47000000000E+01 0.  1.
         13    1    6    6    0    0  0.11909770900E+02  0.31501663120E+02  0.46320818018E+02  0.57269674384E+02  0.00000000000E+00 0. -1.
        -14    1    6    6    0    0 -0.70354406446E+02  0.16953742672E+02  0.62928660311E+02  0.95901971750E+02  0.00000000000E+00 0.  1.
</event>
<event>
12    1  0.1598254E-001  0.1906468E+03  0.7818608E-02  0.1158020E+00
         21   -1    0    0  501  502  0.00000000000E+00  0.00000000000E+00  0.81052719044E+03  0.81052719044E+03  0.00000000000E+00 0. -1.
         21   -1    0    0  502  503 -0.00000000000E+00 -0.00000000000E+00 -0.47710180915E+02  0.47710180915E+02  0.00000000000E+00 0. -1.
         -6    2    1    2    0  503  0.65654967208E+02 -0.49251123600E+02  0.48868632034E+03  0.52433043735E+03  0.17138214595E+03 0.  0.
        -24    2    3    3    0    0 -0.28977333131E+02 -0.62354475864E+01  0.19521426344E+03  0.21295677303E+03  0.79770996528E+02 0.  0.
          6    2    1    2  501    0 -0.65654967208E+02  0.49251123600E+02  0.27413068918E+03  0.33390693400E+03  0.17207544255E+03 0.  0.
         24    2    5    5    0    0  0.33630379802E+02  0.17210985439E+02  0.11123535732E+03  0.14040982879E+03  0.76905102801E+02 0.  0.
          5    1    5    5  501    0 -0.99285347009E+02  0.32040138161E+02  0.16289533187E+03  0.19349710522E+03  0.47000000000E+01 0. -1.
        -11    1    6    6    0    0  0.42483124350E+02  0.27823275217E+02  0.32102573404E+02  0.60079328537E+02  0.00000000000E+00 0.  1.
         12    1    6    6    0    0 -0.88527445477E+01 -0.10612289778E+02  0.79132783913E+02  0.80330500249E+02  0.00000000000E+00 0. -1.
         -5    1    3    3    0  503  0.94632300339E+02 -0.43015676014E+02  0.29347205690E+03  0.31137366432E+03  0.47000000000E+01 0.  1.
         11    1    4    4    0    0  0.25899171179E+02  0.95703440694E+01  0.73374847094E+02  0.78397874585E+02  0.00000000000E+00 0. -1.
        -12    1    4    4    0    0 -0.54876504311E+02 -0.15805791656E+02  0.12183941634E+03  0.13455889844E+03  0.00000000000E+00 0.  1.
</event>
<event>
12    1  0.1598254E-001  0.1765286E+03  0.7818608E-02  0.1171416E+00
         21   -1    0    0  503  502  0.00000000000E+00  0.00000000000E+00  0.28227451710E+03  0.28227451710E+03  0.00000000000E+00 0.  1.
         21   -1    0    0  501  503 -0.00000000000E+00 -0.00000000000E+00 -0.12135825898E+03  0.12135825898E+03  0.00000000000E+00 0.  1.
          6    2    1    2  501    0 -0.34017666279E+02  0.59913700758E+01  0.18185541769E+02  0.17662091095E+03  0.17225311063E+03 0.  0.
         24    2    3    3    0    0 -0.82649412003E+02  0.12592281268E+02 -0.16066000021E+02  0.11658861268E+03  0.79657375041E+02 0.  0.
         -6    2    1    2    0  502  0.34017666279E+02 -0.59913700758E+01  0.14273071635E+03  0.22701186512E+03  0.17311623662E+03 0.  0.
        -24    2    5    5    0    0  0.44823202350E+02 -0.67041153402E+02  0.10997961474E+03  0.15673697408E+03  0.77248480036E+02 0.  0.
          5    1    3    3  501    0  0.48631745724E+02 -0.66009111918E+01  0.34251541790E+02  0.60032298272E+02  0.47000000000E+01 0. -1.
        -11    1    4    4    0    0  0.43318708657E+01  0.26338483281E+02  0.17273579875E+01  0.26748169514E+02  0.00000000000E+00 0.  1.
         12    1    4    4    0    0 -0.86981282869E+02 -0.13746202014E+02 -0.17793358009E+02  0.89840443168E+02  0.00000000000E+00 0. -1.
         -5    1    5    5    0  502 -0.10805536071E+02  0.61049783326E+02  0.32751101605E+02  0.70274891038E+02  0.47000000000E+01 0.  1.
         11    1    6    6    0    0  0.59166076545E+01 -0.56038661089E+01  0.76059130780E+02  0.76494450364E+02  0.00000000000E+00 0. -1.
        -12    1    6    6    0    0  0.38906594695E+02 -0.61437287293E+02  0.33920483963E+02  0.80242523720E+02  0.00000000000E+00 0.  1.
</event>
<event>
12    1  0.1598254E-001  0.2383532E+03  0.7818608E-02  0.1120919E+00
         21   -1    0    0  503  502  0.00000000000E+00  0.00000000000E+00  0.14738530061E+04  0.14738530061E+04  0.00000000000E+00 0.  1.
         21   -1    0    0  501  503 -0.00000000000E+00 -0.00000000000E+00 -0.54558065524E+02  0.54558065524E+02  0.00000000000E+00 0. -1.
          6    2    1    2  501    0 -0.16249892849E+03  0.29126505071E+02  0.29550488109E+03  0.37965163952E+03  0.17192433681E+03 0.  0.
         24    2    3    3    0    0 -0.12912542283E+03  0.46669725748E+02  0.11786873357E+03  0.19799744503E+03  0.80364866462E+02 0.  0.
         -6    2    1    2    0  502  0.16249892849E+03 -0.29126505071E+02  0.11237900595E+04  0.11487594321E+04  0.17172617735E+03 0.  0.
        -24    2    5    5    0    0  0.13543895326E+02 -0.77869675428E+01  0.27523017240E+03  0.28694799696E+03  0.79645660253E+02 0.  0.
          5    1    3    3  501    0 -0.33373505654E+02 -0.17543220677E+02  0.17763614752E+03  0.18165419449E+03  0.47000000000E+01 0. -1.
        -11    1    4    4    0    0 -0.30861549871E+02  0.14983452298E+02  0.81680732815E+02  0.88592783094E+02  0.00000000000E+00 0.  1.
         12    1    4    4    0    0 -0.98263872960E+02  0.31686273450E+02  0.36188000756E+02  0.10940466193E+03  0.00000000000E+00 0. -1.
         -5    1    5    5    0  502  0.14895503316E+03 -0.21339537528E+02  0.84855988706E+03  0.86181143511E+03  0.47000000000E+01 0.  1.
         11    1    6    6    0    0  0.42829409510E+02  0.61708296645E+01  0.10351825383E+03  0.11219833481E+03  0.00000000000E+00 0. -1.
        -12    1    6    6    0    0 -0.29285514184E+02 -0.13957797207E+02  0.17171191857E+03  0.17474966215E+03  0.00000000000E+00 0.  1.
</event>
<event>
12    1  0.1598254E-001  0.3320540E+03  0.7818608E-02  0.1070348E+00
         21   -1    0    0  503  502  0.00000000000E+00  0.00000000000E+00  0.19146532341E+03  0.19146532341E+03  0.00000000000E+00 0. -1.
         21   -1    0    0  501  503 -0.00000000000E+00 -0.00000000000E+00 -0.58168501453E+03  0.58168501453E+03  0.00000000000E+00 0. -1.
          6    2    1    2  501    0  0.97124765292E+02  0.26679382214E+03 -0.15047611330E+03  0.36359348135E+03  0.17013228806E+03 0.  0.
         24    2    3    3    0    0  0.98041105185E+02  0.19569915160E+03 -0.17181594048E+03  0.28921088875E+03  0.78816270694E+02 0.  0.
         -6    2    1    2    0  502 -0.97124765292E+02 -0.26679382214E+03 -0.23974357781E+03  0.40955685660E+03  0.17218499388E+03 0.  0.
        -24    2    5    5    0    0 -0.55549782677E+02 -0.13711205045E+03 -0.21164371715E+03  0.27042550407E+03  0.80320592038E+02 0.  0.
          5    1    3    3  501    0 -0.91633989327E+00  0.71094670539E+02  0.21339827176E+02  0.74382592599E+02  0.47000000000E+01 0. -1.
        -11    1    4    4    0    0 -0.14457623065E+01  0.24744884739E+02  0.33374490720E+01  0.25010759998E+02  0.00000000000E+00 0.  1.
         12    1    4    4    0    0  0.99486867492E+02  0.17095426686E+03 -0.17515338955E+03  0.26420012875E+03  0.00000000000E+00 0. -1.
         -5    1    5    5    0  502 -0.41574982615E+02 -0.12968177169E+03 -0.28099860661E+02  0.13913135253E+03  0.47000000000E+01 0.  1.
         13    1    6    6    0    0 -0.10376289672E+02 -0.94627730652E+02 -0.17269952153E+03  0.19719837609E+03  0.00000000000E+00 0. -1.
        -14    1    6    6    0    0 -0.45173493005E+02 -0.42484319795E+02 -0.38944195622E+02  0.73227127974E+02  0.00000000000E+00 0.  1.
</event>
<event>
12    1  0.1598254E-001  0.1981158E+03  0.7818608E-02  0.1151513E+00
         21   -1    0    0  501  502  0.00000000000E+00  0.00000000000E+00  0.16405820341E+03  0.16405820341E+03  0.00000000000E+00 0.  1.
         21   -1    0    0  502  503 -0.00000000000E+00 -0.00000000000E+00 -0.30483711603E+03  0.30483711603E+03  0.00000000000E+00 0.  1.
         -6    2    1    2    0  503  0.25092224233E+02  0.94057406533E+02 -0.17983973805E+03  0.26696562856E+03  0.17161555876E+03 0.  0.
        -24    2    3    3    0    0  0.46556223651E+01  0.58723549311E+01 -0.17957003876E+02  0.81432969318E+02  0.79074111640E+02 0.  0.
          6    2    1    2  501    0 -0.25092224233E+02 -0.94057406533E+02  0.39060825430E+02  0.20192969088E+03  0.17254980886E+03 0.  0.
         24    2    5    5    0    0 -0.40078876193E+01 -0.13193026937E+03  0.24338808014E+02  0.15591088183E+03  0.79335782343E+02 0.  0.
          5    1    5    5  501    0 -0.21084336613E+02  0.37872862833E+02  0.14722017416E+02  0.46018809050E+02  0.47000000000E+01 0. -1.
        -11    1    6    6    0    0  0.37144465799E+02 -0.50897234346E+02  0.71271767080E+01  0.63411642869E+02  0.00000000000E+00 0.  1.
         12    1    6    6    0    0 -0.41152353418E+02 -0.81033035021E+02  0.17211631306E+02  0.92499238963E+02  0.00000000000E+00 0. -1.
         -5    1    3    3    0  503  0.20436601868E+02  0.88185051602E+02 -0.16188273417E+03  0.18553265924E+03  0.47000000000E+01 0.  1.
         11    1    4    4    0    0 -0.20568776612E+02 -0.15369780010E+02 -0.35708223369E+02  0.43981608941E+02  0.00000000000E+00 0. -1.
        -12    1    4    4    0    0  0.25224398977E+02  0.21242134941E+02  0.17751219493E+02  0.37451360377E+02  0.00000000000E+00 0.  1.
</event>
<event>
12    1  0.1598254E-001  0.2590646E+03  0.7818608E-02  0.1107966E+00
         21   -1    0    0  501  502  0.00000000000E+00  0.00000000000E+00  0.43022892110E+03  0.43022892110E+03  0.00000000000E+00 0. -1.
         21   -1    0    0  502  503 -0.00000000000E+00 -0.00000000000E+00 -0.25917947046E+03  0.25917947046E+03  0.00000000000E+00 0. -1.
         -6    2    1    2    0  503  0.52007880081E+02 -0.18467005989E+03 -0.13288181582E+03  0.29115640168E+03  0.17408797389E+03 0.  0.
        -24    2    3    3    0    0 -0.11656944040E+02 -0.17733690634E+03 -0.10996596717E+03  0.22293462297E+03  0.77608436973E+02 0.  0.
          6    2    1    2  501    0 -0.52007880081E+02  0.18467005989E+03  0.30393126647E+03  0.39825198988E+03  0.17153012008E+03 0.  0.
         24    2    5    5    0    0 -0.58083204075E+02  0.93297025215E+02  0.84722357525E+02  0.16063764522E+03  0.80923307444E+02 0.  0.
          5    1    5    5  501    0  0.60753239948E+01  0.91373034677E+02  0.21920890894E+03  0.23761434466E+03  0.47000000000E+01 0. -1.
        -11    1    6    6    0    0  0.13904979381E+02 -0.47465922992E+01  0.68481728501E+01  0.16210368948E+02  0.00000000000E+00 0.  1.
         12    1    6    6    0    0 -0.71988183457E+02  0.98043617514E+02  0.77874184675E+02  0.14442727627E+03  0.00000000000E+00 0. -1.
         -5    1    3    3    0  503  0.63664824120E+02 -0.73331535543E+01 -0.22915848651E+02  0.68221778713E+02  0.47000000000E+01 0.  1.
         13    1    4    4    0    0 -0.32889694801E+02 -0.69986185918E+02 -0.16609276380E+02  0.79092770247E+02  0.00000000000E+00 0. -1.
        -14    1    4    4    0    0  0.21232750761E+02 -0.10735072042E+03 -0.93356690791E+02  0.14384185272E+03  0.00000000000E+00 0.  1.
</event>
<event>
12    1  0.1598254E-001  0.1829086E+03  0.7818608E-02  0.1165102E+00
         21   -1    0    0  501  502  0.00000000000E+00  0.00000000000E+00  0.12078484113E+03  0.12078484113E+03  0.00000000000E+00 0.  1.
         21   -1    0    0  502  503 -0.00000000000E+00 -0.00000000000E+00 -0.33707005189E+03  0.33707005189E+03  0.00000000000E+00 0.  1.
         -6    2    1    2    0  503  0.56698212683E+02 -0.17683589657E+02 -0.20531939791E+03  0.27497562756E+03  0.17299752580E+03 0.  0.
        -24    2    3    3    0    0  0.10825250159E+03 -0.26067468353E+02 -0.10564501266E+03  0.16234700242E+03  0.52891998339E+02 0.  0.
          6    2    1    2  501    0 -0.56698212683E+02  0.17683589657E+02 -0.10965812853E+02  0.18287926546E+03  0.17261859697E+03 0.  0.
         24    2    5    5    0    0 -0.10311498361E+02 -0.39249027935E+02  0.15387702364E+01  0.10823675204E+03  0.10032952450E+03 0.  0.
          5    1    5    5  501    0 -0.46386714322E+02  0.56932617592E+02 -0.12504583090E+02  0.74642513421E+02  0.47000000000E+01 0. -1.
        -11    1    6    6    0    0 -0.52241967403E+02 -0.33107072470E+01  0.66907184630E+01  0.52772622203E+02  0.00000000000E+00 0.  1.
         12    1    6    6    0    0  0.41930469042E+02 -0.35938320688E+02 -0.51519482266E+01  0.55464129836E+02  0.00000000000E+00 0. -1.
         -5    1    3    3    0  503 -0.51554288909E+02  0.83838786964E+01 -0.99674385246E+02  0.11262862514E+03  0.47000000000E+01 0.  1.
         11    1    4    4    0    0  0.14071058243E+01 -0.12291165633E+02 -0.14215426620E+01  0.12452850395E+02  0.00000000000E+00 0. -1.
        -12    1    4    4    0    0  0.10684539577E+03 -0.13776302720E+02 -0.10422347000E+03  0.14989415203E+03  0.00000000000E+00 0.  1.
</event>
<event>
12    1  0.1598254E-001  0.2141286E+03  0.7818608E-02  0.1138339E+00
         21   -1    0    0  501  502  0.00000000000E+00  0.00000000000E+00  0.29141410249E+03  0.29141410249E+03  0.00000000000E+00 0.  1.
         21   -1    0    0  502  503 -0.00000000000E+00 -0.00000000000E+00 -0.15733964013E+03  0.15733964013E+03  0.00000000000E+00 0. -1.
         -6    2    1    2    0  503  0.12376609022E+03 -0.19643782879E+02  0.65800500110E+02  0.22400412943E+03  0.17362091145E+03 0.  0.
        -24    2    3    3    0    0  0.80304952194E+02  0.54010588504E+02  0.56654662805E+02  0.13786718450E+03  0.80197136644E+02 0.  0.
          6    2    1    2  501    0 -0.12376609022E+03  0.19643782879E+02  0.68273962251E+02  0.22474961319E+03  0.17362929307E+03 0.  0.
         24    2    5    5    0    0 -0.93076015701E+02  0.61313293117E+02  0.95110473103E+02  0.16626442641E+03  0.78583667415E+02 0.  0.
          5    1    5    5  501    0 -0.30690074522E+02 -0.41669510238E+02 -0.26836510852E+02  0.58485186777E+02  0.47000000000E+01 0. -1.
        -11    1    6    6    0    0 -0.81388463998E+02  0.60958897912E+02  0.10835536281E+03  0.14859661489E+03  0.00000000000E+00 0.  1.
         12    1    6    6    0    0 -0.11687551703E+02  0.35439520521E+00 -0.13244889705E+02  0.17667811525E+02  0.00000000000E+00 0. -1.
         -5    1    3    3    0  503  0.43461138029E+02 -0.73654371383E+02  0.91458373051E+01  0.86136944934E+02  0.47000000000E+01 0.  1.
         13    1    4    4    0    0  0.43672239528E+02  0.13621404974E+02 -0.14711229396E+02  0.48054421744E+02  0.00000000000E+00 0. -1.
        -14    1    4    4    0    0  0.36632712667E+02  0.40389183530E+02  0.71365892201E+02  0.89812762752E+02  0.00000000000E+00 0.  1.
</event>
<event>
12    1  0.1598254E-001  0.2772548E+03  0.7818608E-02  0.1097543E+00
         21   -1    0    0  501  502  0.00000000000E+00  0.00000000000E+00  0.25979592347E+03  0.25979592347E+03  0.00000000000E+00 0. -1.
         21   -1    0    0  502  503 -0.00000000000E+00 -0.00000000000E+00 -0.47162569416E+03  0.47162569416E+03  0.00000000000E+00 0. -1.
         -6    2    1    2    0  503 -0.90260907560E+02  0.19663628525E+03 -0.33052972497E+03  0.42982601708E+03  0.16937427715E+03 0.  0.
        -24    2    3    3    0    0 -0.11525207927E+03  0.10119014495E+03 -0.23840802239E+03  0.29475928377E+03  0.80759909710E+02 0.  0.
          6    2    1    2  501    0  0.90260907560E+02 -0.19663628525E+03  0.11869995428E+03  0.30159560054E+03  0.17337060596E+03 0.  0.
         24    2    5    5    0    0  0.17858606018E+02 -0.17349747157E+03  0.48366255521E+02  0.19793067326E+03  0.80105894259E+02 0.  0.
          5    1    5    5  501    0  0.72402301542E+02 -0.23138813683E+02  0.70333698758E+02  0.10366492728E+03  0.47000000000E+01 0. -1.
        -13    1    6    6    0    0 -0.93880368086E+01 -0.24454894435E+02 -0.18754175373E+02  0.32216396304E+02  0.00000000000E+00 0.  1.
         14    1    6    6    0    0  0.27246642826E+02 -0.14904257713E+03  0.67120430894E+02  0.16571427696E+03  0.00000000000E+00 0. -1.
         -5    1    3    3    0  503  0.24991171705E+02  0.95446140302E+02 -0.92121702579E+02  0.13506673331E+03  0.47000000000E+01 0.  1.
         13    1    4    4    0    0 -0.26150921151E+02  0.76505995833E+02 -0.11371304941E+03  0.13952668447E+03  0.00000000000E+00 0. -1.
        -14    1    4    4    0    0 -0.89101158114E+02  0.24684149115E+02 -0.12469497299E+03  0.15523259929E+03  0.00000000000E+00 0.  1.
</event>
<event>
12    1  0.1598254E-001  0.2622889E+03  0.7818608E-02  0.1105841E+00
         21   -1    0    0  501  502  0.00000000000E+00  0.00000000000E+00  0.36793651143E+02  0.36793651143E+02  0.00000000000E+00 0.  1.
         21   -1    0    0  502  503 -0.00000000000E+00 -0.00000000000E+00 -0.20874620089E+04  0.20874620089E+04  0.00000000000E+00 0. -1.
         -6    2    1    2    0  503  0.47782069113E+02 -0.19212657562E+03 -0.13715765033E+04  0.13964303022E+04  0.17204574197E+03 0.  0.
        -24    2    3    3    0    0  0.30167200911E+02 -0.15398800045E+03 -0.13098153693E+04  0.13215880537E+04  0.79726517300E+02 0.  0.
          6    2    1    2  501    0 -0.47782069113E+02  0.19212657562E+03 -0.67909185444E+03  0.72782535782E+03  0.17137169408E+03 0.  0.
         24    2    5    5    0    0 -0.37317731950E+02  0.16823594173E+03 -0.35717164519E+03  0.40481610739E+03  0.81292997651E+02 0.  0.
          5    1    5    5  501    0 -0.10464337163E+02  0.23890633885E+02 -0.32192020925E+03  0.32300925043E+03  0.47000000000E+01 0. -1.
        -13    1    6    6    0    0 -0.50431529818E-01  0.14616309022E+03 -0.29240155748E+03  0.32689803043E+03  0.00000000000E+00 0.  1.
         14    1    6    6    0    0 -0.37267300420E+02  0.22072851513E+02 -0.64770087710E+02  0.77918076956E+02  0.00000000000E+00 0. -1.
         -5    1    3    3    0  503  0.17614868201E+02 -0.38138575164E+02 -0.61761133957E+02  0.74842248530E+02  0.47000000000E+01 0.  1.
         13    1    4    4    0    0 -0.23721547773E+02 -0.25607362798E+02 -0.19348694234E+03  0.19661039065E+03  0.00000000000E+00 0. -1.
        -14    1    4    4    0    0  0.53888748684E+02 -0.12838063765E+03 -0.11163284270E+04  0.11249776630E+04  0.00000000000E+00 0.  1.
</event>
<event>
12    1  0.1598254E-001  0.1837266E+03  0.7818608E-02  0.1164534E+00
         21   -1    0    0  501  502  0.00000000000E+00  0.00000000000E+00  0.11247406043E+03  0.11247406043E+03  0.00000000000E+00 0. -1.
         21   -1    0    0  502  503 -0.00000000000E+00 -0.00000000000E+00 -0.38862768194E+03  0.38862768194E+03  0.00000000000E+00 0. -1.
         -6    2    1    2    0  503 -0.17514551176E+01 -0.62519517471E+02 -0.25863545684E+03  0.31654183716E+03  0.17144876049E+03 0.  0.
        -24    2    3    3    0    0 -0.24547538029E+02 -0.10344409618E+03 -0.20129255004E+03  0.24234762243E+03  0.83128916382E+02 0.  0.
          6    2    1    2  501    0  0.17514551176E+01  0.62519517471E+02 -0.17518164670E+02  0.18455990522E+03  0.17275333531E+03 0.  0.
         24    2    5    5    0    0  0.21439485607E+02  0.96756457107E+02 -0.46166506732E+02  0.13554353976E+03  0.80120167815E+02 0.  0.
          5    1    5    5  501    0 -0.19688030489E+02 -0.34236939637E+02  0.28648342062E+02  0.49016365462E+02  0.47000000000E+01 0. -1.
        -11    1    6    6    0    0  0.16576425999E+01 -0.65505298299E+00 -0.35531761468E+02  0.35576438080E+02  0.00000000000E+00 0.  1.
         12    1    6    6    0    0  0.19781843007E+02  0.97411510090E+02 -0.10634745264E+02  0.99967101677E+02  0.00000000000E+00 0. -1.
         -5    1    3    3    0  503  0.22796082911E+02  0.40924578706E+02 -0.57342906800E+02  0.74194214725E+02  0.47000000000E+01 0.  1.
         11    1    4    4    0    0 -0.70844246037E+01 -0.94675889185E+02 -0.95124889219E+02  0.13439664287E+03  0.00000000000E+00 0. -1.
        -12    1    4    4    0    0 -0.17463113425E+02 -0.87682069911E+01 -0.10616766082E+03  0.10795097957E+03  0.00000000000E+00 0.  1.
</event>
<event>
12    1  0.1598254E-001  0.1832885E+03  0.7818608E-02  0.1164872E+00
         21   -1    0    0  503  502  0.00000000000E+00  0.00000000000E+00  0.94628153514E+02  0.94628153514E+02  0.00000000000E+00 0. -1.
         21   -1    0    0  501  503 -0.00000000000E+00 -0.00000000000E+00 -0.52253827186E+03  0.52253827186E+03  0.00000000000E+00 0. -1.
          6    2    1    2  501    0 -0.47873648099E+02  0.35112622880E+02 -0.37968492694E+02  0.18629621132E+03  0.17245257159E+03 0.  0.
         24    2    3    3    0    0  0.26067372378E+02  0.35233453853E+02  0.19283372778E+02  0.92663123105E+02  0.79332854133E+02 0.  0.
         -6    2    1    2    0  502  0.47873648099E+02 -0.35112622880E+02 -0.38994162565E+03  0.43087021405E+03  0.17340671115E+03 0.  0.
        -24    2    5    5    0    0 -0.15884788943E+02  0.13752610288E+02 -0.99413795755E+02  0.12940469487E+03  0.80131214016E+02 0.  0.
          5    1    3    3  501    0 -0.73941020477E+02 -0.12083097222E+00 -0.57251865472E+02  0.93633088219E+02  0.47000000000E+01 0. -1.
        -11    1    4    4    0    0  0.18951470111E+02  0.46273300331E+02 -0.17991400379E+02  0.53141951700E+02  0.00000000000E+00 0.  1.
         12    1    4    4    0    0  0.71159022671E+01 -0.11039846478E+02  0.37274773157E+02  0.39521171406E+02  0.00000000000E+00 0. -1.
         -5    1    5    5    0  502  0.63758437042E+02 -0.48865233169E+02 -0.29052782990E+03  0.30146551918E+03  0.47000000000E+01 0.  1.
         11    1    6    6    0    0  0.93012827967E+01  0.37563062234E+02 -0.81876940310E+02  0.90561199532E+02  0.00000000000E+00 0. -1.
        -12    1    6    6    0    0 -0.25186071740E+02 -0.23810451946E+02 -0.17536855444E+02  0.38843495343E+02  0.00000000000E+00 0.  1.
</event>
<event>
12    1  0.1598254E-001  0.1948401E+03  0.7818608E-02  0.1154173E+00
         21   -1    0    0  503  502  0.00000000000E+00  0.00000000000E+00  0.23254288992E+03  0.23254288992E+03  0.00000000000E+00 0.  1.
         21   -1    0    0  501  503 -0.00000000000E+00 -0.00000000000E+00 -0.53246061559E+03  0.53246061559E+03  0.00000000000E+00 0.  1.
          6    2    1    2  501    0  0.29845916870E+02 -0.85482108530E+02 -0.46848387230E+03  0.50738524354E+03  0.17252442473E+03 0.  0.
         24    2    3    3    0    0 -0.32403722593E+02 -0.87153353179E+01 -0.19769514532E+03  0.21908543477E+03  0.88255871961E+02 0.  0.
         -6    2    1    2    0  502 -0.29845916870E+02  0.85482108530E+02  0.16856614662E+03  0.25761826198E+03  0.17249537235E+03 0.  0.
        -24    2    5    5    0    0  0.10625821749E+02  0.95543894524E+01  0.14909822946E+03  0.16927761476E+03  0.78869730481E+02 0.  0.
          5    1    3    3  501    0  0.62249639463E+02 -0.76766773213E+02 -0.27078872697E+03  0.28829980877E+03  0.47000000000E+01 0. -1.
        -13    1    4    4    0    0  0.23089176819E+02 -0.13302662418E+02 -0.21310667611E+02  0.34120601806E+02  0.00000000000E+00 0.  1.
         14    1    4    4    0    0 -0.55492899412E+02  0.45873270996E+01 -0.17638447771E+03  0.18496483296E+03  0.00000000000E+00 0. -1.
         -5    1    5    5    0  502 -0.40471738619E+02  0.75927719078E+02  0.19467917162E+02  0.88340647212E+02  0.47000000000E+01 0.  1.
         13    1    6    6    0    0 -0.21717821883E+02  0.14833325539E+02  0.12713513238E+03  0.12982693564E+03  0.00000000000E+00 0. -1.
        -14    1    6    6    0    0  0.32343643632E+02 -0.52789360871E+01  0.21963097083E+02  0.39450679121E+02  0.00000000000E+00 0.  1.
</event>
<event>
12    1  0.1598254E-001  0.1845061E+03  0.7818608E-02  0.1163982E+00
         21   -1    0    0  501  502  0.00000000000E+00  0.00000000000E+00  0.26089417678E+02  0.26089417678E+02  0.00000000000E+00 0.  1.
         21   -1    0    0  502  503 -0.00000000000E+00 -0.00000000000E+00 -0.17521653260E+04  0.17521653260E+04  0.00000000000E+00 0.  1.
         -6    2    1    2    0  503 -0.16751327638E+02  0.60616168677E+02 -0.13227426533E+04  0.13355488091E+04  0.17345768340E+03 0.  0.
        -24    2    3    3    0    0  0.59691020206E+02  0.37476913728E+02 -0.84560955013E+03  0.85175448737E+03  0.73909799955E+02 0.  0.
          6    2    1    2  501    0  0.16751327638E+02 -0.60616168677E+02 -0.40333325506E+03  0.44270593455E+03  0.17133564417E+03 0.  0.
         24    2    5    5    0    0 -0.52338922708E+02 -0.33770230936E+02 -0.17116959903E+03  0.19895150844E+03  0.80017996416E+02 0.  0.
          5    1    5    5  501    0  0.69090250346E+02 -0.26845937741E+02 -0.23216365603E+03  0.24375442611E+03  0.47000000000E+01 0. -1.
        -11    1    6    6    0    0 -0.57356259846E+01 -0.43223569586E+02 -0.39041928256E+02  0.58527314436E+02  0.00000000000E+00 0.  1.
         12    1    6    6    0    0 -0.46603296723E+02  0.94533386494E+01 -0.13212767078E+03  0.14042419401E+03  0.00000000000E+00 0. -1.
         -5    1    3    3    0  503 -0.76442347844E+02  0.23139254949E+02 -0.47713310314E+03  0.48379432177E+03  0.47000000000E+01 0.  1.
         11    1    4    4    0    0  0.29510082336E+02  0.47212274153E+02 -0.29345050046E+03  0.29868552025E+03  0.00000000000E+00 0. -1.
        -12    1    4    4    0    0  0.30180937870E+02 -0.97353604248E+01 -0.55215904968E+03  0.55306896712E+03  0.00000000000E+00 0.  1.
</event>
<event>
12    1  0.1598254E-001  0.1864745E+03  0.7818608E-02  0.1161766E+00
         21   -1    0    0  503  502  0.00000000000E+00  0.00000000000E+00  0.19311238606E+03  0.19311238606E+03  0.00000000000E+00 0. -1.
         21   -1    0    0  501  503 -0.00000000000E+00 -0.00000000000E+00 -0.19413760704E+03  0.19413760704E+03  0.00000000000E+00 0.  1.
          6    2    1    2  501    0  0.94861729010E+01 -0.72427891322E+02  0.52281337049E+02  0.19330589448E+03  0.17116671324E+03 0.  0.
         24    2    3    3    0    0 -0.49653339336E+02 -0.72420804299E+02  0.77348660139E+01  0.11911721583E+03  0.80117763029E+02 0.  0.
         -6    2    1    2    0  502 -0.94861729010E+01  0.72427891322E+02 -0.53306558037E+02  0.19394409862E+03  0.17157195966E+03 0.  0.
        -24    2    5    5    0    0 -0.46943976962E+02  0.12177707872E+02 -0.74945507963E+02  0.11962380634E+03  0.79630348094E+02 0.  0.
          5    1    3    3  501    0  0.59139512237E+02 -0.70870225501E-02  0.44546471035E+02  0.74188678648E+02  0.47000000000E+01 0. -1.
        -13    1    4    4    0    0 -0.60831426804E+02 -0.24450576998E+02 -0.10887084130E+02  0.66459173959E+02  0.00000000000E+00 0.  1.
         14    1    4    4    0    0  0.11178087467E+02 -0.47970227301E+02  0.18621950144E+02  0.52658041873E+02  0.00000000000E+00 0. -1.
         -5    1    5    5    0  502  0.37457804061E+02  0.60250183450E+02  0.21638949926E+02  0.74320292281E+02  0.47000000000E+01 0.  1.
         13    1    6    6    0    0 -0.35995081764E+02  0.42070248162E+02 -0.25835947469E+02  0.61098673252E+02  0.00000000000E+00 0. -1.
        -14    1    6    6    0    0 -0.10948895198E+02 -0.29892540290E+02 -0.49109560494E+02  0.58525133088E+02  0.00000000000E+00 0.  1.
</event>
<event>
12    1  0.1598254E-001  0.1791615E+03  0.7818608E-02  0.1169294E+00
         21   -1    0    0  501  502  0.00000000000E+00  0.00000000000E+00  0.13277795516E+03  0.13277795516E+03  0.00000000000E+00 0. -1.
         21   -1    0    0  502  503 -0.00000000000E+00 -0.00000000000E+00 -0.23938221236E+03  0.23938221236E+03  0.00000000000E+00 0. -1.
         -6    2    1    2    0  503  0.34708563841E+02 -0.21176081479E+02 -0.39788859780E+02  0.18352650932E+03  0.17448700648E+03 0.  0.
        -24    2    3    3    0    0  0.88644631279E+02 -0.28356317872E+02 -0.15186802308E+02  0.12362653940E+03  0.79943297788E+02 0.  0.
          6    2    1    2  501    0 -0.34708563841E+02  0.21176081479E+02 -0.66815397425E+02  0.18863365820E+03  0.17165444603E+03 0.  0.
         24    2    5    5    0    0 -0.26341185674E+02  0.75548092063E+02 -0.62144191206E+02  0.13322392332E+03  0.86517865013E+02 0.  0.
          5    1    5    5  501    0 -0.83673781665E+01 -0.54372010584E+02 -0.46712062197E+01  0.55409734884E+02  0.47000000000E+01 0. -1.
        -11    1    6    6    0    0  0.19764052455E+02 -0.83074736318E+01 -0.17272924464E+02  0.27531542041E+02  0.00000000000E+00 0.  1.
         12    1    6    6    0    0 -0.46105238129E+02  0.83855565695E+02 -0.44871266742E+02  0.10569238128E+03  0.00000000000E+00 0. -1.
         -5    1    3    3    0  503 -0.53936067438E+02  0.71802363926E+01 -0.24602057472E+02  0.59899969926E+02  0.47000000000E+01 0.  1.
         11    1    4    4    0    0  0.48969319222E+02  0.25835589032E+02 -0.10008399769E+02  0.56264020045E+02  0.00000000000E+00 0. -1.
        -12    1    4    4    0    0  0.39675312057E+02 -0.54191906903E+02 -0.51784025383E+01  0.67362519352E+02  0.00000000000E+00 0.  1.
</event>
<event>
12    1  0.1598254E-001  0.2157809E+03  0.7818608E-02  0.1140772E+00
         21   -1    0    0  503  502  0.00000000000E+00  0.00000000000E+00  0.59871806299E+03  0.59871806299E+03  0.00000000000E+00 0. -1.
         21   -1    0    0  501  503 -0.00000000000E+00 -0.00000000000E+00 -0.81304928001E+02  0.81304928001E+02  0.00000000000E+00 0. -1.
          6    2    1    2  501    0 -0.74872377303E+02  0.61425458157E+02  0.38829861181E+03  0.44422651639E+03  0.19282745172E+03 0.  0.
         24    2    3    3    0    0 -0.41467898284E+02 -0.42568572647E+02  0.15575170851E+03  0.18726198597E+03  0.85304083837E+02 0.  0.
         -6    2    1    2    0  502  0.74872377303E+02 -0.61425458157E+02  0.12911452317E+03  0.23579647459E+03  0.17190246521E+03 0.  0.
        -24    2    5    5    0    0  0.15582027076E+02 -0.63890189340E+02  0.13891197720E+03  0.17546820066E+03  0.84662838203E+02 0.  0.
          5    1    3    3  501    0 -0.33404479018E+02  0.10399403080E+03  0.23254690330E+03  0.25696453043E+03  0.47000000000E+01 0. -1.
        -11    1    4    4    0    0  0.15561871466E+02 -0.35269067859E+02  0.29523210909E+02  0.48556142490E+02  0.00000000000E+00 0.  1.
         12    1    4    4    0    0 -0.57029769751E+02 -0.72995047883E+01  0.12622849760E+03  0.13870584348E+03  0.00000000000E+00 0. -1.
         -5    1    5    5    0  502  0.59290350227E+02  0.24647311827E+01 -0.97974540300E+01  0.60328273929E+02  0.47000000000E+01 0.  1.
         11    1    6    6    0    0  0.40988531754E+02 -0.28517367027E+01  0.53566917004E+02  0.67510049140E+02  0.00000000000E+00 0. -1.
        -12    1    6    6    0    0 -0.25406504678E+02 -0.61038452637E+02  0.85345060198E+02  0.10795815152E+03  0.00000000000E+00 0.  1.
</event>
<event>
12    1  0.1598254E-001  0.2889502E+03  0.7818608E-02  0.1090962E+00
         21   -1    0    0  501  502  0.00000000000E+00  0.00000000000E+00  0.66740775725E+03  0.66740775725E+03  0.00000000000E+00 0. -1.
         21   -1    0    0  502  503 -0.00000000000E+00 -0.00000000000E+00 -0.20620339008E+03  0.20620339008E+03  0.00000000000E+00 0.  1.
         -6    2    1    2    0  503  0.16043618912E+03 -0.16709274807E+03  0.50478238003E+03  0.58139334905E+03  0.17191049384E+03 0.  0.
        -24    2    3    3    0    0  0.18020202309E+03 -0.12519092714E+03  0.35764455803E+03  0.42706227813E+03  0.79542580717E+02 0.  0.
          6    2    1    2  501    0 -0.16043618912E+03  0.16709274807E+03 -0.43578012852E+02  0.29221779828E+03  0.17272070284E+03 0.  0.
         24    2    5    5    0    0 -0.13221649544E+03  0.66797041013E+02 -0.73730101414E+02  0.18365068351E+03  0.79676843203E+02 0.  0.
          5    1    5    5  501    0 -0.28219693675E+02  0.10029570706E+03  0.30152088562E+02  0.10856711477E+03  0.47000000000E+01 0. -1.
        -11    1    6    6    0    0 -0.11471467104E+03  0.82977966548E+02 -0.50359823209E+02  0.15026945956E+03  0.00000000000E+00 0.  1.
         12    1    6    6    0    0 -0.17501824406E+02 -0.16180925534E+02 -0.23370278205E+02  0.33381223945E+02  0.00000000000E+00 0. -1.
         -5    1    3    3    0  503 -0.19765833967E+02 -0.41901820936E+02  0.14713782199E+03  0.15433107092E+03  0.47000000000E+01 0.  1.
         13    1    4    4    0    0  0.10899695195E+03 -0.11534168237E+03  0.27522944324E+03  0.31770314076E+03  0.00000000000E+00 0. -1.
        -14    1    4    4    0    0  0.71205071136E+02 -0.98492447625E+01  0.82415114799E+02  0.10935913736E+03  0.00000000000E+00 0.  1.
</event>
<event>
12    1  0.1598254E-001  0.4024505E+03  0.7818608E-02  0.1042952E+00
         21   -1    0    0  503  502  0.00000000000E+00  0.00000000000E+00  0.14037819604E+04  0.14037819604E+04  0.00000000000E+00 0.  1.
         21   -1    0    0  501  503 -0.00000000000E+00 -0.00000000000E+00 -0.30640500640E+03  0.30640500640E+03  0.00000000000E+00 0.  1.
          6    2    1    2  501    0  0.22093748076E+02 -0.36288827776E+03 -0.12663741237E+03  0.42170818689E+03  0.17211834543E+03 0.  0.
         24    2    3    3    0    0 -0.48286932515E+01 -0.31699481921E+03 -0.15413011964E+03  0.36163351387E+03  0.80707328625E+02 0.  0.
         -6    2    1    2    0  502 -0.22093748076E+02  0.36288827776E+03  0.12240143664E+04  0.12884787799E+04  0.17259884516E+03 0.  0.
        -24    2    5    5    0    0 -0.12125316627E+02  0.20130095830E+03  0.47907360478E+03  0.52613459274E+03  0.81467734479E+02 0.  0.
          5    1    3    3  501    0  0.26922441327E+02 -0.45893458553E+02  0.27492707265E+02  0.60074673014E+02  0.47000000000E+01 0. -1.
        -11    1    4    4    0    0  0.13590685144E+02 -0.47986482731E+02 -0.55264236079E+02  0.74441554504E+02  0.00000000000E+00 0.  1.
         12    1    4    4    0    0 -0.18419378395E+02 -0.26900833648E+03 -0.98865883560E+02  0.28719195937E+03  0.00000000000E+00 0. -1.
         -5    1    5    5    0  502 -0.99684314492E+01  0.16158731946E+03  0.74494076159E+03  0.76234418717E+03  0.47000000000E+01 0.  1.
         13    1    6    6    0    0 -0.44509141515E+02  0.88660479993E+02  0.24603924055E+03  0.26528673597E+03  0.00000000000E+00 0. -1.
        -14    1    6    6    0    0  0.32383824889E+02  0.11264047830E+03  0.23303436423E+03  0.26084785676E+03  0.00000000000E+00 0.  1.
</event>
<event>
12    1  0.1598254E-001  0.1906501E+03  0.7818608E-02  0.1158043E+00
         21   -1    0    0  503  502  0.00000000000E+00  0.00000000000E+00  0.10682502254E+03  0.10682502254E+03  0.00000000000E+00 0.  1.
         21   -1    0    0  501  503 -0.00000000000E+00 -0.00000000000E+00 -0.85900497304E+03  0.85900497304E+03  0.00000000000E+00 0.  1.
          6    2    1    2  501    0 -0.77672321889E+02 -0.24299347647E+02 -0.75155614834E+03  0.77517888472E+03  0.17158732858E+03 0.  0.
         24    2    3    3    0    0 -0.60771117163E+02  0.49968322527E+02 -0.43152127978E+03  0.44617167409E+03  0.81661410225E+02 0.  0.
         -6    2    1    2    0  502  0.77672321889E+02  0.24299347647E+02 -0.62380216179E+00  0.19065111085E+03  0.17240652266E+03 0.  0.
        -24    2    5    5    0    0  0.11536820265E+03 -0.13865029174E+01 -0.21025436144E+02  0.14046088257E+03  0.77301009009E+02 0.  0.
          5    1    3    3  501    0 -0.16901204726E+02 -0.74267670174E+02 -0.32003486856E+03  0.32900721063E+03  0.47000000000E+01 0. -1.
        -13    1    4    4    0    0  0.71080151021E+01  0.16604800012E+01 -0.19970821596E+03  0.19984156874E+03  0.00000000000E+00 0.  1.
         14    1    4    4    0    0 -0.67879132265E+02  0.48307842526E+02 -0.23181306382E+03  0.24633010535E+03  0.00000000000E+00 0. -1.
         -5    1    5    5    0  502 -0.37695880765E+02  0.25685850564E+02  0.20401633982E+02  0.50190228282E+02  0.47000000000E+01 0.  1.
         13    1    6    6    0    0  0.20386807287E+02  0.31873202948E+02 -0.10562023562E+02  0.39282048308E+02  0.00000000000E+00 0. -1.
        -14    1    6    6    0    0  0.94981395367E+02 -0.33259705866E+02 -0.10463412582E+02  0.10117883426E+03  0.00000000000E+00 0.  1.
</event>
<event>
12    1  0.1598254E-001  0.1950378E+03  0.7818608E-02  0.1154145E+00
         21   -1    0    0  503  502  0.00000000000E+00  0.00000000000E+00  0.14834456591E+04  0.14834456591E+04  0.00000000000E+00 0.  1.
         21   -1    0    0  501  503 -0.00000000000E+00 -0.00000000000E+00 -0.25905960788E+02  0.25905960788E+02  0.00000000000E+00 0. -1.
          6    2    1    2  501    0  0.64858968581E+02 -0.63211908506E+02  0.64184772808E+03  0.67082653055E+03  0.17273475869E+03 0.  0.
         24    2    3    3    0    0  0.16418531851E+02 -0.10111954913E+03  0.48930977198E+03  0.50628661691E+03  0.80045949932E+02 0.  0.
         -6    2    1    2    0  502 -0.64858968581E+02  0.63211908506E+02  0.81569197026E+03  0.83852508938E+03  0.17195494752E+03 0.  0.
        -24    2    5    5    0    0 -0.30068280113E+02  0.10301803535E+03  0.67771335800E+03  0.69069036010E+03  0.78999752183E+02 0.  0.
          5    1    3    3  501    0  0.48440436730E+02  0.37907640628E+02  0.15253795611E+03  0.16453991364E+03  0.47000000000E+01 0. -1.
        -13    1    4    4    0    0  0.13313215737E+02 -0.15266151298E+02  0.26987640122E+03  0.27063549107E+03  0.00000000000E+00 0.  1.
         14    1    4    4    0    0  0.31053161139E+01 -0.85853397835E+02  0.21943337076E+03  0.23565112584E+03  0.00000000000E+00 0. -1.
         -5    1    5    5    0  502 -0.34790688468E+02 -0.39806126840E+02  0.13797861226E+03  0.14783472927E+03  0.47000000000E+01 0.  1.
         11    1    6    6    0    0 -0.28004119999E+01  0.34595947586E+02  0.66108294285E+02  0.74666113264E+02  0.00000000000E+00 0. -1.
        -12    1    6    6    0    0 -0.27267868113E+02  0.68422087760E+02  0.61160506372E+03  0.61602424684E+03  0.00000000000E+00 0.  1.
</event>
<event>
12    1  0.1598254E-001  0.4439758E+03  0.7818608E-02  0.1029545E+00
         21   -1    0    0  501  502  0.00000000000E+00  0.00000000000E+00  0.66740073049E+03  0.66740073049E+03  0.00000000000E+00 0.  1.
         21   -1    0    0  502  503 -0.00000000000E+00 -0.00000000000E+00 -0.34307546306E+03  0.34307546306E+03  0.00000000000E+00 0. -1.
         -6    2    1    2    0  503 -0.73032676570E+02  0.40257186553E+03  0.35077547425E+03  0.56571315814E+03  0.17201763048E+03 0.  0.
        -24    2    3    3    0    0 -0.90159865878E+02  0.18430276878E+03  0.13512458268E+03  0.25836622674E+03  0.79988388402E+02 0.  0.
          6    2    1    2  501    0  0.73032676570E+02 -0.40257186553E+03 -0.26450206820E+02  0.44476303540E+03  0.17238522400E+03 0.  0.
         24    2    5    5    0    0  0.61348547682E+02 -0.32011331515E+03  0.40279141356E+02  0.33794156140E+03  0.79661225556E+02 0.  0.
          5    1    5    5  501    0  0.11684128888E+02 -0.82458550379E+02 -0.66729348175E+02  0.10682147399E+03  0.47000000000E+01 0. -1.
        -13    1    6    6    0    0  0.65290786387E+02 -0.13133931820E+03  0.20343963169E+02  0.14807693990E+03  0.00000000000E+00 0.  1.
         14    1    6    6    0    0 -0.39422387044E+01 -0.18877399695E+03  0.19935178186E+02  0.18986462150E+03  0.00000000000E+00 0. -1.
         -5    1    3    3    0  503  0.17127189308E+02  0.21826909675E+03  0.21565089157E+03  0.30734693141E+03  0.47000000000E+01 0.  1.
         13    1    4    4    0    0 -0.14295409936E+01 -0.54942406020E+01 -0.39313053928E+01  0.69054637307E+01  0.00000000000E+00 0. -1.
        -14    1    4    4    0    0 -0.88730324884E+02  0.18979700938E+03  0.13905588808E+03  0.25146076301E+03  0.00000000000E+00 0.  1.
</event>
<event>
12    1  0.1598254E-001  0.1845178E+03  0.7818608E-02  0.1163984E+00
         21   -1    0    0  501  502  0.00000000000E+00  0.00000000000E+00  0.18253022047E+03  0.18253022047E+03  0.00000000000E+00 0. -1.
         21   -1    0    0  502  503 -0.00000000000E+00 -0.00000000000E+00 -0.22839740521E+03  0.22839740521E+03  0.00000000000E+00 0.  1.
         -6    2    1    2    0  503  0.39153810780E+02  0.57409813607E+02  0.67286416293E+02  0.19447769886E+03  0.16871634757E+03 0.  0.
        -24    2    3    3    0    0  0.20153226411E+02  0.10142104550E+03  0.63791224317E+02  0.14618362980E+03  0.81289312434E+02 0.  0.
          6    2    1    2  501    0 -0.39153810780E+02 -0.57409813607E+02 -0.11315360104E+03  0.21644992683E+03  0.17093251826E+03 0.  0.
         24    2    5    5    0    0 -0.25140104351E+02 -0.70113101298E+02 -0.14354040289E+03  0.18034999313E+03  0.79839845572E+02 0.  0.
          5    1    5    5  501    0 -0.14013706430E+02  0.12703287692E+02  0.30386801848E+02  0.36099933692E+02  0.47000000000E+01 0. -1.
        -11    1    6    6    0    0  0.49797353698E+01 -0.56985236004E+02 -0.35265111528E+02  0.67199278105E+02  0.00000000000E+00 0.  1.
         12    1    6    6    0    0 -0.30119839720E+02 -0.13127865295E+02 -0.10827529136E+03  0.11315071503E+03  0.00000000000E+00 0. -1.
         -5    1    3    3    0  503  0.19000584369E+02 -0.44011231893E+02  0.34951919759E+01  0.48294069057E+02  0.47000000000E+01 0.  1.
         11    1    4    4    0    0  0.36382664398E+02  0.43823810655E+02 -0.23288885850E+01  0.57005687182E+02  0.00000000000E+00 0. -1.
        -12    1    4    4    0    0 -0.16229437987E+02  0.57597234845E+02  0.66120112902E+02  0.89177942616E+02  0.00000000000E+00 0.  1.
</event>
<event>
12    1  0.1598254E-001  0.2811169E+03  0.7818608E-02  0.1095110E+00
         21   -1    0    0  501  502  0.00000000000E+00  0.00000000000E+00  0.10013353167E+04  0.10013353167E+04  0.00000000000E+00 0.  1.
         21   -1    0    0  502  503 -0.00000000000E+00 -0.00000000000E+00 -0.13703620452E+03  0.13703620452E+03  0.00000000000E+00 0. -1.
         -6    2    1    2    0  503 -0.18108641551E+03  0.12910664535E+03  0.61193315713E+02  0.28748630837E+03  0.17158945147E+03 0.  0.
        -24    2    3    3    0    0 -0.20109161660E+03  0.94006577274E+02  0.72914286806E+02  0.24515790168E+03  0.74234956035E+02 0.  0.
          6    2    1    2  501    0  0.18108641551E+03 -0.12910664535E+03  0.80310579647E+03  0.85088521286E+03  0.17194740294E+03 0.  0.
         24    2    5    5    0    0  0.76843071574E+02 -0.94332720078E+02  0.27092158708E+03  0.30745350293E+03  0.79533831730E+02 0.  0.
          5    1    5    5  501    0  0.10424334394E+03 -0.34773925271E+02  0.53218420939E+03  0.54343170993E+03  0.47000000000E+01 0. -1.
        -13    1    6    6    0    0  0.10799509314E+02 -0.73538801021E+02  0.11609820334E+03  0.13785273837E+03  0.00000000000E+00 0.  1.
         14    1    6    6    0    0  0.66043562259E+02 -0.20793919057E+02  0.15482338375E+03  0.16960076456E+03  0.00000000000E+00 0. -1.
         -5    1    3    3    0  503  0.20005201088E+02  0.35100068074E+02 -0.11720971093E+02  0.42328406688E+02  0.47000000000E+01 0.  1.
         13    1    4    4    0    0 -0.83360274775E+02  0.20069378729E+02 -0.48214058390E+01  0.85877595025E+02  0.00000000000E+00 0. -1.
        -14    1    4    4    0    0 -0.11773134183E+03  0.73937198545E+02  0.77735692645E+02  0.15928030665E+03  0.00000000000E+00 0.  1.
</event>
<event>
12    1  0.1598254E-001  0.1983147E+03  0.7818608E-02  0.1151266E+00
         21   -1    0    0  501  502  0.00000000000E+00  0.00000000000E+00  0.18113915464E+04  0.18113915464E+04  0.00000000000E+00 0. -1.
         21   -1    0    0  502  503 -0.00000000000E+00 -0.00000000000E+00 -0.35723178409E+02  0.35723178409E+02  0.00000000000E+00 0. -1.
         -6    2    1    2    0  503  0.63183012121E+02 -0.74739261297E+02  0.30778890240E+03  0.36589939955E+03  0.17196020454E+03 0.  0.
        -24    2    3    3    0    0  0.98020698177E+02 -0.21010755990E+02  0.17415819701E+03  0.21764397106E+03  0.83596120811E+02 0.  0.
          6    2    1    2  501    0 -0.63183012121E+02  0.74739261297E+02  0.14678794656E+04  0.14812153252E+04  0.17248380821E+03 0.  0.
         24    2    5    5    0    0 -0.10575451728E+03  0.32890389427E+02  0.11244566534E+04  0.11326109950E+04  0.78352441152E+02 0.  0.
          5    1    5    5  501    0  0.42571505160E+02  0.41848871870E+02  0.34342281217E+03  0.34860433022E+03  0.47000000000E+01 0. -1.
        -11    1    6    6    0    0 -0.10184563909E+02 -0.99965964076E+01  0.43574543316E+03  0.43597905890E+03  0.00000000000E+00 0.  1.
         12    1    6    6    0    0 -0.95569953372E+02  0.42886985834E+02  0.68871122023E+03  0.69663193611E+03  0.00000000000E+00 0. -1.
         -5    1    3    3    0  503 -0.34837686056E+02 -0.53728505307E+02  0.13363070539E+03  0.14825542849E+03  0.47000000000E+01 0.  1.
         13    1    4    4    0    0  0.58638316489E+02 -0.49943651184E+02  0.77127457505E+02  0.10900213372E+03  0.00000000000E+00 0. -1.
        -14    1    4    4    0    0  0.39382381688E+02  0.28932895194E+02  0.97030739506E+02  0.10864183734E+03  0.00000000000E+00 0.  1.
</event>
<event>
12    1  0.1598254E-001  0.1954675E+03  0.7818608E-02  0.1154018E+00
         21   -1    0    0  503  502  0.00000000000E+00  0.00000000000E+00  0.28067779331E+03  0.28067779331E+03  0.00000000000E+00 0.  1.
         21   -1    0    0  501  503 -0.00000000000E+00 -0.00000000000E+00 -0.18101406186E+03  0.18101406186E+03  0.00000000000E+00 0. -1.
          6    2    1    2  501    0  0.34737349465E+02 -0.85442205505E+02 -0.66903771369E+02  0.20488010928E+03  0.17027240124E+03 0.  0.
         24    2    3    3    0    0 -0.30288927676E+01 -0.88499506828E+02  0.91852188556E+01  0.11974926541E+03  0.80088584838E+02 0.  0.
         -6    2    1    2    0  502 -0.34737349465E+02  0.85442205505E+02  0.16656750283E+03  0.25681174589E+03  0.17233828913E+03 0.  0.
        -24    2    5    5    0    0  0.11994789160E+02  0.11469117199E+03  0.11644844462E+03  0.18215650618E+03  0.79516115296E+02 0.  0.
          5    1    3    3  501    0  0.37766242233E+02  0.30573013221E+01 -0.76088990225E+02  0.85130843865E+02  0.47000000000E+01 0. -1.
        -13    1    4    4    0    0  0.35242097524E+02 -0.60038345829E+02 -0.55300676558E+01  0.69836881775E+02  0.00000000000E+00 0.  1.
         14    1    4    4    0    0 -0.38270990291E+02 -0.28461160999E+02  0.14715286511E+02  0.49912383638E+02  0.00000000000E+00 0. -1.
         -5    1    5    5    0  502 -0.46732138626E+02 -0.29248966480E+02  0.50119058204E+02  0.74655239709E+02  0.47000000000E+01 0.  1.
         13    1    6    6    0    0 -0.25175514326E+02  0.22692320114E+02  0.73426804717E+01  0.34679430074E+02  0.00000000000E+00 0. -1.
        -14    1    6    6    0    0  0.37170303487E+02  0.91998851871E+02  0.10910576415E+03  0.14747707611E+03  0.00000000000E+00 0.  1.
</event>
<event>
12    1  0.1598254E-001  0.2325789E+03  0.7818608E-02  0.1125183E+00
         21   -1    0    0  501  502  0.00000000000E+00  0.00000000000E+00  0.10841758621E+03  0.10841758621E+03  0.00000000000E+00 0. -1.
         21   -1    0    0  502  503 -0.00000000000E+00 -0.00000000000E+00 -0.13935189140E+04  0.13935189140E+04  0.00000000000E+00 0. -1.
         -6    2    1    2    0  503 -0.76395935651E+01  0.15658677783E+03 -0.12466428114E+04  0.12681526913E+04  0.17179978726E+03 0.  0.
        -24    2    3    3    0    0 -0.94875780343E+01  0.17635487553E+03 -0.88730980040E+03  0.90824090278E+03  0.79948729440E+02 0.  0.
          6    2    1    2  501    0  0.76395935651E+01 -0.15658677783E+03 -0.38458516387E+02  0.23378380889E+03  0.16910951905E+03 0.  0.
         24    2    5    5    0    0  0.35721257857E+02 -0.42662386813E+02  0.23913508314E+02  0.10081875256E+03  0.80600728761E+02 0.  0.
          5    1    5    5  501    0 -0.28081664292E+02 -0.11392439102E+03 -0.62372024701E+02  0.13296505633E+03  0.47000000000E+01 0. -1.
        -11    1    6    6    0    0  0.58910118551E+02 -0.21410547734E+02  0.24287241005E+01  0.62727285313E+02  0.00000000000E+00 0.  1.
         12    1    6    6    0    0 -0.23188860694E+02 -0.21251839078E+02  0.21484784214E+02  0.38091467249E+02  0.00000000000E+00 0. -1.
         -5    1    3    3    0  503  0.18479844692E+01 -0.19768097700E+02 -0.35933301100E+03  0.35991178853E+03  0.47000000000E+01 0.  1.
         13    1    4    4    0    0 -0.42982849360E+02  0.81788661787E+02 -0.47485297118E+03  0.48375846739E+03  0.00000000000E+00 0. -1.
        -14    1    4    4    0    0  0.33495271326E+02  0.94566213745E+02 -0.41245682922E+03  0.42448243539E+03  0.00000000000E+00 0.  1.
</event>
<event>
12    1  0.1598254E-001  0.3428471E+03  0.7818608E-02  0.1065672E+00
         21   -1    0    0  501  502  0.00000000000E+00  0.00000000000E+00  0.70106440827E+03  0.70106440827E+03  0.00000000000E+00 0.  1.
         21   -1    0    0  502  503 -0.00000000000E+00 -0.00000000000E+00 -0.20996486167E+03  0.20996486167E+03  0.00000000000E+00 0. -1.
         -6    2    1    2    0  503 -0.56748176729E+02 -0.29113122140E+03  0.39948841235E+02  0.34438906086E+03  0.17038242776E+03 0.  0.
        -24    2    3    3    0    0 -0.85118782533E+02 -0.13894608678E+03 -0.90198509247E+01  0.18195375286E+03  0.80464826467E+02 0.  0.
          6    2    1    2  501    0  0.56748176729E+02  0.29113122140E+03  0.45115070537E+03  0.56664020908E+03  0.17194889928E+03 0.  0.
         24    2    5    5    0    0 -0.22749060723E+02  0.21342556734E+03  0.26865733906E+03  0.35290228970E+03  0.79342722988E+02 0.  0.
          5    1    5    5  501    0  0.79497237451E+02  0.77705654062E+02  0.18249336631E+03  0.21373791938E+03  0.47000000000E+01 0. -1.
        -11    1    6    6    0    0 -0.17432276427E+02  0.15956821742E+03  0.24707440792E+03  0.29463819053E+03  0.00000000000E+00 0.  1.
         12    1    6    6    0    0 -0.53167842960E+01  0.53857349920E+02  0.21582931137E+02  0.58264099170E+02  0.00000000000E+00 0. -1.
         -5    1    3    3    0  503  0.28370605804E+02 -0.15218513461E+03  0.48968692160E+02  0.16243530799E+03  0.47000000000E+01 0.  1.
         13    1    4    4    0    0 -0.31237473957E+02 -0.12052572079E+03 -0.15051996671E+01  0.12451704613E+03  0.00000000000E+00 0. -1.
        -14    1    4    4    0    0 -0.53881308576E+02 -0.18420365998E+02 -0.75146512576E+01  0.57436706738E+02  0.00000000000E+00 0.  1.
</event>
<event>
12    1  0.1598254E-001  0.1783963E+03  0.7818608E-02  0.1169745E+00
         21   -1    0    0  501  502  0.00000000000E+00  0.00000000000E+00  0.30952465102E+03  0.30952465102E+03  0.00000000000E+00 0. -1.
         21   -1    0    0  502  503 -0.00000000000E+00 -0.00000000000E+00 -0.12801420878E+03  0.12801420878E+03  0.00000000000E+00 0. -1.
         -6    2    1    2    0  503  0.22616657972E+02 -0.33824150753E+02 -0.83124422089E+01  0.17704324399E+03  0.17210353615E+03 0.  0.
        -24    2    3    3    0    0 -0.12468717156E+02 -0.82123025965E+02 -0.18044242745E+02  0.11637560158E+03  0.79486009115E+02 0.  0.
          6    2    1    2  501    0 -0.22616657972E+02  0.33824150753E+02  0.18982288445E+03  0.26049561581E+03  0.17369413347E+03 0.  0.
         24    2    5    5    0    0 -0.16423163576E+02 -0.42251516378E+02  0.62532742814E+02  0.11200071132E+03  0.81110446146E+02 0.  0.
          5    1    5    5  501    0 -0.61934943958E+01  0.76075667131E+02  0.12729014163E+03  0.14849490449E+03  0.47000000000E+01 0. -1.
        -13    1    6    6    0    0 -0.13005470814E+02  0.14889109564E+02 -0.78569307702E+01  0.21273439211E+02  0.00000000000E+00 0.  1.
         14    1    6    6    0    0 -0.34176927616E+01 -0.57140625943E+02  0.70389673584E+02  0.90727272108E+02  0.00000000000E+00 0. -1.
         -5    1    3    3    0  503  0.35085375128E+02  0.48298875213E+02  0.97318005361E+01  0.60667642416E+02  0.47000000000E+01 0.  1.
         13    1    4    4    0    0  0.95178336085E+01 -0.51069394586E+02 -0.45818613837E+02  0.69267724042E+02  0.00000000000E+00 0. -1.
        -14    1    4    4    0    0 -0.21986550765E+02 -0.31053631379E+02  0.27774371092E+02  0.47107877536E+02  0.00000000000E+00 0.  1.
</event>
<event>
12    1  0.1598254E-001  0.2111336E+03  0.7818608E-02  0.1141463E+00
         21   -1    0    0  503  502  0.00000000000E+00  0.00000000000E+00  0.20269086063E+02  0.20269086063E+02  0.00000000000E+00 0. -1.
         21   -1    0    0  501  503 -0.00000000000E+00 -0.00000000000E+00 -0.25626093284E+04  0.25626093284E+04  0.00000000000E+00 0. -1.
          6    2    1    2  501    0  0.11952103626E+03 -0.18196555812E+02 -0.76819827660E+03  0.79668436047E+03  0.17309241838E+03 0.  0.
         24    2    3    3    0    0  0.85446750597E+02 -0.32744263979E+02 -0.73985416592E+03  0.74979970022E+03  0.80262504403E+02 0.  0.
         -6    2    1    2    0  502 -0.11952103626E+03  0.18196555812E+02 -0.17741419658E+04  0.17861940540E+04  0.16820550278E+03 0.  0.
        -24    2    5    5    0    0 -0.39013714895E+01 -0.26960214418E+02 -0.73800272565E+03  0.74263588329E+03  0.78217378034E+02 0.  0.
          5    1    3    3  501    0  0.34074285666E+02  0.14547708167E+02 -0.28344110677E+02  0.46884660249E+02  0.47000000000E+01 0. -1.
        -11    1    4    4    0    0  0.11262653271E+02 -0.29239159687E+02 -0.82266660795E+02  0.88031694839E+02  0.00000000000E+00 0.  1.
         12    1    4    4    0    0  0.74184097325E+02 -0.35051042922E+01 -0.65758750512E+03  0.66176800538E+03  0.00000000000E+00 0. -1.
         -5    1    5    5    0  502 -0.11561966477E+03  0.45156770230E+02 -0.10361392401E+04  0.10435581708E+04  0.47000000000E+01 0.  1.
         11    1    6    6    0    0 -0.40748461482E+02 -0.94012459656E+01 -0.39855230583E+03  0.40074026628E+03  0.00000000000E+00 0. -1.
        -12    1    6    6    0    0  0.36847089992E+02 -0.17558968453E+02 -0.33945041982E+03  0.34189561701E+03  0.00000000000E+00 0.  1.
</event>
<event>
12    1  0.1598254E-001  0.1934588E+03  0.7818608E-02  0.1156895E+00
         21   -1    0    0  501  502  0.00000000000E+00  0.00000000000E+00  0.10974422409E+03  0.10974422409E+03  0.00000000000E+00 0.  1.
         21   -1    0    0  502  503 -0.00000000000E+00 -0.00000000000E+00 -0.33349655760E+03  0.33349655760E+03  0.00000000000E+00 0.  1.
         -6    2    1    2    0  503  0.68669092394E+02  0.26737572251E+02 -0.84827557381E+02  0.20506776337E+03  0.17154221365E+03 0.  0.
        -24    2    3    3    0    0  0.58914863342E+00  0.65756217612E+02 -0.60037652272E+02  0.12264226475E+03  0.84334916623E+02 0.  0.
          6    2    1    2  501    0 -0.68669092394E+02 -0.26737572251E+02 -0.13892477613E+03  0.23817301832E+03  0.17887412113E+03 0.  0.
         24    2    5    5    0    0 -0.27136751563E+02 -0.86313853054E+02 -0.84044172801E+02  0.14702347531E+03  0.79787184402E+02 0.  0.
          5    1    5    5  501    0 -0.41532340831E+02  0.59576280803E+02 -0.54880603332E+02  0.91149543012E+02  0.47000000000E+01 0. -1.
        -11    1    6    6    0    0 -0.52818775189E+02 -0.37655991556E+02 -0.53569786545E+02  0.84127990247E+02  0.00000000000E+00 0.  1.
         12    1    6    6    0    0  0.25682023626E+02 -0.48657861499E+02 -0.30474386256E+02  0.62895485059E+02  0.00000000000E+00 0. -1.
         -5    1    3    3    0  503  0.68079943760E+02 -0.39018645360E+02 -0.24789905109E+02  0.82425498624E+02  0.47000000000E+01 0.  1.
         11    1    4    4    0    0 -0.27930471000E+02 -0.50202963909E+01 -0.28053185141E+02  0.39903581076E+02  0.00000000000E+00 0. -1.
        -12    1    4    4    0    0  0.28519619633E+02  0.70776514002E+02 -0.31984467132E+02  0.82738683674E+02  0.00000000000E+00 0.  1.
</event>
<event>
12    1  0.1598254E-001  0.2427504E+03  0.7818608E-02  0.1120045E+00
         21   -1    0    0  501  502  0.00000000000E+00  0.00000000000E+00  0.87574488679E+03  0.87574488679E+03  0.00000000000E+00 0. -1.
         21   -1    0    0  502  503 -0.00000000000E+00 -0.00000000000E+00 -0.69846641982E+02  0.69846641982E+02  0.00000000000E+00 0.  1.
         -6    2    1    2    0  503  0.11961932190E+03  0.95596700279E+02  0.27494646801E+03  0.36677423713E+03  0.18836207016E+03 0.  0.
        -24    2    3    3    0    0  0.13093948674E+03  0.13112755491E+03  0.25273188991E+03  0.32311458479E+03  0.78676819213E+02 0.  0.
          6    2    1    2  501    0 -0.11961932190E+03 -0.95596700279E+02  0.53095177680E+03  0.57881729164E+03  0.17225607838E+03 0.  0.
         24    2    5    5    0    0 -0.60330270270E+02 -0.15250387035E+02  0.12799966064E+03  0.16365079539E+03  0.80779662607E+02 0.  0.
          5    1    5    5  501    0 -0.59289051634E+02 -0.80346313243E+02  0.40295211616E+03  0.41516649625E+03  0.47000000000E+01 0. -1.
        -13    1    6    6    0    0 -0.79784934736E+02 -0.14767257109E+02  0.11283119949E+03  0.13897693072E+03  0.00000000000E+00 0.  1.
         14    1    6    6    0    0  0.19454664466E+02 -0.48312992635E+00  0.15168461149E+02  0.24673864667E+02  0.00000000000E+00 0. -1.
         -5    1    3    3    0  503 -0.11320164836E+02 -0.35530854628E+02  0.22214578097E+02  0.43659652341E+02  0.47000000000E+01 0.  1.
         11    1    4    4    0    0  0.35873900760E+02  0.57708288811E+02  0.15145879090E+03  0.16600285749E+03  0.00000000000E+00 0. -1.
        -12    1    4    4    0    0  0.95065585980E+02  0.73419266096E+02  0.10127309901E+03  0.15711172730E+03  0.00000000000E+00 0.  1.
</event>
<event>
12    1  0.1598254E-001  0.2578144E+03  0.7818608E-02  0.1108724E+00
         21   -1    0    0  503  502  0.00000000000E+00  0.00000000000E+00  0.40390647242E+03  0.40390647242E+03  0.00000000000E+00 0. -1.
         21   -1    0    0  501  503 -0.00000000000E+00 -0.00000000000E+00 -0.16500928586E+03  0.16500928586E+03  0.00000000000E+00 0. -1.
          6    2    1    2  501    0 -0.16244566438E+03 -0.10248440297E+03  0.91613353935E+02  0.27199691778E+03  0.16940386634E+03 0.  0.
         24    2    3    3    0    0 -0.17547964678E+03 -0.10976126867E+03  0.49393553343E+02  0.22696982556E+03  0.78961611354E+02 0.  0.
         -6    2    1    2    0  502  0.16244566438E+03  0.10248440297E+03  0.14728383262E+03  0.29691884050E+03  0.17197855612E+03 0.  0.
        -24    2    5    5    0    0  0.22220234327E+02  0.38633705299E+02  0.72215736053E+01  0.88641119111E+02  0.76281025644E+02 0.  0.
          5    1    3    3  501    0  0.13033982402E+02  0.72768656943E+01  0.42219800592E+02  0.45027092218E+02  0.47000000000E+01 0. -1.
        -11    1    4    4    0    0 -0.31355145292E+01 -0.21785820009E+02 -0.10535889379E+02  0.24402015692E+02  0.00000000000E+00 0.  1.
         12    1    4    4    0    0 -0.17234413225E+03 -0.87975448657E+02  0.59929442722E+02  0.20256780987E+03  0.00000000000E+00 0. -1.
         -5    1    5    5    0  502  0.14022543005E+03  0.63850697673E+02  0.14006225901E+03  0.20827772139E+03  0.47000000000E+01 0.  1.
         13    1    6    6    0    0  0.35541297924E+02  0.52428887226E+02  0.19009070156E+02  0.66131057923E+02  0.00000000000E+00 0. -1.
        -14    1    6    6    0    0 -0.13321063597E+02 -0.13795181927E+02 -0.11787496551E+02  0.22510061188E+02  0.00000000000E+00 0.  1.
</event>
<event>
12    1  0.1598254E-001  0.1776450E+03  0.7818608E-02  0.1170240E+00
         21   -1    0    0  503  502  0.00000000000E+00  0.00000000000E+00  0.84298188967E+03  0.84298188967E+03  0.00000000000E+00 0.  1.
         21   -1    0    0  501  503 -0.00000000000E+00 -0.00000000000E+00 -0.39136465940E+02  0.39136465940E+02  0.00000000000E+00 0.  1.
          6    2    1    2  501    0  0.32246897112E+01 -0.45068363858E+02  0.30744965087E+03  0.35508175321E+03  0.17180281603E+03 0.  0.
         24    2    3    3    0    0  0.12769068659E+02  0.30694044611E+00  0.29735371422E+03  0.30739494846E+03  0.76871839134E+02 0.  0.
         -6    2    1    2    0  502 -0.32246897112E+01  0.45068363858E+02  0.49639577286E+03  0.52703660240E+03  0.17122283993E+03 0.  0.
        -24    2    5    5    0    0  0.60589214305E+02  0.13195244614E+02  0.34918177801E+03  0.36338404252E+03  0.79214145791E+02 0.  0.
          5    1    3    3  501    0 -0.95443789478E+01 -0.45375304304E+02  0.10095936650E+02  0.47686804748E+02  0.47000000000E+01 0. -1.
        -11    1    4    4    0    0 -0.13482177432E+02  0.14390555001E+02  0.25416243672E+03  0.25492626664E+03  0.00000000000E+00 0.  1.
         12    1    4    4    0    0  0.26251246091E+02 -0.14083614555E+02  0.43191277499E+02  0.52468681823E+02  0.00000000000E+00 0. -1.
         -5    1    5    5    0  502 -0.63813904016E+02  0.31873119245E+02  0.14721399485E+03  0.16365255988E+03  0.47000000000E+01 0.  1.
         13    1    6    6    0    0  0.27076803434E+02 -0.32908483561E+02  0.17498860353E+03  0.18010311752E+03  0.00000000000E+00 0. -1.
        -14    1    6    6    0    0  0.33512410870E+02  0.46103728174E+02  0.17419317448E+03  0.18328092500E+03  0.00000000000E+00 0.  1.
</event>
<event>
12    1  0.1598254E-001  0.1961402E+03  0.7818608E-02  0.1154209E+00
         21   -1    0    0  501  502  0.00000000000E+00  0.00000000000E+00  0.20933056729E+02  0.20933056729E+02  0.00000000000E+00 0.  1.
         21   -1    0    0  502  503 -0.00000000000E+00 -0.00000000000E+00 -0.26251396193E+04  0.26251396193E+04  0.00000000000E+00 0.  1.
         -6    2    1    2    0  503 -0.91976378387E+02  0.25892142254E+02 -0.56731793798E+03  0.60026712392E+03  0.17129191483E+03 0.  0.
        -24    2    3    3    0    0 -0.28768858531E+02  0.40188488144E+02 -0.49272416728E+03  0.50134343261E+03  0.78264746908E+02 0.  0.
          6    2    1    2  501    0  0.91976378387E+02 -0.25892142254E+02 -0.20368886245E+04  0.20458055521E+04  0.16515153910E+03 0.  0.
         24    2    5    5    0    0  0.26435109085E+02 -0.16872921943E+02 -0.53906093931E+03  0.54651009454E+03  0.84279752349E+02 0.  0.
          5    1    5    5  501    0  0.65541269302E+02 -0.90192203111E+01 -0.14978276852E+04  0.14992954575E+04  0.47000000000E+01 0. -1.
        -11    1    6    6    0    0  0.23892655634E+02  0.19610444985E+02 -0.43704848655E+03  0.43814016951E+03  0.00000000000E+00 0.  1.
         12    1    6    6    0    0  0.25424534510E+01 -0.36483366928E+02 -0.10201245277E+03  0.10836992503E+03  0.00000000000E+00 0. -1.
         -5    1    3    3    0  503 -0.63207519856E+02 -0.14296345890E+02 -0.74593770709E+02  0.98923691302E+02  0.47000000000E+01 0.  1.
         13    1    4    4    0    0 -0.50206737223E+02  0.36818913023E+02 -0.43914099268E+03  0.44353259211E+03  0.00000000000E+00 0. -1.
        -14    1    4    4    0    0  0.21437878692E+02  0.33695751212E+01 -0.53583174599E+02  0.57810840501E+02  0.00000000000E+00 0.  1.
</event>
<event>
12    1  0.1598254E-001  0.1803676E+03  0.7818608E-02  0.1167530E+00
         21   -1    0    0  503  502  0.00000000000E+00  0.00000000000E+00  0.19600945210E+03  0.19600945210E+03  0.00000000000E+00 0.  1.
         21   -1    0    0  501  503 -0.00000000000E+00 -0.00000000000E+00 -0.20417857462E+03  0.20417857462E+03  0.00000000000E+00 0. -1.
          6    2    1    2  501    0 -0.43705530370E+02 -0.26636203960E+02 -0.90987831196E+02  0.20171536888E+03  0.17259966358E+03 0.  0.
         24    2    3    3    0    0 -0.58481453183E+02 -0.68506447763E+02 -0.10078450941E+03  0.15600420924E+03  0.77888267495E+02 0.  0.
         -6    2    1    2    0  502  0.43705530370E+02  0.26636203960E+02  0.82818708672E+02  0.19847265784E+03  0.17295316319E+03 0.  0.
        -24    2    5    5    0    0  0.49343769228E+02 -0.47337047600E+02  0.38371850461E+02  0.11186177580E+03  0.79781290664E+02 0.  0.
          5    1    3    3  501    0  0.14775922813E+02  0.41870243803E+02  0.97966782126E+01  0.45711159634E+02  0.47000000000E+01 0. -1.
        -13    1    4    4    0    0 -0.40232353480E+02 -0.50199284176E+02 -0.14520294680E+02  0.65950355238E+02  0.00000000000E+00 0.  1.
         14    1    4    4    0    0 -0.18249099703E+02 -0.18307163587E+02 -0.86264214728E+02  0.90053854006E+02  0.00000000000E+00 0. -1.
         -5    1    5    5    0  502 -0.56382388577E+01  0.73973251560E+02  0.44446858211E+02  0.86610882045E+02  0.47000000000E+01 0.  1.
         13    1    6    6    0    0  0.61024657023E+02 -0.62375288259E+01  0.14958368984E+02  0.63140069158E+02  0.00000000000E+00 0. -1.
        -14    1    6    6    0    0 -0.11680887795E+02 -0.41099518774E+02  0.23413481477E+02  0.48721706641E+02  0.00000000000E+00 0.  1.
</event>
<event>
12    1  0.1598254E-001  0.2700468E+03  0.7818608E-02  0.1101340E+00
         21   -1    0    0  501  502  0.00000000000E+00  0.00000000000E+00  0.32566893669E+03  0.32566893669E+03  0.00000000000E+00 0. -1.
         21   -1    0    0  502  503 -0.00000000000E+00 -0.00000000000E+00 -0.31000568083E+03  0.31000568083E+03  0.00000000000E+00 0. -1.
         -6    2    1    2    0  503 -0.20778787954E+03 -0.60216398754E+01 -0.16015112176E+03  0.31343874634E+03  0.17141587696E+03 0.  0.
        -24    2    3    3    0    0 -0.14877732045E+03 -0.69806233688E+02 -0.10736631784E+03  0.21165934756E+03  0.79148922034E+02 0.  0.
          6    2    1    2  501    0  0.20778787954E+03  0.60216398754E+01  0.17581437761E+03  0.32223587118E+03  0.17237516721E+03 0.  0.
         24    2    5    5    0    0  0.35055690551E+02 -0.30309770520E+02  0.75739025767E+02  0.11927393746E+03  0.79638486322E+02 0.  0.
          5    1    5    5  501    0  0.17273218899E+03  0.36331410396E+02  0.10007535185E+03  0.20296193373E+03  0.47000000000E+01 0. -1.
        -11    1    6    6    0    0  0.22214390637E+02 -0.12711645145E+01  0.83644437130E+02  0.86553375863E+02  0.00000000000E+00 0.  1.
         12    1    6    6    0    0  0.12841299914E+02 -0.29038606006E+02 -0.79054113630E+01  0.32720561595E+02  0.00000000000E+00 0. -1.
         -5    1    3    3    0  503 -0.59010559088E+02  0.63784593813E+02 -0.52784803919E+02  0.10177939878E+03  0.47000000000E+01 0.  1.
         13    1    4    4    0    0 -0.53989224573E+02 -0.11263070140E+02 -0.79604399358E+02  0.96842932195E+02  0.00000000000E+00 0. -1.
        -14    1    4    4    0    0 -0.94788095880E+02 -0.58543163548E+02 -0.27761918479E+02  0.11481641536E+03  0.00000000000E+00 0.  1.
</event>
<event>
12    1  0.1598254E-001  0.1791995E+03  0.7818608E-02  0.1168844E+00
         21   -1    0    0  503  502  0.00000000000E+00  0.00000000000E+00  0.96055011460E+03  0.96055011460E+03  0.00000000000E+00 0. -1.
         21   -1    0    0  501  503 -0.00000000000E+00 -0.00000000000E+00 -0.56184777172E+02  0.56184777172E+02  0.00000000000E+00 0. -1.
          6    2    1    2  501    0 -0.15491172671E+02 -0.41672163891E+02  0.12643543859E+03  0.21843206811E+03  0.17248218045E+03 0.  0.
         24    2    3    3    0    0 -0.30464509812E+02 -0.91316702111E+02  0.98065662190E+02  0.15913860124E+03  0.80258294658E+02 0.  0.
         -6    2    1    2    0  502  0.15491172671E+02  0.41672163891E+02  0.77792989883E+03  0.79830282366E+03  0.17359701925E+03 0.  0.
        -24    2    5    5    0    0 -0.31760529999E+01  0.52582245194E+02  0.76804535082E+03  0.77406876751E+03  0.80708215735E+02 0.  0.
          5    1    3    3  501    0  0.14973337142E+02  0.49644538220E+02  0.28369776405E+02  0.59293466870E+02  0.47000000000E+01 0. -1.
        -13    1    4    4    0    0 -0.43338125171E+02 -0.20730273463E+02  0.17192784442E+02  0.51024789741E+02  0.00000000000E+00 0.  1.
         14    1    4    4    0    0  0.12873615359E+02 -0.70586428648E+02  0.80872877748E+02  0.10811381150E+03  0.00000000000E+00 0. -1.
         -5    1    5    5    0  502  0.18667225671E+02 -0.10910081303E+02  0.98845480082E+01  0.24234056152E+02  0.47000000000E+01 0.  1.
         13    1    6    6    0    0 -0.19723280426E+02 -0.10884813938E+02  0.36742027915E+03  0.36811023960E+03  0.00000000000E+00 0. -1.
        -14    1    6    6    0    0  0.16547227426E+02  0.63467059132E+02  0.40062507167E+03  0.40595852791E+03  0.00000000000E+00 0.  1.
</event>
<event>
12    1  0.1598254E-001  0.1868656E+03  0.7818608E-02  0.1161418E+00
         21   -1    0    0  503  502  0.00000000000E+00  0.00000000000E+00  0.43184909978E+03  0.43184909978E+03  0.00000000000E+00 0.  1.
         21   -1    0    0  501  503 -0.00000000000E+00 -0.00000000000E+00 -0.23810332921E+03  0.23810332921E+03  0.00000000000E+00 0.  1.
          6    2    1    2  501    0 -0.16751097050E+02 -0.70754722893E+02 -0.17554556216E+03  0.25607462150E+03  0.17167159730E+03 0.  0.
         24    2    3    3    0    0 -0.49048534882E+02 -0.99550289317E+02 -0.15862428782E+03  0.20937634893E+03  0.79754447679E+02 0.  0.
         -6    2    1    2    0  502  0.16751097050E+02  0.70754722893E+02  0.36929133272E+03  0.41387780749E+03  0.17213924901E+03 0.  0.
        -24    2    5    5    0    0  0.74499230805E+02  0.25448248278E+02  0.19501212871E+03  0.22471424191E+03  0.79177089128E+02 0.  0.
          5    1    3    3  501    0  0.32297437832E+02  0.28795566424E+02 -0.16921274334E+02  0.46698272573E+02  0.47000000000E+01 0. -1.
        -13    1    4    4    0    0 -0.41321767998E+02 -0.63147106690E+02 -0.15448568521E+03  0.17193275584E+03  0.00000000000E+00 0.  1.
         14    1    4    4    0    0 -0.77267668838E+01 -0.36403182627E+02 -0.41386026107E+01  0.37443593089E+02  0.00000000000E+00 0. -1.
         -5    1    5    5    0  502 -0.57748133755E+02  0.45306474615E+02  0.17427920401E+03  0.18916356558E+03  0.47000000000E+01 0.  1.
         11    1    6    6    0    0 -0.16629166642E+02  0.84098114973E+01  0.26716655906E+02  0.32573514017E+02  0.00000000000E+00 0. -1.
        -12    1    6    6    0    0  0.91128397447E+02  0.17038436781E+02  0.16829547280E+03  0.19214072789E+03  0.00000000000E+00 0.  1.
</event>
<event>
12    1  0.1598254E-001  0.2453133E+03  0.7818608E-02  0.1117150E+00
         21   -1    0    0  503  502  0.00000000000E+00  0.00000000000E+00  0.99512571555E+03  0.99512571555E+03  0.00000000000E+00 0.  1.
         21   -1    0    0  501  503 -0.00000000000E+00 -0.00000000000E+00 -0.59919697044E+02  0.59919697044E+02  0.00000000000E+00 0. -1.
          6    2    1    2  501    0 -0.36719249386E+02 -0.16949884588E+03  0.40509781076E+03  0.47092785873E+03  0.16610433413E+03 0.  0.
         24    2    3    3    0    0 -0.78180988391E+02 -0.80971586484E+02  0.28095521538E+03  0.31284678635E+03  0.79174578730E+02 0.  0.
         -6    2    1    2    0  502  0.36719249386E+02  0.16949884588E+03  0.53010820775E+03  0.58411755386E+03  0.17349479179E+03 0.  0.
        -24    2    5    5    0    0 -0.37189262591E+02  0.13703255531E+03  0.32048066991E+03  0.35943483804E+03  0.79527231495E+02 0.  0.
          5    1    3    3  501    0  0.41461739005E+02 -0.88527259398E+02  0.12414259538E+03  0.15808107238E+03  0.47000000000E+01 0. -1.
        -11    1    4    4    0    0  0.11670241910E+02 -0.76094569603E+01  0.76675673345E+02  0.77931105884E+02  0.00000000000E+00 0.  1.
         12    1    4    4    0    0 -0.89851230301E+02 -0.73362129524E+02  0.20427954203E+03  0.23491568046E+03  0.00000000000E+00 0. -1.
         -5    1    5    5    0  502  0.73908511976E+02  0.32466290577E+02  0.20962753784E+03  0.22468271582E+03  0.47000000000E+01 0.  1.
         11    1    6    6    0    0  0.42933986753E+01  0.11108014329E+03  0.25035493524E+03  0.27392485303E+03  0.00000000000E+00 0. -1.
        -12    1    6    6    0    0 -0.41482661266E+02  0.25952412013E+02  0.70125734662E+02  0.85509985013E+02  0.00000000000E+00 0.  1.
</event>
<event>
12    1  0.1598254E-001  0.3081015E+03  0.7818608E-02  0.1081595E+00
         21   -1    0    0  501  502  0.00000000000E+00  0.00000000000E+00  0.65018152972E+02  0.65018152972E+02  0.00000000000E+00 0.  1.
         21   -1    0    0  502  503 -0.00000000000E+00 -0.00000000000E+00 -0.15383893125E+04  0.15383893125E+04  0.00000000000E+00 0.  1.
         -6    2    1    2    0  503  0.24624428671E+03  0.68663535050E+02 -0.53806489605E+03  0.61866163341E+03  0.16696542908E+03 0.  0.
        -24    2    3    3    0    0  0.11753763644E+03  0.11609607913E+02 -0.15427625607E+03  0.20983848998E+03  0.79253704734E+02 0.  0.
          6    2    1    2  501    0 -0.24624428671E+03 -0.68663535050E+02 -0.93530626346E+03  0.98474583205E+03  0.17197563051E+03 0.  0.
         24    2    5    5    0    0 -0.10571129473E+03  0.29590739868E+02 -0.40225141138E+03  0.42476994890E+03  0.81072941348E+02 0.  0.
          5    1    5    5  501    0 -0.14053299198E+03 -0.98254274918E+02 -0.53305485208E+03  0.55997588314E+03  0.47000000000E+01 0. -1.
        -11    1    6    6    0    0 -0.65888643615E+02 -0.15722305602E+02 -0.13810877872E+03  0.15382632743E+03  0.00000000000E+00 0.  1.
         12    1    6    6    0    0 -0.39822651115E+02  0.45313045470E+02 -0.26414263265E+03  0.27094362147E+03  0.00000000000E+00 0. -1.
         -5    1    3    3    0  503  0.12870665027E+03  0.57053927137E+02 -0.38378863998E+03  0.40882314343E+03  0.47000000000E+01 0.  1.
         13    1    4    4    0    0  0.39894428710E+02 -0.29384850823E+02 -0.30845081798E+02  0.58364835056E+02  0.00000000000E+00 0. -1.
        -14    1    4    4    0    0  0.77643207725E+02  0.40994458736E+02 -0.12343117427E+03  0.15147365492E+03  0.00000000000E+00 0.  1.
</event>
<event>
12    1  0.1598254E-001  0.1896709E+03  0.7818608E-02  0.1159056E+00
         21   -1    0    0  503  502  0.00000000000E+00  0.00000000000E+00  0.55703073446E+03  0.55703073446E+03  0.00000000000E+00 0.  1.
         21   -1    0    0  501  503 -0.00000000000E+00 -0.00000000000E+00 -0.12868841393E+03  0.12868841393E+03  0.00000000000E+00 0. -1.
          6    2    1    2  501    0 -0.77237692601E+02  0.70002418517E+01 -0.29024573495E+02  0.19058327524E+03  0.17165341357E+03 0.  0.
         24    2    3    3    0    0  0.61123262678E+01 -0.29013555835E+02  0.21029764945E+02  0.86796252610E+02  0.78817456816E+02 0.  0.
         -6    2    1    2    0  502  0.77237692601E+02 -0.70002418517E+01  0.45736689403E+03  0.49513587316E+03  0.17309070625E+03 0.  0.
        -24    2    5    5    0    0  0.18029107688E+02 -0.64449300461E+02  0.29363392483E+03  0.31173296678E+03  0.80484779418E+02 0.  0.
          5    1    3    3  501    0 -0.83350018869E+02  0.36013797687E+02 -0.50054338440E+02  0.10378702263E+03  0.47000000000E+01 0. -1.
        -11    1    4    4    0    0 -0.32398123796E+02 -0.20114216746E+02  0.27133752216E+02  0.46802357314E+02  0.00000000000E+00 0.  1.
         12    1    4    4    0    0  0.38510450064E+02 -0.88993390893E+01 -0.61039872715E+01  0.39993895296E+02  0.00000000000E+00 0. -1.
         -5    1    5    5    0  502  0.59208584914E+02  0.57449058610E+02  0.16373296920E+03  0.18340290637E+03  0.47000000000E+01 0.  1.
         11    1    6    6    0    0 -0.19380340943E+02  0.92716854937E+01  0.74014484175E+02  0.77069485756E+02  0.00000000000E+00 0. -1.
        -12    1    6    6    0    0  0.37409448630E+02 -0.73720985955E+02  0.21961944065E+03  0.23466348103E+03  0.00000000000E+00 0.  1.
</event>
<event>
12    1  0.1598254E-001  0.2040027E+03  0.7818608E-02  0.1146653E+00
         21   -1    0    0  503  502  0.00000000000E+00  0.00000000000E+00  0.25950801344E+03  0.25950801344E+03  0.00000000000E+00 0.  1.
         21   -1    0    0  501  503 -0.00000000000E+00 -0.00000000000E+00 -0.69910156476E+03  0.69910156476E+03  0.00000000000E+00 0.  1.
          6    2    1    2  501    0  0.99661497172E+02  0.42758813737E+02 -0.64077074401E+03  0.67209713662E+03  0.17136710448E+03 0.  0.
         24    2    3    3    0    0  0.13616644459E+03  0.19443114001E+02 -0.48662194893E+03  0.51190920303E+03  0.79566171577E+02 0.  0.
         -6    2    1    2    0  502 -0.99661497172E+02 -0.42758813737E+02  0.20117719269E+03  0.28651244158E+03  0.17279000594E+03 0.  0.
        -24    2    5    5    0    0 -0.84747157833E+01 -0.73419105431E+02  0.11781035266E+03  0.15912640387E+03  0.77328826226E+02 0.  0.
          5    1    3    3  501    0 -0.36504947414E+02  0.23315699737E+02 -0.15414879508E+03  0.16018793358E+03  0.47000000000E+01 0. -1.
        -11    1    4    4    0    0  0.24446448143E+02 -0.29466046629E+01 -0.22767352820E+03  0.22900119378E+03  0.00000000000E+00 0.  1.
         12    1    4    4    0    0  0.11171999644E+03  0.22389718663E+02 -0.25894842072E+03  0.28290800926E+03  0.00000000000E+00 0. -1.
         -5    1    5    5    0  502 -0.91186781388E+02  0.30660291694E+02  0.83366840031E+02  0.12738603771E+03  0.47000000000E+01 0.  1.
         11    1    6    6    0    0 -0.27421323679E+02 -0.21955889979E+02  0.74761969082E+01  0.35914949775E+02  0.00000000000E+00 0. -1.
        -12    1    6    6    0    0  0.18946607896E+02 -0.51463215451E+02  0.11033415575E+03  0.12321145410E+03  0.00000000000E+00 0.  1.
</event>
<event>
12    1  0.1598254E-001  0.2176921E+03  0.7818608E-02  0.1135698E+00
         21   -1    0    0  503  502  0.00000000000E+00  0.00000000000E+00  0.22546123008E+04  0.22546123008E+04  0.00000000000E+00 0.  1.
         21   -1    0    0  501  503 -0.00000000000E+00 -0.00000000000E+00 -0.21063273134E+02  0.21063273134E+02  0.00000000000E+00 0.  1.
          6    2    1    2  501    0  0.57388499454E+02  0.12004001149E+03  0.11907382098E+04  0.12104740166E+04  0.17229862533E+03 0.  0.
         24    2    3    3    0    0  0.27337492189E+02  0.15202986837E+03  0.91957683224E+03  0.93574324534E+03  0.78316354950E+02 0.  0.
         -6    2    1    2    0  502 -0.57388499454E+02 -0.12004001149E+03  0.10428108178E+04  0.10652015573E+04  0.17174664981E+03 0.  0.
        -24    2    5    5    0    0 -0.92269804586E+02 -0.36404833029E+02  0.64327100753E+03  0.65548739045E+03  0.77634407356E+02 0.  0.
          5    1    3    3  501    0  0.30051007265E+02 -0.31989856882E+02  0.27116137760E+03  0.27473077127E+03  0.47000000000E+01 0. -1.
        -13    1    4    4    0    0  0.88240615189E+01  0.81513381082E+02  0.27236466977E+03  0.28443770618E+03  0.00000000000E+00 0.  1.
         14    1    4    4    0    0  0.18513430671E+02  0.70516487290E+02  0.64721216247E+03  0.65130553916E+03  0.00000000000E+00 0. -1.
         -5    1    5    5    0  502  0.34881305132E+02 -0.83635178461E+02  0.39953981031E+03  0.40971416689E+03  0.47000000000E+01 0.  1.
         13    1    6    6    0    0 -0.86008700506E+02 -0.26136775975E+02  0.33112774262E+03  0.34311253191E+03  0.00000000000E+00 0. -1.
        -14    1    6    6    0    0 -0.62611040808E+01 -0.10268057054E+02  0.31214326491E+03  0.31237485854E+03  0.00000000000E+00 0.  1.
</event>
<event>
12    1  0.1598254E-001  0.1958284E+03  0.7818608E-02  0.1153345E+00
         21   -1    0    0  501  502  0.00000000000E+00  0.00000000000E+00  0.22249062514E+03  0.22249062514E+03  0.00000000000E+00 0.  1.
         21   -1    0    0  502  503 -0.00000000000E+00 -0.00000000000E+00 -0.21891176284E+03  0.21891176284E+03  0.00000000000E+00 0.  1.
         -6    2    1    2    0  503  0.90480913041E+02 -0.24264954815E+02  0.10373112787E+03  0.22144959022E+03  0.17176783885E+03 0.  0.
        -24    2    3    3    0    0  0.66025905277E+00 -0.13965299045E+02  0.10438928694E+03  0.13091586189E+03  0.77758434564E+02 0.  0.
          6    2    1    2  501    0 -0.90480913041E+02  0.24264954815E+02 -0.10015226557E+03  0.21995279777E+03  0.17196852412E+03 0.  0.
         24    2    5    5    0    0 -0.11183602393E+03 -0.11387047413E+02 -0.46701945265E+02  0.15208430165E+03  0.91167987917E+02 0.  0.
          5    1    5    5  501    0  0.21355110886E+02  0.35652002228E+02 -0.53450320308E+02  0.67868496114E+02  0.47000000000E+01 0. -1.
        -13    1    6    6    0    0 -0.73223831155E+02 -0.26179455119E+02 -0.69995916761E+02  0.10462562632E+03  0.00000000000E+00 0.  1.
         14    1    6    6    0    0 -0.38612192772E+02  0.14792407706E+02  0.23293971495E+02  0.47458675334E+02  0.00000000000E+00 0. -1.
         -5    1    3    3    0  503  0.89820653988E+02 -0.10299655770E+02 -0.65815907547E+00  0.90533728329E+02  0.47000000000E+01 0.  1.
         11    1    4    4    0    0 -0.24264968985E+02  0.48506609629E+01  0.31205585168E+01  0.24941040818E+02  0.00000000000E+00 0. -1.
        -12    1    4    4    0    0  0.24925228038E+02 -0.18815960008E+02  0.10126872843E+03  0.10597482107E+03  0.00000000000E+00 0.  1.
</event>
<event>
12    1  0.1598254E-001  0.1872143E+03  0.7818608E-02  0.1161110E+00
         21   -1    0    0  501  502  0.00000000000E+00  0.00000000000E+00  0.39116712297E+03  0.39116712297E+03  0.00000000000E+00 0.  1.
         21   -1    0    0  502  503 -0.00000000000E+00 -0.00000000000E+00 -0.91409389479E+02  0.91409389479E+02  0.00000000000E+00 0.  1.
         -6    2    1    2    0  503 -0.72750068962E+02 -0.22197595392E+02  0.11364543932E+03  0.21859361001E+03  0.17053613894E+03 0.  0.
        -24    2    3    3    0    0 -0.40355728602E+01  0.43436553401E+02  0.70629237968E+02  0.11418093338E+03  0.78395001579E+02 0.  0.
          6    2    1    2  501    0  0.72750068962E+02  0.22197595392E+02  0.18611229418E+03  0.26398290244E+03  0.17106689032E+03 0.  0.
         24    2    5    5    0    0  0.78038692867E+00  0.56417041685E+02  0.14428496649E+03  0.17385953711E+03  0.78901809196E+02 0.  0.
          5    1    5    5  501    0  0.71969682033E+02 -0.34219446292E+02  0.41827327690E+02  0.90123365329E+02  0.47000000000E+01 0. -1.
        -13    1    6    6    0    0  0.17748033722E+02  0.58000368273E+02  0.14460959679E+03  0.15681508506E+03  0.00000000000E+00 0.  1.
         14    1    6    6    0    0 -0.16967646794E+02 -0.15833265880E+01 -0.32463029942E+00  0.17044452048E+02  0.00000000000E+00 0. -1.
         -5    1    3    3    0  503 -0.68714496101E+02 -0.65634148793E+02  0.43016201347E+02  0.10441267663E+03  0.47000000000E+01 0.  1.
         11    1    4    4    0    0  0.83579413351E+01  0.65822431256E+01  0.74362581026E+02  0.75119734855E+02  0.00000000000E+00 0. -1.
        -12    1    4    4    0    0 -0.12393514195E+02  0.36854310275E+02 -0.37333430582E+01  0.39061198527E+02  0.00000000000E+00 0.  1.
</event>
<event>
12    1  0.1598254E-001  0.1797078E+03  0.7818608E-02  0.1170023E+00
         21   -1    0    0  503  502  0.00000000000E+00  0.00000000000E+00  0.36227438288E+03  0.36227438288E+03  0.00000000000E+00 0.  1.
         21   -1    0    0  501  503 -0.00000000000E+00 -0.00000000000E+00 -0.11162912469E+03  0.11162912469E+03  0.00000000000E+00 0.  1.
          6    2    1    2  501    0 -0.24917830378E+02 -0.12385164570E+02  0.12430629700E+02  0.18013717564E+03  0.17754039236E+03 0.  0.
         24    2    3    3    0    0  0.20743501162E+01 -0.35188365841E+02 -0.54958777528E+02  0.10390079323E+03  0.80823162443E+02 0.  0.
         -6    2    1    2    0  502  0.24917830378E+02  0.12385164570E+02  0.23821462848E+03  0.29376633194E+03  0.16964126262E+03 0.  0.
        -24    2    5    5    0    0  0.55298191151E+02 -0.40656320984E+02  0.13740587951E+03  0.17577964040E+03  0.85482629077E+02 0.  0.
          5    1    3    3  501    0 -0.26992180494E+02  0.22803201271E+02  0.67389407229E+02  0.76236382408E+02  0.47000000000E+01 0. -1.
        -11    1    4    4    0    0 -0.97664812585E+01  0.24931704097E+02 -0.19278271063E+02  0.32994329217E+02  0.00000000000E+00 0.  1.
         12    1    4    4    0    0  0.11840831375E+02 -0.60120069938E+02 -0.35680506466E+02  0.70906464012E+02  0.00000000000E+00 0. -1.
         -5    1    5    5    0  502 -0.30380360772E+02  0.53041485554E+02  0.10080874898E+03  0.11798669154E+03  0.47000000000E+01 0.  1.
         11    1    6    6    0    0  0.71934469433E+02 -0.15425424364E+02  0.12040976789E+03  0.14110642726E+03  0.00000000000E+00 0. -1.
        -12    1    6    6    0    0 -0.16636278282E+02 -0.25230896620E+02  0.16996111616E+02  0.34673213140E+02  0.00000000000E+00 0.  1.
</event>
<event>
12    1  0.1598254E-001  0.1926491E+03  0.7818608E-02  0.1156546E+00
         21   -1    0    0  503  502  0.00000000000E+00  0.00000000000E+00  0.55305038311E+02  0.55305038311E+02  0.00000000000E+00 0. -1.
         21   -1    0    0  501  503 -0.00000000000E+00 -0.00000000000E+00 -0.66572341670E+03  0.66572341670E+03  0.00000000000E+00 0. -1.
          6    2    1    2  501    0  0.21699674612E+02  0.79084415564E+02 -0.32183661852E+03  0.37405135419E+03  0.17207668606E+03 0.  0.
         24    2    3    3    0    0  0.48858000624E+02 -0.12652950645E+02 -0.14836586289E+03  0.17589103503E+03  0.79862541572E+02 0.  0.
         -6    2    1    2    0  502 -0.21699674612E+02 -0.79084415564E+02 -0.28858175987E+03  0.34697710082E+03  0.17432284906E+03 0.  0.
        -24    2    5    5    0    0  0.30474905213E+02 -0.89133804586E+02 -0.25788150122E+03  0.28543221573E+03  0.78071288835E+02 0.  0.
          5    1    3    3  501    0 -0.27158326013E+02  0.91737366209E+02 -0.17347075563E+03  0.19816031916E+03  0.47000000000E+01 0. -1.
        -13    1    4    4    0    0 -0.96579500544E+01 -0.30350759923E+02 -0.36762940487E+02  0.48641118618E+02  0.00000000000E+00 0.  1.
         14    1    4    4    0    0  0.58515950679E+02  0.17697809277E+02 -0.11160292240E+03  0.12724991641E+03  0.00000000000E+00 0. -1.
         -5    1    5    5    0  502 -0.52174579825E+02  0.10049389022E+02 -0.30700258651E+02  0.61544885091E+02  0.47000000000E+01 0.  1.
         13    1    6    6    0    0 -0.14162104771E+02 -0.41406143422E+02 -0.45097140697E+02  0.62839366831E+02  0.00000000000E+00 0. -1.
        -14    1    6    6    0    0  0.44637009984E+02 -0.47727661164E+02 -0.21278436052E+03  0.22259284890E+03  0.00000000000E+00 0.  1.
</event>
<event>
12    1  0.1598254E-001  0.2182135E+03  0.7818608E-02  0.1135619E+00
         21   -1    0    0  503  502  0.00000000000E+00  0.00000000000E+00  0.31487317976E+03  0.31487317976E+03  0.00000000000E+00 0.  1.
         21   -1    0    0  501  503 -0.00000000000E+00 -0.00000000000E+00 -0.31601636426E+03  0.31601636426E+03  0.00000000000E+00 0.  1.
          6    2    1    2  501    0  0.10854222156E+03  0.74623197322E+02 -0.22935833100E+03  0.31513760483E+03  0.17133718375E+03 0.  0.
         24    2    3    3    0    0  0.56202883507E+02  0.11449940409E+03 -0.14984508589E+03  0.21182272534E+03  0.78399231850E+02 0.  0.
         -6    2    1    2    0  502 -0.10854222156E+03 -0.74623197322E+02  0.22821514650E+03  0.31575193919E+03  0.17397441930E+03 0.  0.
        -24    2    5    5    0    0 -0.15486377817E+02 -0.39410745637E+02  0.35065404210E+02  0.98431393097E+02  0.81646321442E+02 0.  0.
          5    1    3    3  501    0  0.52339338054E+02 -0.39876206771E+02 -0.79513245112E+02  0.10331487948E+03  0.47000000000E+01 0. -1.
        -13    1    4    4    0    0  0.21373053563E+02  0.27342680503E+02 -0.99363219469E+02  0.10524960322E+03  0.00000000000E+00 0.  1.
         14    1    4    4    0    0  0.34829829944E+02  0.87156723589E+02 -0.50481866418E+02  0.10657312212E+03  0.00000000000E+00 0. -1.
         -5    1    5    5    0  502 -0.93055843744E+02 -0.35212451685E+02  0.19314974229E+03  0.21732054610E+03  0.47000000000E+01 0.  1.
         13    1    6    6    0    0  0.58039249206E+01  0.20907760330E+02  0.25939129965E+02  0.33818019602E+02  0.00000000000E+00 0. -1.
        -14    1    6    6    0    0 -0.21290302737E+02 -0.60318505967E+02  0.91262742457E+01  0.64613373495E+02  0.00000000000E+00 0.  1.
</event>
<event>
12    1  0.1598254E-001  0.1890026E+03  0.7818608E-02  0.1160235E+00
         21   -1    0    0  501  502  0.00000000000E+00  0.00000000000E+00  0.17750230058E+03  0.17750230058E+03  0.00000000000E+00 0.  1.
         21   -1    0    0  502  503 -0.00000000000E+00 -0.00000000000E+00 -0.19738173090E+03  0.19738173090E+03  0.00000000000E+00 0.  1.
         -6    2    1    2    0  503 -0.49529954620E+02  0.39780699327E+02 -0.15058005154E+02  0.18581998189E+03  0.17397299131E+03 0.  0.
        -24    2    3    3    0    0 -0.90287374949E+02  0.10363751606E+01  0.15973243476E+02  0.12142030519E+03  0.79591845415E+02 0.  0.
          6    2    1    2  501    0  0.49529954620E+02 -0.39780699327E+02 -0.48214251706E+01  0.18906404959E+03  0.17800631523E+03 0.  0.
         24    2    5    5    0    0 -0.43381817500E+02 -0.36146017959E+02  0.10783056750E+02  0.94663847455E+02  0.75209394348E+02 0.  0.
          5    1    5    5  501    0  0.92911772119E+02 -0.36346813683E+01 -0.15604481921E+02  0.94400202135E+02  0.47000000000E+01 0. -1.
        -13    1    6    6    0    0 -0.45660607324E+02 -0.10546792095E+02  0.35665983590E+02  0.58891325933E+02  0.00000000000E+00 0.  1.
         14    1    6    6    0    0  0.22787898239E+01 -0.25599225864E+02 -0.24882926840E+02  0.35772521522E+02  0.00000000000E+00 0. -1.
         -5    1    3    3    0  503  0.40757420329E+02  0.38744324167E+02 -0.31031248630E+02  0.64399676696E+02  0.47000000000E+01 0.  1.
         11    1    4    4    0    0 -0.17766960656E+02 -0.34083058275E+02 -0.32794304005E+01  0.38575567606E+02  0.00000000000E+00 0. -1.
        -12    1    4    4    0    0 -0.72520414292E+02  0.35119433436E+02  0.19252673877E+02  0.82844737584E+02  0.00000000000E+00 0.  1.
</event>
<event>
12    1  0.1598254E-001  0.2198838E+03  0.7818608E-02  0.1135204E+00
         21   -1    0    0  501  502  0.00000000000E+00  0.00000000000E+00  0.79824755703E+02  0.79824755703E+02  0.00000000000E+00 0.  1.
         21   -1    0    0  502  503 -0.00000000000E+00 -0.00000000000E+00 -0.88021186831E+03  0.88021186831E+03  0.00000000000E+00 0.  1.
         -6    2    1    2    0  503  0.10200385143E+03  0.89307723350E+02 -0.12760132343E+03  0.25422628172E+03  0.17311340046E+03 0.  0.
        -24    2    3    3    0    0  0.53431686058E+02  0.73948843264E+02 -0.15546471253E+03  0.19597159180E+03  0.76890906188E+02 0.  0.
          6    2    1    2  501    0 -0.10200385143E+03 -0.89307723350E+02 -0.67278578917E+03  0.70581034229E+03  0.16476306022E+03 0.  0.
         24    2    5    5    0    0 -0.12846190752E+03 -0.49125105182E+02 -0.57170302410E+03  0.59376353542E+03  0.82432096814E+02 0.  0.
          5    1    5    5  501    0  0.26458056092E+02 -0.40182618168E+02 -0.10108276508E+03  0.11204680688E+03  0.47000000000E+01 0. -1.
        -11    1    6    6    0    0 -0.40752382156E+02  0.18097303930E+02 -0.10350888514E+03  0.11270473976E+03  0.00000000000E+00 0.  1.
         12    1    6    6    0    0 -0.87709525365E+02 -0.67222409112E+02 -0.46819413896E+03  0.48105879566E+03  0.00000000000E+00 0. -1.
         -5    1    3    3    0  503  0.48572165371E+02  0.15358880086E+02  0.27863389097E+02  0.58254689926E+02  0.47000000000E+01 0.  1.
         11    1    4    4    0    0  0.71619106455E+02  0.43600295649E+02 -0.11266805950E+03  0.14044348978E+03  0.00000000000E+00 0. -1.
        -12    1    4    4    0    0 -0.18187420397E+02  0.30348547615E+02 -0.42796653028E+02  0.55528102016E+02  0.00000000000E+00 0.  1.
</event>
<event>
12    1  0.1598254E-001  0.2959598E+03  0.7818608E-02  0.1087319E+00
         21   -1    0    0  501  502  0.00000000000E+00  0.00000000000E+00  0.30370527388E+03  0.30370527388E+03  0.00000000000E+00 0.  1.
         21   -1    0    0  502  503 -0.00000000000E+00 -0.00000000000E+00 -0.32519262749E+03  0.32519262749E+03  0.00000000000E+00 0.  1.
         -6    2    1    2    0  503  0.93358553370E+02 -0.22146026966E+03 -0.11693923344E+03  0.31792643134E+03  0.17216840856E+03 0.  0.
        -24    2    3    3    0    0  0.90677003692E+02 -0.16050570715E+03 -0.14807257925E+03  0.24926767647E+03  0.78895404066E+02 0.  0.
          6    2    1    2  501    0 -0.93358553370E+02  0.22146026966E+03  0.95451879823E+02  0.31097147003E+03  0.17271862461E+03 0.  0.
         24    2    5    5    0    0 -0.11232375164E+03  0.94769861119E+02  0.42210893107E+02  0.17216645921E+03  0.79130135991E+02 0.  0.
          5    1    5    5  501    0  0.18965198272E+02  0.12669040854E+03  0.53240986715E+02  0.13880501082E+03  0.47000000000E+01 0. -1.
        -13    1    6    6    0    0 -0.59812643192E+02  0.54856278094E+02 -0.17693447551E+02  0.83065164890E+02  0.00000000000E+00 0.  1.
         14    1    6    6    0    0 -0.52511108450E+02  0.39913583025E+02  0.59904340659E+02  0.89101294324E+02  0.00000000000E+00 0. -1.
         -5    1    3    3    0  503  0.26815496781E+01 -0.60954562506E+02  0.31133345813E+02  0.68658754872E+02  0.47000000000E+01 0.  1.
         13    1    4    4    0    0 -0.11545297081E+02 -0.30506054954E+01 -0.38843323901E+01  0.12557392910E+02  0.00000000000E+00 0. -1.
        -14    1    4    4    0    0  0.10222230077E+03 -0.15745510165E+03 -0.14418824686E+03  0.23671028356E+03  0.00000000000E+00 0.  1.
</event>
<event>
12    1  0.1598254E-001  0.2020774E+03  0.7818608E-02  0.1148444E+00
         21   -1    0    0  503  502  0.00000000000E+00  0.00000000000E+00  0.34048937941E+02  0.34048937941E+02  0.00000000000E+00 0.  1.
         21   -1    0    0  501  503 -0.00000000000E+00 -0.00000000000E+00 -0.12776183779E+04  0.12776183779E+04  0.00000000000E+00 0.  1.
          6    2    1    2  501    0 -0.56749338543E+02  0.85957220507E+02 -0.79366838065E+03  0.81846731711E+03  0.17137712669E+03 0.  0.
         24    2    3    3    0    0 -0.42103229330E+02 -0.19974393548E+02 -0.38075145467E+03  0.39190138653E+03  0.80270593702E+02 0.  0.
         -6    2    1    2    0  502  0.56749338543E+02 -0.85957220507E+02 -0.44990105929E+03  0.49319999871E+03  0.17385667774E+03 0.  0.
        -24    2    5    5    0    0  0.73577087143E+02 -0.11061762943E+03 -0.26692599206E+03  0.30774576144E+03  0.76211027804E+02 0.  0.
          5    1    3    3  501    0 -0.14646109213E+02  0.10593161406E+03 -0.41291692597E+03  0.42656593057E+03  0.47000000000E+01 0. -1.
        -13    1    4    4    0    0 -0.44676117453E+02  0.10887516334E+02 -0.32402793361E+03  0.32727449526E+03  0.00000000000E+00 0.  1.
         14    1    4    4    0    0  0.25728881225E+01 -0.30861909882E+02 -0.56723521061E+02  0.64626891279E+02  0.00000000000E+00 0. -1.
         -5    1    5    5    0  502 -0.16827748600E+02  0.24660408920E+02 -0.18297506724E+03  0.18545423727E+03  0.47000000000E+01 0.  1.
         11    1    6    6    0    0  0.72678442950E+01 -0.18155225137E+02 -0.22943956053E+01  0.19690048544E+02  0.00000000000E+00 0. -1.
        -12    1    6    6    0    0  0.66309242848E+02 -0.92462404290E+02 -0.26463159645E+03  0.28805571290E+03  0.00000000000E+00 0.  1.
</event>
<event>
12    1  0.1598254E-001  0.1870716E+03  0.7818608E-02  0.1161149E+00
         21   -1    0    0  501  502  0.00000000000E+00  0.00000000000E+00  0.18994111287E+03  0.18994111287E+03  0.00000000000E+00 0.  1.
         21   -1    0    0  502  503 -0.00000000000E+00 -0.00000000000E+00 -0.24640310804E+03  0.24640310804E+03  0.00000000000E+00 0.  1.
         -6    2    1    2    0  503  0.36220425266E+02 -0.60492986111E+02  0.81417437840E+02  0.20402099057E+03  0.17327563254E+03 0.  0.
        -24    2    3    3    0    0  0.27124493670E+02 -0.83524851064E+02 -0.40831915567E+00  0.11840120733E+03  0.79413728471E+02 0.  0.
          6    2    1    2  501    0 -0.36220425266E+02  0.60492986111E+02 -0.13787943300E+03  0.23232323034E+03  0.17318205662E+03 0.  0.
         24    2    5    5    0    0 -0.40182916134E+02  0.98134727220E+02 -0.11703719863E+03  0.18885955883E+03  0.10356223087E+03 0.  0.
          5    1    5    5  501    0  0.39624908681E+01 -0.37641741109E+02 -0.20842234372E+02  0.43463671511E+02  0.47000000000E+01 0. -1.
        -11    1    6    6    0    0 -0.49549653005E+01  0.43199053137E+02 -0.11568291550E+03  0.12358497810E+03  0.00000000000E+00 0.  1.
         12    1    6    6    0    0 -0.35227950834E+02  0.54935674083E+02 -0.13542831321E+01  0.65274580732E+02  0.00000000000E+00 0. -1.
         -5    1    3    3    0  503  0.90959315959E+01  0.23031864953E+02  0.81825756995E+02  0.85619783244E+02  0.47000000000E+01 0.  1.
         11    1    4    4    0    0  0.37927712258E+00  0.32506806093E+00 -0.26576608583E+02  0.26581302529E+02  0.00000000000E+00 0. -1.
        -12    1    4    4    0    0  0.26745216548E+02 -0.83849919125E+02  0.26168289427E+02  0.91819904797E+02  0.00000000000E+00 0.  1.
</event>
<event>
12    1  0.1598254E-001  0.1736852E+03  0.7818608E-02  0.1174868E+00
         21   -1    0    0  503  502  0.00000000000E+00  0.00000000000E+00  0.50930310830E+02  0.50930310830E+02  0.00000000000E+00 0.  1.
         21   -1    0    0  501  503 -0.00000000000E+00 -0.00000000000E+00 -0.88433638263E+03  0.88433638263E+03  0.00000000000E+00 0.  1.
          6    2    1    2  501    0 -0.61208053490E+01 -0.24277356746E+02 -0.69282864710E+03  0.71426752369E+03  0.17187119262E+03 0.  0.
         24    2    3    3    0    0 -0.51393718581E+02 -0.43737946870E+02 -0.60087898089E+03  0.60983964257E+03  0.79337996359E+02 0.  0.
         -6    2    1    2    0  502  0.61208053490E+01  0.24277356746E+02 -0.14057742470E+03  0.22099916976E+03  0.16867651405E+03 0.  0.
        -24    2    5    5    0    0 -0.18947432210E+02  0.59603846902E+02 -0.14640669407E+03  0.17703955395E+03  0.77436811933E+02 0.  0.
          5    1    3    3  501    0  0.45272913232E+02  0.19460590124E+02 -0.91949666214E+02  0.10442788113E+03  0.47000000000E+01 0. -1.
        -11    1    4    4    0    0  0.54839097718E+01  0.13816450297E+02 -0.21786494361E+03  0.21837147528E+03  0.00000000000E+00 0.  1.
         12    1    4    4    0    0 -0.56877628352E+02 -0.57554397167E+02 -0.38301403728E+03  0.39146816728E+03  0.00000000000E+00 0. -1.
         -5    1    5    5    0  502  0.25068237559E+02 -0.35326490155E+02  0.58292693706E+01  0.43959615813E+02  0.47000000000E+01 0.  1.
         11    1    6    6    0    0 -0.40509137635E+02  0.26938695098E+02 -0.12090385412E+03  0.13032430881E+03  0.00000000000E+00 0. -1.
        -12    1    6    6    0    0  0.21561705425E+02  0.32665151804E+02 -0.25502839947E+02  0.46715245141E+02  0.00000000000E+00 0.  1.
</event>
<event>
12    1  0.1598254E-001  0.2024930E+03  0.7818608E-02  0.1147996E+00
         21   -1    0    0  503  502  0.00000000000E+00  0.00000000000E+00  0.47234934038E+03  0.47234934038E+03  0.00000000000E+00 0. -1.
         21   -1    0    0  501  503 -0.00000000000E+00 -0.00000000000E+00 -0.11768781842E+03  0.11768781842E+03  0.00000000000E+00 0.  1.
          6    2    1    2  501    0  0.72961247401E+02 -0.74761675709E+02  0.23965996821E+02  0.20227052892E+03  0.17154109155E+03 0.  0.
         24    2    3    3    0    0 -0.11619267991E+02 -0.19450010616E+02 -0.31358658302E+02  0.86961590220E+02  0.77882234313E+02 0.  0.
         -6    2    1    2    0  502 -0.72961247401E+02  0.74761675709E+02  0.33069552514E+03  0.38776662989E+03  0.17346693382E+03 0.  0.
        -24    2    5    5    0    0 -0.65331773072E+02  0.86286138053E+01  0.10135021263E+03  0.14890861113E+03  0.86943748016E+02 0.  0.
          5    1    3    3  501    0  0.84580515393E+02 -0.55311665093E+02  0.55324655123E+02  0.11530893870E+03  0.47000000000E+01 0. -1.
        -11    1    4    4    0    0 -0.44815020436E+02 -0.93324731295E+01 -0.12440958845E+02  0.47436890375E+02  0.00000000000E+00 0.  1.
         12    1    4    4    0    0  0.33195752445E+02 -0.10117537487E+02 -0.18917699456E+02  0.39524699846E+02  0.00000000000E+00 0. -1.
         -5    1    5    5    0  502 -0.76294743291E+01  0.66133061904E+02  0.22934531251E+03  0.23885801876E+03  0.47000000000E+01 0.  1.
         13    1    6    6    0    0  0.12639536552E+01  0.33711383716E+02  0.53172779128E+02  0.62971417414E+02  0.00000000000E+00 0. -1.
        -14    1    6    6    0    0 -0.66595726728E+02 -0.25082769910E+02  0.48177433501E+02  0.85937193714E+02  0.00000000000E+00 0.  1.
</event>
<event>
12    1  0.1598254E-001  0.2438696E+03  0.7818608E-02  0.1117359E+00
         21   -1    0    0  503  502  0.00000000000E+00  0.00000000000E+00  0.49925756857E+03  0.49925756857E+03  0.00000000000E+00 0.  1.
         21   -1    0    0  501  503 -0.00000000000E+00 -0.00000000000E+00 -0.68825135851E+03  0.68825135851E+03  0.00000000000E+00 0. -1.
          6    2    1    2  501    0 -0.17151246786E+03  0.36921942193E+02 -0.63457113759E+03  0.67956056592E+03  0.16835164876E+03 0.  0.
         24    2    3    3    0    0 -0.79263760800E+02 -0.44644170022E+01 -0.49295253498E+03  0.50548996734E+03  0.78836733492E+02 0.  0.
         -6    2    1    2    0  502  0.17151246786E+03 -0.36921942193E+02  0.44557734765E+03  0.50794836116E+03  0.16938892648E+03 0.  0.
        -24    2    5    5    0    0  0.57261292258E+02 -0.71472474471E+02  0.26008405686E+03  0.28731989215E+03  0.80757870170E+02 0.  0.
          5    1    3    3  501    0 -0.92248707064E+02  0.41386359195E+02 -0.14161860261E+03  0.17407059857E+03  0.47000000000E+01 0. -1.
        -11    1    4    4    0    0 -0.89468460278E+02 -0.21506855450E+02 -0.40419297620E+03  0.41453481425E+03  0.00000000000E+00 0.  1.
         12    1    4    4    0    0  0.10204699478E+02  0.17042438448E+02 -0.88759558781E+02  0.90955153096E+02  0.00000000000E+00 0. -1.
         -5    1    5    5    0  502  0.11425117561E+03  0.34550532278E+02  0.18549329078E+03  0.22062846900E+03  0.47000000000E+01 0.  1.
         13    1    6    6    0    0 -0.25071338976E+01 -0.65914394025E+01 -0.45349056444E+01  0.83843999774E+01  0.00000000000E+00 0. -1.
        -14    1    6    6    0    0  0.59768426156E+02 -0.64881035068E+02  0.26461896251E+03  0.27893549218E+03  0.00000000000E+00 0.  1.
</event>
<event>
12    1  0.1598254E-001  0.2394929E+03  0.7818608E-02  0.1120346E+00
         21   -1    0    0  501  502  0.00000000000E+00  0.00000000000E+00  0.36867389103E+03  0.36867389103E+03  0.00000000000E+00 0.  1.
         21   -1    0    0  502  503 -0.00000000000E+00 -0.00000000000E+00 -0.15999433814E+03  0.15999433814E+03  0.00000000000E+00 0. -1.
         -6    2    1    2    0  503 -0.97348956277E+02 -0.13424087000E+03  0.56180043677E+02  0.24474403456E+03  0.17101466217E+03 0.  0.
        -24    2    3    3    0    0 -0.11299320022E+03 -0.13104546809E+03  0.46690803038E+01  0.19061065937E+03  0.79813815542E+02 0.  0.
          6    2    1    2  501    0  0.97348956277E+02  0.13424087000E+03  0.15249950921E+03  0.28392419461E+03  0.17279877750E+03 0.  0.
         24    2    5    5    0    0  0.12389691887E+02  0.68046857926E+02  0.13980037947E+03  0.17537429025E+03  0.80175533927E+02 0.  0.
          5    1    5    5  501    0  0.84959264390E+02  0.66194012072E+02  0.12699129741E+02  0.10854990436E+03  0.47000000000E+01 0. -1.
        -11    1    6    6    0    0  0.46109007596E+02  0.47517856158E+02  0.92702708716E+02  0.11392005723E+03  0.00000000000E+00 0.  1.
         12    1    6    6    0    0 -0.33719315709E+02  0.20529001768E+02  0.47097670756E+02  0.61454233020E+02  0.00000000000E+00 0. -1.
         -5    1    3    3    0  503  0.15644243942E+02 -0.31954019109E+01  0.51510963373E+02  0.54133375191E+02  0.47000000000E+01 0.  1.
         11    1    4    4    0    0 -0.21493676707E+02 -0.83211176246E+02  0.13453774934E+02  0.86988976604E+02  0.00000000000E+00 0. -1.
        -12    1    4    4    0    0 -0.91499523512E+02 -0.47834291842E+02 -0.87846946303E+01  0.10362168276E+03  0.00000000000E+00 0.  1.
</event>
<event>
12    1  0.1598254E-001  0.1831484E+03  0.7818608E-02  0.1165405E+00
         21   -1    0    0  501  502  0.00000000000E+00  0.00000000000E+00  0.35825697554E+03  0.35825697554E+03  0.00000000000E+00 0.  1.
         21   -1    0    0  502  503 -0.00000000000E+00 -0.00000000000E+00 -0.97303509999E+02  0.97303509999E+02  0.00000000000E+00 0.  1.
         -6    2    1    2    0  503  0.53130446284E+02  0.30383722545E+02  0.78027597260E+02  0.19670682599E+03  0.16988011813E+03 0.  0.
        -24    2    3    3    0    0 -0.63137158716E+01  0.65694949057E+02  0.70231785864E+02  0.12696906141E+03  0.82661656594E+02 0.  0.
          6    2    1    2  501    0 -0.53130446284E+02 -0.30383722545E+02  0.18292586828E+03  0.25885365956E+03  0.17261902809E+03 0.  0.
         24    2    5    5    0    0 -0.62616619944E+00 -0.72369924883E+02  0.14085618705E+03  0.17940878122E+03  0.84316352145E+02 0.  0.
          5    1    5    5  501    0 -0.52504280085E+02  0.41986202338E+02  0.42069681237E+02  0.79444878333E+02  0.47000000000E+01 0. -1.
        -13    1    6    6    0    0  0.37616314740E+02 -0.52932021747E+02  0.10519313502E+03  0.12362193056E+03  0.00000000000E+00 0.  1.
         14    1    6    6    0    0 -0.38242480939E+02 -0.19437903136E+02  0.35663052027E+02  0.55786850660E+02  0.00000000000E+00 0. -1.
         -5    1    3    3    0  503  0.59444162156E+02 -0.35311226513E+02  0.77958113966E+01  0.69737764573E+02  0.47000000000E+01 0.  1.
         13    1    4    4    0    0  0.37631850637E+02  0.39448918066E+02  0.33908666838E+02  0.64204135425E+02  0.00000000000E+00 0. -1.
        -14    1    4    4    0    0 -0.43945566509E+02  0.26246030992E+02  0.36323119025E+02  0.62764925988E+02  0.00000000000E+00 0.  1.
</event>
<event>
12    1  0.1598254E-001  0.1893696E+03  0.7818608E-02  0.1159182E+00
         21   -1    0    0  503  502  0.00000000000E+00  0.00000000000E+00  0.12017510054E+04  0.12017510054E+04  0.00000000000E+00 0.  1.
         21   -1    0    0  501  503 -0.00000000000E+00 -0.00000000000E+00 -0.31182174838E+02  0.31182174838E+02  0.00000000000E+00 0.  1.
          6    2    1    2  501    0  0.29372044790E+02 -0.73394150007E+02  0.71901720900E+03  0.74353653723E+03  0.17207968239E+03 0.  0.
         24    2    3    3    0    0  0.12594720416E+01 -0.86905205170E+01  0.15121993639E+03  0.17135412820E+03  0.80110278207E+02 0.  0.
         -6    2    1    2    0  502 -0.29372044790E+02  0.73394150007E+02  0.45155162153E+03  0.48939664297E+03  0.17134990218E+03 0.  0.
        -24    2    5    5    0    0  0.21179048704E+02 -0.18235471029E+02  0.18881180792E+03  0.20654385412E+03  0.78926423707E+02 0.  0.
          5    1    3    3  501    0  0.28112572749E+02 -0.64703629490E+02  0.56779727261E+03  0.57218240903E+03  0.47000000000E+01 0. -1.
        -13    1    4    4    0    0  0.14104494917E+02 -0.34398394027E+02  0.33064143932E+02  0.49753632053E+02  0.00000000000E+00 0.  1.
         14    1    4    4    0    0 -0.12845022875E+02  0.25707873510E+02  0.11815579245E+03  0.12160049615E+03  0.00000000000E+00 0. -1.
         -5    1    5    5    0  502 -0.50551093494E+02  0.91629621035E+02  0.26273981361E+03  0.28285278885E+03  0.47000000000E+01 0.  1.
         11    1    6    6    0    0  0.16778399131E+02 -0.22976972943E+02  0.14173743323E+02  0.31786018355E+02  0.00000000000E+00 0. -1.
        -12    1    6    6    0    0  0.44006495721E+01  0.47415019147E+01  0.17463806459E+03  0.17475783577E+03  0.00000000000E+00 0.  1.
</event>
<event>
12    1  0.1598254E-001  0.2734465E+03  0.7818608E-02  0.1099370E+00
         21   -1    0    0  503  502  0.00000000000E+00  0.00000000000E+00  0.10909368611E+04  0.10909368611E+04  0.00000000000E+00 0.  1.
         21   -1    0    0  501  503 -0.00000000000E+00 -0.00000000000E+00 -0.98076721605E+02  0.98076721605E+02  0.00000000000E+00 0. -1.
          6    2    1    2  501    0  0.20982898130E+03 -0.30993837123E+02  0.16950179855E+03  0.32143539056E+03  0.17204950236E+03 0.  0.
         24    2    3    3    0    0  0.15919142880E+03 -0.86103085333E+02  0.12872710282E+03  0.23607816021E+03  0.80041104566E+02 0.  0.
         -6    2    1    2    0  502 -0.20982898130E+03  0.30993837123E+02  0.82335834092E+03  0.86757819212E+03  0.17258082903E+03 0.  0.
        -24    2    5    5    0    0 -0.10164692889E+03  0.28414983877E+02  0.24623994718E+03  0.28038338855E+03  0.82711689177E+02 0.  0.
          5    1    3    3  501    0  0.50637552492E+02  0.55109248210E+02  0.40774695735E+02  0.85357230350E+02  0.47000000000E+01 0. -1.
        -11    1    4    4    0    0  0.92457014128E+02 -0.17136978972E+02  0.96765816423E+02  0.13492812434E+03  0.00000000000E+00 0.  1.
         12    1    4    4    0    0  0.66734414676E+02 -0.68966106361E+02  0.31961286393E+02  0.10115003587E+03  0.00000000000E+00 0. -1.
         -5    1    5    5    0  502 -0.10818205241E+03  0.25788532455E+01  0.57711839374E+03  0.58719480357E+03  0.47000000000E+01 0.  1.
         13    1    6    6    0    0 -0.11991304845E+02 -0.42573858195E+01 -0.33634138799E+01  0.13161659425E+02  0.00000000000E+00 0. -1.
        -14    1    6    6    0    0 -0.89655624043E+02  0.32672369697E+02  0.24960336106E+03  0.26722172912E+03  0.00000000000E+00 0.  1.
</event>
<event>
12    1  0.1598254E-001  0.1850150E+03  0.7818608E-02  0.1163813E+00
         21   -1    0    0  503  502  0.00000000000E+00  0.00000000000E+00  0.26754366181E+03  0.26754366181E+03  0.00000000000E+00 0.  1.
         21   -1    0    0  501  503 -0.00000000000E+00 -0.00000000000E+00 -0.14994579344E+03  0.14994579344E+03  0.00000000000E+00 0.  1.
          6    2    1    2  501    0  0.54694297084E+02  0.25039978626E+02 -0.24738660772E+02  0.18666160424E+03  0.17496310038E+03 0.  0.
         24    2    3    3    0    0  0.41234377527E+02  0.78589419080E+02 -0.42761634775E+02  0.12838957321E+03  0.82333191484E+02 0.  0.
         -6    2    1    2    0  502 -0.54694297084E+02 -0.25039978626E+02  0.14233652914E+03  0.23082785101E+03  0.17147402898E+03 0.  0.
        -24    2    5    5    0    0 -0.32587162584E+00 -0.73688870863E+02  0.82976640360E+02  0.13665605694E+03  0.79747095071E+02 0.  0.
          5    1    3    3  501    0  0.13459919557E+02 -0.53549440454E+02  0.18022974003E+02  0.58272031022E+02  0.47000000000E+01 0. -1.
        -11    1    4    4    0    0 -0.72239439285E+01  0.10276450298E+02 -0.42830683603E+02  0.44634720280E+02  0.00000000000E+00 0.  1.
         12    1    4    4    0    0  0.48458321455E+02  0.68312968783E+02  0.69048827739E-01  0.83754852934E+02  0.00000000000E+00 0. -1.
         -5    1    5    5    0  502 -0.54368425458E+02  0.48648892237E+02  0.59359888776E+02  0.94171794069E+02  0.47000000000E+01 0.  1.
         11    1    6    6    0    0  0.23567709927E+02 -0.50815227468E+02  0.86856299372E+02  0.10335202482E+03  0.00000000000E+00 0. -1.
        -12    1    6    6    0    0 -0.23893581553E+02 -0.22873643395E+02 -0.38796590121E+01  0.33304032123E+02  0.00000000000E+00 0.  1.
</event>
<event>
12    1  0.1598254E-001  0.2036251E+03  0.7818608E-02  0.1146747E+00
         21   -1    0    0  501  502  0.00000000000E+00  0.00000000000E+00  0.17651711919E+03  0.17651711919E+03  0.00000000000E+00 0.  1.
         21   -1    0    0  502  503 -0.00000000000E+00 -0.00000000000E+00 -0.15693641462E+04  0.15693641462E+04  0.00000000000E+00 0.  1.
         -6    2    1    2    0  503  0.50342425415E+02 -0.97475370674E+02 -0.15014020756E+04  0.15151273472E+04  0.17136766895E+03 0.  0.
        -24    2    3    3    0    0  0.44367947064E+02 -0.13015987884E+03 -0.13748534064E+04  0.13842051293E+04  0.83017119339E+02 0.  0.
          6    2    1    2  501    0 -0.50342425415E+02  0.97475370674E+02  0.10855504855E+03  0.23075391823E+03  0.17154406003E+03 0.  0.
         24    2    5    5    0    0 -0.28318236317E+02  0.82559307041E+01 -0.36320610295E+01  0.85656671779E+02  0.80335488129E+02 0.  0.
          5    1    5    5  501    0 -0.22024189098E+02  0.89219439970E+02  0.11218710958E+03  0.14509724645E+03  0.47000000000E+01 0. -1.
        -13    1    6    6    0    0 -0.48462556416E+02  0.27100186905E+02 -0.12047576300E+02  0.56817106573E+02  0.00000000000E+00 0.  1.
         14    1    6    6    0    0  0.20144320099E+02 -0.18844256200E+02  0.84155152706E+01  0.28839565206E+02  0.00000000000E+00 0. -1.
         -5    1    3    3    0  503  0.59744783508E+01  0.32684508169E+02 -0.12654866917E+03  0.13092221788E+03  0.47000000000E+01 0.  1.
         13    1    4    4    0    0  0.56809719725E+01 -0.12060182646E+03 -0.10474973523E+04  0.10544324431E+04  0.00000000000E+00 0. -1.
        -14    1    4    4    0    0  0.38686975091E+02 -0.95580523837E+01 -0.32735605411E+03  0.32977268620E+03  0.00000000000E+00 0.  1.
</event>
<event>
12    1  0.1598254E-001  0.1745644E+03  0.7818608E-02  0.1173236E+00
         21   -1    0    0  503  502  0.00000000000E+00  0.00000000000E+00  0.12447688153E+04  0.12447688153E+04  0.00000000000E+00 0. -1.
         21   -1    0    0  501  503 -0.00000000000E+00 -0.00000000000E+00 -0.31832223618E+02  0.31832223618E+02  0.00000000000E+00 0.  1.
          6    2    1    2  501    0  0.25693661694E+02  0.29389054429E+01  0.29860872473E+03  0.34575831712E+03  0.17237413367E+03 0.  0.
         24    2    3    3    0    0 -0.22680057314E+02 -0.41873416163E+02  0.66415409668E+02  0.10433755079E+03  0.64865629437E+02 0.  0.
         -6    2    1    2    0  502 -0.25693661694E+02 -0.29389054429E+01  0.91432786691E+03  0.93084272176E+03  0.17263812735E+03 0.  0.
        -24    2    5    5    0    0 -0.73602138693E+02  0.13213635891E+02  0.76828635326E+03  0.77622596823E+03  0.81675933780E+02 0.  0.
          5    1    3    3  501    0  0.48373719008E+02  0.44812321606E+02  0.23219331506E+03  0.24142076633E+03  0.47000000000E+01 0. -1.
        -13    1    4    4    0    0 -0.15371524825E+02 -0.30908528884E+02  0.78939986479E+02  0.86157660126E+02  0.00000000000E+00 0.  1.
         14    1    4    4    0    0 -0.73085324890E+01 -0.10964887279E+02 -0.12524576811E+02  0.18179890662E+02  0.00000000000E+00 0. -1.
         -5    1    5    5    0  502  0.47908476999E+02 -0.16152541334E+02  0.14604151365E+03  0.15461675352E+03  0.47000000000E+01 0.  1.
         13    1    6    6    0    0 -0.47332685766E+02  0.13346150914E+02  0.71623355562E+03  0.71791991830E+03  0.00000000000E+00 0. -1.
        -14    1    6    6    0    0 -0.26269452927E+02 -0.13251502291E+00  0.52052797638E+02  0.58306049937E+02  0.00000000000E+00 0.  1.
</event>
<event>
12    1  0.1598254E-001  0.1881661E+03  0.7818608E-02  0.1160457E+00
         21   -1    0    0  503  502  0.00000000000E+00  0.00000000000E+00  0.48449326535E+03  0.48449326535E+03  0.00000000000E+00 0. -1.
         21   -1    0    0  501  503 -0.00000000000E+00 -0.00000000000E+00 -0.73737424274E+02  0.73737424274E+02  0.00000000000E+00 0. -1.
          6    2    1    2  501    0  0.72330592359E+02 -0.19318550808E+02  0.17029692028E+03  0.25378640158E+03  0.17263132849E+03 0.  0.
         24    2    3    3    0    0  0.65264095216E+02  0.19692680526E+02  0.31012653038E+02  0.10889330771E+03  0.79049124120E+02 0.  0.
         -6    2    1    2    0  502 -0.72330592359E+02  0.19318550808E+02  0.24045892080E+03  0.30444428805E+03  0.17105820920E+03 0.  0.
        -24    2    5    5    0    0 -0.11048025240E+03  0.12399368471E+02  0.13647066086E+03  0.19336359732E+03  0.80035048486E+02 0.  0.
          5    1    3    3  501    0  0.70664971425E+01 -0.39011231334E+02  0.13928426724E+03  0.14489309388E+03  0.47000000000E+01 0. -1.
        -13    1    4    4    0    0 -0.17503352709E+02 -0.44211299101E+01  0.73872230261E+01  0.19506019835E+02  0.00000000000E+00 0.  1.
         14    1    4    4    0    0  0.82767447925E+02  0.24113810436E+02  0.23625430012E+02  0.89387287872E+02  0.00000000000E+00 0. -1.
         -5    1    5    5    0  502  0.38149660041E+02  0.69191823363E+01  0.10398825994E+03  0.11108069072E+03  0.47000000000E+01 0.  1.
         13    1    6    6    0    0 -0.78531924361E+02  0.45358401845E+02  0.83552132946E+02  0.12331101606E+03  0.00000000000E+00 0. -1.
        -14    1    6    6    0    0 -0.31948328038E+02 -0.32959033374E+02  0.52918527913E+02  0.70052581265E+02  0.00000000000E+00 0.  1.
</event>
<event>
12    1  0.1598254E-001  0.1776314E+03  0.7818608E-02  0.1170274E+00
         21   -1    0    0  501  502  0.00000000000E+00  0.00000000000E+00  0.17984492684E+03  0.17984492684E+03  0.00000000000E+00 0.  1.
         21   -1    0    0  502  503 -0.00000000000E+00 -0.00000000000E+00 -0.18493904562E+03  0.18493904562E+03  0.00000000000E+00 0.  1.
         -6    2    1    2    0  503  0.34260653172E+02  0.20206302628E+02 -0.45224203317E+02  0.18267598008E+03  0.17246216429E+03 0.  0.
        -24    2    3    3    0    0  0.45748213089E-01 -0.14375042800E+01  0.44535022334E+02  0.84096455388E+02  0.71321645264E+02 0.  0.
          6    2    1    2  501    0 -0.34260653172E+02 -0.20206302628E+02  0.40130084541E+02  0.18210799238E+03  0.17312079650E+03 0.  0.
         24    2    5    5    0    0  0.26790682027E+02 -0.19664500008E+02  0.72448359423E+02  0.11286840854E+03  0.79912950503E+02 0.  0.
          5    1    5    5  501    0 -0.61051335200E+02 -0.54180261972E+00 -0.32318274883E+02  0.69239583846E+02  0.47000000000E+01 0. -1.
        -13    1    6    6    0    0 -0.11386860249E+02 -0.21805648931E+02 -0.62422998744E+01  0.25379385717E+02  0.00000000000E+00 0.  1.
         14    1    6    6    0    0  0.38177542277E+02  0.21411489224E+01  0.78690659298E+02  0.87489022819E+02  0.00000000000E+00 0. -1.
         -5    1    3    3    0  503  0.34214904959E+02  0.21643806908E+02 -0.89759225651E+02  0.98579524691E+02  0.47000000000E+01 0.  1.
         13    1    4    4    0    0 -0.48268072342E+01  0.34152238057E+02  0.28566820548E+02  0.44785451528E+02  0.00000000000E+00 0. -1.
        -14    1    4    4    0    0  0.48725554473E+01 -0.35589742337E+02  0.15968201786E+02  0.39311003860E+02  0.00000000000E+00 0.  1.
</event>
<event>
12    1  0.1598254E-001  0.2001292E+03  0.7818608E-02  0.1149806E+00
         21   -1    0    0  503  502  0.00000000000E+00  0.00000000000E+00  0.50748760173E+02  0.50748760173E+02  0.00000000000E+00 0. -1.
         21   -1    0    0  501  503 -0.00000000000E+00 -0.00000000000E+00 -0.13056766518E+04  0.13056766518E+04  0.00000000000E+00 0. -1.
          6    2    1    2  501    0  0.29630580628E+02  0.96278908218E+02 -0.10545753735E+04  0.10732420504E+04  0.17196418465E+03 0.  0.
         24    2    3    3    0    0  0.94965890496E+01  0.13315441081E+03 -0.80145152163E+03  0.81661205466E+03  0.81917177547E+02 0.  0.
         -6    2    1    2    0  502 -0.29630580628E+02 -0.96278908218E+02 -0.20035251813E+03  0.28318336161E+03  0.17292797719E+03 0.  0.
        -24    2    5    5    0    0 -0.80779526569E+02 -0.77179326994E+02 -0.10832104430E+03  0.17607178031E+03  0.82376226880E+02 0.  0.
          5    1    3    3  501    0  0.20133991578E+02 -0.36875502592E+02 -0.25312385189E+03  0.25662999572E+03  0.47000000000E+01 0. -1.
        -11    1    4    4    0    0 -0.34884228056E+01  0.76490492228E+01 -0.41262129792E+01  0.93649709681E+01  0.00000000000E+00 0.  1.
         12    1    4    4    0    0  0.12985011855E+02  0.12550536159E+03 -0.79732530865E+03  0.80724708369E+03  0.00000000000E+00 0. -1.
         -5    1    5    5    0  502  0.51148945941E+02 -0.19099581224E+02 -0.92031473827E+02  0.10711158130E+03  0.47000000000E+01 0.  1.
         13    1    6    6    0    0 -0.15979936451E+02 -0.51112819986E+02 -0.88545416199E+02  0.10348028540E+03  0.00000000000E+00 0. -1.
        -14    1    6    6    0    0 -0.64799590118E+02 -0.26066507008E+02 -0.19775628105E+02  0.72591494915E+02  0.00000000000E+00 0.  1.
</event>
<event>
12    1  0.1598254E-001  0.2422661E+03  0.7818608E-02  0.1118295E+00
         21   -1    0    0  503  502  0.00000000000E+00  0.00000000000E+00  0.85336628996E+03  0.85336628996E+03  0.00000000000E+00 0. -1.
         21   -1    0    0  501  503 -0.00000000000E+00 -0.00000000000E+00 -0.11993181059E+03  0.11993181059E+03  0.00000000000E+00 0. -1.
          6    2    1    2  501    0 -0.35782243454E+00 -0.17028253273E+03  0.48871230202E+02  0.24713027314E+03  0.17230410840E+03 0.  0.
         24    2    3    3    0    0  0.40819865945E+02 -0.29286031314E+02  0.33222990909E+02  0.99337943081E+02  0.78995738649E+02 0.  0.
         -6    2    1    2    0  502  0.35782243454E+00  0.17028253273E+03  0.68456324917E+03  0.72616782742E+03  0.17232702189E+03 0.  0.
        -24    2    5    5    0    0  0.41465779139E+02  0.32689098958E+02  0.21916982878E+03  0.23910012898E+03  0.79658457178E+02 0.  0.
          5    1    3    3  501    0 -0.41177688380E+02 -0.14099650141E+03  0.15648239293E+02  0.14779233006E+03  0.47000000000E+01 0. -1.
        -13    1    4    4    0    0  0.32403780982E+02 -0.56314160887E+02  0.26973791039E+02  0.70348241921E+02  0.00000000000E+00 0.  1.
         14    1    4    4    0    0  0.84160849634E+01  0.27028129573E+02  0.62491998701E+01  0.28989701160E+02  0.00000000000E+00 0. -1.
         -5    1    5    5    0  502 -0.41107956704E+02  0.13759343377E+03  0.46539342039E+03  0.48706769844E+03  0.47000000000E+01 0.  1.
         11    1    6    6    0    0  0.12333701400E+02  0.15086576099E+02  0.19812819183E+03  0.19908416654E+03  0.00000000000E+00 0. -1.
        -12    1    6    6    0    0  0.29132077738E+02  0.17602522859E+02  0.21041636946E+02  0.40015962436E+02  0.00000000000E+00 0.  1.
</event>
<event>
12    1  0.1598254E-001  0.2339402E+03  0.7818608E-02  0.1124166E+00
         21   -1    0    0  501  502  0.00000000000E+00  0.00000000000E+00  0.62119304760E+03  0.62119304760E+03  0.00000000000E+00 0. -1.
         21   -1    0    0  502  503 -0.00000000000E+00 -0.00000000000E+00 -0.98080063541E+03  0.98080063541E+03  0.00000000000E+00 0. -1.
         -6    2    1    2    0  503 -0.14720446682E+03  0.60031469068E+02 -0.94417552063E+03  0.97235274782E+03  0.16949784693E+03 0.  0.
        -24    2    3    3    0    0 -0.13043499205E+03  0.85356912085E+02 -0.56404069746E+03  0.59097738531E+03  0.82542546373E+02 0.  0.
          6    2    1    2  501    0  0.14720446682E+03 -0.60031469068E+02  0.58456793282E+03  0.62964093519E+03  0.17162490162E+03 0.  0.
         24    2    5    5    0    0  0.13593650878E+03 -0.92601450582E+02  0.55438942001E+03  0.58359092748E+03  0.78593756465E+02 0.  0.
          5    1    5    5  501    0  0.11267958046E+02  0.32569981514E+02  0.30178512814E+02  0.46050007709E+02  0.47000000000E+01 0. -1.
        -11    1    6    6    0    0  0.53619452454E+02 -0.68770987718E+02  0.18691713786E+03  0.20625835949E+03  0.00000000000E+00 0.  1.
         12    1    6    6    0    0  0.82317056322E+02 -0.23830462864E+02  0.36747228215E+03  0.37733256800E+03  0.00000000000E+00 0. -1.
         -5    1    3    3    0  503 -0.16769474773E+02 -0.25325443017E+02 -0.38013482317E+03  0.38137536252E+03  0.47000000000E+01 0.  1.
         11    1    4    4    0    0 -0.85905256012E+02  0.69130795951E+01 -0.27406080522E+03  0.28729223560E+03  0.00000000000E+00 0. -1.
        -12    1    4    4    0    0 -0.44529736038E+02  0.78443832490E+02 -0.28997989224E+03  0.30368514970E+03  0.00000000000E+00 0.  1.
</event>
<event>
12    1  0.1598254E-001  0.1969409E+03  0.7818608E-02  0.1152457E+00
         21   -1    0    0  503  502  0.00000000000E+00  0.00000000000E+00  0.17859497829E+04  0.17859497829E+04  0.00000000000E+00 0.  1.
         21   -1    0    0  501  503 -0.00000000000E+00 -0.00000000000E+00 -0.21807438502E+02  0.21807438502E+02  0.00000000000E+00 0.  1.
          6    2    1    2  501    0 -0.68510811051E+02 -0.67763231861E+02  0.95741310904E+03  0.97745873300E+03  0.17175600872E+03 0.  0.
         24    2    3    3    0    0  0.14217628104E+02 -0.75176577786E+02  0.46313440576E+03  0.47622776941E+03  0.80285439302E+02 0.  0.
         -6    2    1    2    0  502  0.68510811051E+02  0.67763231861E+02  0.80672923538E+03  0.83029848843E+03  0.17116639226E+03 0.  0.
        -24    2    5    5    0    0 -0.29130610120E+02  0.39066746761E+02  0.32757888941E+03  0.34043679425E+03  0.78831966471E+02 0.  0.
          5    1    3    3  501    0 -0.82728439155E+02  0.74133459256E+01  0.49427870327E+03  0.50123096358E+03  0.47000000000E+01 0. -1.
        -13    1    4    4    0    0 -0.23774649947E+02 -0.11127016521E+02  0.50371562086E+02  0.56800869217E+02  0.00000000000E+00 0.  1.
         14    1    4    4    0    0  0.37992278051E+02 -0.64049561265E+02  0.41276284368E+03  0.41942690020E+03  0.00000000000E+00 0. -1.
         -5    1    5    5    0  502  0.97641421171E+02  0.28696485100E+02  0.47915034597E+03  0.48986169418E+03  0.47000000000E+01 0.  1.
         11    1    6    6    0    0 -0.22587896963E+02 -0.10715697628E+02  0.31923369202E+02  0.40548005698E+02  0.00000000000E+00 0. -1.
        -12    1    6    6    0    0 -0.65427131571E+01  0.49782444389E+02  0.29565552021E+03  0.29988878855E+03  0.00000000000E+00 0.  1.
</event>
<event>
12    1  0.1598254E-001  0.2196547E+03  0.7818608E-02  0.1134387E+00
         21   -1    0    0  501  502  0.00000000000E+00  0.00000000000E+00  0.24502849685E+03  0.24502849685E+03  0.00000000000E+00 0. -1.
         21   -1    0    0  502  503 -0.00000000000E+00 -0.00000000000E+00 -0.33557308869E+03  0.33557308869E+03  0.00000000000E+00 0.  1.
         -6    2    1    2    0  503  0.13640222274E+03 -0.26436276144E+01 -0.23259279997E+03  0.31901816075E+03  0.17047176059E+03 0.  0.
        -24    2    3    3    0    0  0.19930204394E+02  0.17561396348E+02 -0.40612542794E+02  0.93513209156E+02  0.79935761494E+02 0.  0.
          6    2    1    2  501    0 -0.13640222274E+03  0.26436276144E+01  0.14204820813E+03  0.26158342478E+03  0.17215004953E+03 0.  0.
         24    2    5    5    0    0 -0.12372778983E+03 -0.54392882764E+02  0.73598050589E+02  0.17146506465E+03  0.75607166805E+02 0.  0.
          5    1    5    5  501    0 -0.12674432908E+02  0.57036510379E+02  0.68450157540E+02  0.90118360133E+02  0.47000000000E+01 0. -1.
        -11    1    6    6    0    0 -0.69000435326E+02 -0.11756548868E+02 -0.44906591290E+00  0.69996272591E+02  0.00000000000E+00 0.  1.
         12    1    6    6    0    0 -0.54727354505E+02 -0.42636333896E+02  0.74047116502E+02  0.10146879206E+03  0.00000000000E+00 0. -1.
         -5    1    3    3    0  503  0.11647201835E+03 -0.20205023962E+02 -0.19198025717E+03  0.22550495160E+03  0.47000000000E+01 0.  1.
         11    1    4    4    0    0  0.43082386143E+02 -0.12990827145E+02 -0.28698256391E+02  0.53370811363E+02  0.00000000000E+00 0. -1.
        -12    1    4    4    0    0 -0.23152181749E+02  0.30552223493E+02 -0.11914286403E+02  0.40142397793E+02  0.00000000000E+00 0.  1.
</event>
<event>
12    1  0.1598254E-001  0.2219801E+03  0.7818608E-02  0.1132532E+00
         21   -1    0    0  503  502  0.00000000000E+00  0.00000000000E+00  0.14343639903E+04  0.14343639903E+04  0.00000000000E+00 0.  1.
         21   -1    0    0  501  503 -0.00000000000E+00 -0.00000000000E+00 -0.40394839024E+02  0.40394839024E+02  0.00000000000E+00 0.  1.
          6    2    1    2  501    0  0.16863149805E+01 -0.13935261492E+03  0.41035958090E+03  0.46655132064E+03  0.17278065347E+03 0.  0.
         24    2    3    3    0    0 -0.50758654617E+02 -0.67762264112E+02  0.13414557898E+03  0.17639288457E+03  0.77144331690E+02 0.  0.
         -6    2    1    2    0  502 -0.16863149805E+01  0.13935261492E+03  0.98360957036E+03  0.10082075087E+04  0.17196685344E+03 0.  0.
        -24    2    5    5    0    0  0.39694877442E+02  0.17052725488E+02  0.35695820575E+03  0.36837652410E+03  0.80097591185E+02 0.  0.
          5    1    3    3  501    0  0.52444969597E+02 -0.71590350811E+02  0.27621400192E+03  0.29015843607E+03  0.47000000000E+01 0. -1.
        -13    1    4    4    0    0 -0.37449426922E+02 -0.84427754585E+02  0.99938592243E+02  0.13608169436E+03  0.00000000000E+00 0.  1.
         14    1    4    4    0    0 -0.13309227695E+02  0.16665490473E+02  0.34206986735E+02  0.40311190209E+02  0.00000000000E+00 0. -1.
         -5    1    5    5    0  502 -0.41381192423E+02  0.12229988944E+03  0.62665136461E+03  0.63983098457E+03  0.47000000000E+01 0.  1.
         13    1    6    6    0    0  0.11497263035E+02 -0.26454062788E+02  0.22089687165E+03  0.22277215355E+03  0.00000000000E+00 0. -1.
        -14    1    6    6    0    0  0.28197614407E+02  0.43506788276E+02  0.13606133410E+03  0.14560437055E+03  0.00000000000E+00 0.  1.
</event>
<event>
12    1  0.1598254E-001  0.2439960E+03  0.7818608E-02  0.1117435E+00
         21   -1    0    0  503  502  0.00000000000E+00  0.00000000000E+00  0.67106628972E+03  0.67106628972E+03  0.00000000000E+00 0. -1.
         21   -1    0    0  501  503 -0.00000000000E+00 -0.00000000000E+00 -0.19925357525E+03  0.19925357525E+03  0.00000000000E+00 0. -1.
          6    2    1    2  501    0  0.97966731450E+02  0.13834219372E+03 -0.88744397962E+02  0.25963361206E+03  0.17549359335E+03 0.  0.
         24    2    3    3    0    0  0.82749913107E+02  0.15445862554E+03 -0.33980758010E+02  0.20036779396E+03  0.91035958929E+02 0.  0.
         -6    2    1    2    0  502 -0.97966731450E+02 -0.13834219372E+03  0.56055711244E+03  0.61068625291E+03  0.17313977057E+03 0.  0.
        -24    2    5    5    0    0 -0.58046825238E+02 -0.35333170116E+02  0.41402340549E+03  0.42711426396E+03  0.79958410130E+02 0.  0.
          5    1    3    3  501    0  0.15216818343E+02 -0.16116431815E+02 -0.54763639952E+02  0.59265818106E+02  0.47000000000E+01 0. -1.
        -13    1    4    4    0    0 -0.69271910013E+01  0.13747659999E+01 -0.21366403902E+02  0.22503314699E+02  0.00000000000E+00 0.  1.
         14    1    4    4    0    0  0.89677104108E+02  0.15308385954E+03 -0.12614354108E+02  0.17786447926E+03  0.00000000000E+00 0. -1.
         -5    1    5    5    0  502 -0.39919906211E+02 -0.10300902361E+03  0.14653370694E+03  0.18357198895E+03  0.47000000000E+01 0.  1.
         11    1    6    6    0    0 -0.28230453228E+02 -0.56815992556E+02  0.31867586556E+03  0.32492971977E+03  0.00000000000E+00 0. -1.
        -12    1    6    6    0    0 -0.29816372010E+02  0.21482822440E+02  0.95347539937E+02  0.10218454419E+03  0.00000000000E+00 0.  1.
</event>
<event>
12    1  0.1598254E-001  0.2088161E+03  0.7818608E-02  0.1142706E+00
         21   -1    0    0  501  502  0.00000000000E+00  0.00000000000E+00  0.43634835647E+03  0.43634835647E+03  0.00000000000E+00 0.  1.
         21   -1    0    0  502  503 -0.00000000000E+00 -0.00000000000E+00 -0.10452177847E+03  0.10452177847E+03  0.00000000000E+00 0.  1.
         -6    2    1    2    0  503 -0.10968266166E+03 -0.40225077653E+02  0.22508342516E+03  0.30635302222E+03  0.17187577724E+03 0.  0.
        -24    2    3    3    0    0 -0.40698281259E+02 -0.53036856122E+02  0.47008202807E+02  0.11489581754E+03  0.80759021495E+02 0.  0.
          6    2    1    2  501    0  0.10968266166E+03  0.40225077653E+02  0.10674315284E+03  0.23451711272E+03  0.17307753274E+03 0.  0.
         24    2    5    5    0    0  0.85776110719E+02  0.74139505296E+02  0.12703258594E+03  0.18809015206E+03  0.79915079899E+02 0.  0.
          5    1    5    5  501    0  0.23906550944E+02 -0.33914427642E+02 -0.20289433103E+02  0.46426960659E+02  0.47000000000E+01 0. -1.
        -13    1    6    6    0    0  0.26533765967E+02  0.69007050420E+02  0.44247140028E+02  0.86161610621E+02  0.00000000000E+00 0.  1.
         14    1    6    6    0    0  0.59242344752E+02  0.51324548753E+01  0.82785445912E+02  0.10192854144E+03  0.00000000000E+00 0. -1.
         -5    1    3    3    0  503 -0.68984380404E+02  0.12811778469E+02  0.17807522236E+03  0.19145720468E+03  0.47000000000E+01 0.  1.
         11    1    4    4    0    0 -0.23784622094E+02 -0.35221002407E+01 -0.19014128206E+02  0.30653719345E+02  0.00000000000E+00 0. -1.
        -12    1    4    4    0    0 -0.16913659165E+02 -0.49514755882E+02  0.66022331013E+02  0.84242098198E+02  0.00000000000E+00 0.  1.
</event>
<event>
12    1  0.1598254E-001  0.1757200E+03  0.7818608E-02  0.1173084E+00
         21   -1    0    0  503  502  0.00000000000E+00  0.00000000000E+00  0.20940670737E+02  0.20940670737E+02  0.00000000000E+00 0. -1.
         21   -1    0    0  501  503 -0.00000000000E+00 -0.00000000000E+00 -0.21729805532E+04  0.21729805532E+04  0.00000000000E+00 0. -1.
          6    2    1    2  501    0 -0.43913903142E+02  0.16543535648E+02 -0.17047565215E+04  0.17133591271E+04  0.16493205071E+03 0.  0.
         24    2    3    3    0    0 -0.76318420026E+02 -0.14508934552E+02 -0.80771034766E+03  0.81517861260E+03  0.78007399061E+02 0.  0.
         -6    2    1    2    0  502  0.43913903142E+02 -0.16543535648E+02 -0.44728336101E+03  0.48056209689E+03  0.16933813648E+03 0.  0.
        -24    2    5    5    0    0 -0.34957318339E+02 -0.32655765815E+02 -0.26229019570E+03  0.27875814561E+03  0.81372869174E+02 0.  0.
          5    1    3    3  501    0  0.32404516883E+02  0.31052470199E+02 -0.89704617381E+03  0.89818051447E+03  0.47000000000E+01 0. -1.
        -13    1    4    4    0    0 -0.58730337560E+02 -0.20201055293E+02 -0.77593800974E+03  0.77841963628E+03  0.00000000000E+00 0.  1.
         14    1    4    4    0    0 -0.17588082466E+02  0.56921207413E+01 -0.31772337919E+02  0.36758976322E+02  0.00000000000E+00 0. -1.
         -5    1    5    5    0  502  0.78871221482E+02  0.16112230167E+02 -0.18499316532E+03  0.20180395128E+03  0.47000000000E+01 0.  1.
         11    1    6    6    0    0 -0.18806065739E+02 -0.32268777662E+02 -0.35941829775E+02  0.51833939152E+02  0.00000000000E+00 0. -1.
        -12    1    6    6    0    0 -0.16151252601E+02 -0.38698815270E+00 -0.22634836592E+03  0.22692420646E+03  0.00000000000E+00 0.  1.
</event>
<event>
12    1  0.1598254E-001  0.2023041E+03  0.7818608E-02  0.1148966E+00
         21   -1    0    0  501  502  0.00000000000E+00  0.00000000000E+00  0.40027217402E+03  0.40027217402E+03  0.00000000000E+00 0.  1.
         21   -1    0    0  502  503 -0.00000000000E+00 -0.00000000000E+00 -0.99879154317E+02  0.99879154317E+02  0.00000000000E+00 0.  1.
         -6    2    1    2    0  503 -0.68561515984E+02  0.82170485182E+02  0.16773931493E+03  0.26279923351E+03  0.17168077718E+03 0.  0.
        -24    2    3    3    0    0  0.23852338286E+02  0.49157980482E+02  0.12028689825E+03  0.15369392761E+03  0.78533078420E+02 0.  0.
          6    2    1    2  501    0  0.68561515984E+02 -0.82170485182E+02  0.13265370478E+03  0.23735209483E+03  0.16518577850E+03 0.  0.
         24    2    5    5    0    0  0.88297504252E+02 -0.42560796769E+02  0.14363335984E+03  0.19151456136E+03  0.80245962360E+02 0.  0.
          5    1    5    5  501    0 -0.19735988268E+02 -0.39609688413E+02 -0.10979655063E+02  0.45837533467E+02  0.47000000000E+01 0. -1.
        -13    1    6    6    0    0  0.67107841948E+02  0.72665339454E+01  0.52514873591E+02  0.85522376691E+02  0.00000000000E+00 0.  1.
         14    1    6    6    0    0  0.21189662304E+02 -0.49827330715E+02  0.91118486247E+02  0.10599218467E+03  0.00000000000E+00 0. -1.
         -5    1    3    3    0  503 -0.92413854269E+02  0.33012504700E+02  0.47452416674E+02  0.10910530590E+03  0.47000000000E+01 0.  1.
         11    1    4    4    0    0  0.92410746139E+00  0.35311875915E+02  0.54100567050E+01  0.35735854108E+02  0.00000000000E+00 0. -1.
        -12    1    4    4    0    0  0.22928230824E+02  0.13846104567E+02  0.11487684155E+03  0.11795807350E+03  0.00000000000E+00 0.  1.
</event>
<event>
12    1  0.1598254E-001  0.1792653E+03  0.7818608E-02  0.1168633E+00
         21   -1    0    0  501  502  0.00000000000E+00  0.00000000000E+00  0.38043768872E+02  0.38043768872E+02  0.00000000000E+00 0. -1.
         21   -1    0    0  502  503 -0.00000000000E+00 -0.00000000000E+00 -0.12936706680E+04  0.12936706680E+04  0.00000000000E+00 0. -1.
         -6    2    1    2    0  503 -0.49092629854E+02  0.54422934529E+01 -0.10216006295E+04  0.10372096614E+04  0.17232623259E+03 0.  0.
        -24    2    3    3    0    0 -0.48686213638E+02  0.53127515652E+02 -0.89173630537E+03  0.89878683706E+03  0.86204755309E+02 0.  0.
          6    2    1    2  501    0  0.49092629854E+02 -0.54422934529E+01 -0.23402626960E+03  0.29450477554E+03  0.17182858636E+03 0.  0.
         24    2    5    5    0    0  0.44693475680E+02  0.35601381549E+02 -0.23323375148E+03  0.25295175038E+03  0.79508742005E+02 0.  0.
          5    1    5    5  501    0  0.43991541740E+01 -0.41043675002E+02 -0.79251812097E+00  0.41553025162E+02  0.47000000000E+01 0. -1.
        -13    1    6    6    0    0  0.61176592880E+02  0.21464041356E+02 -0.10891569845E+03  0.12675137063E+03  0.00000000000E+00 0.  1.
         14    1    6    6    0    0 -0.16483117200E+02  0.14137340193E+02 -0.12431805303E+03  0.12620037975E+03  0.00000000000E+00 0. -1.
         -5    1    3    3    0  503 -0.40641621600E+00 -0.47685222200E+02 -0.12986432418E+03  0.13842282429E+03  0.47000000000E+01 0.  1.
         13    1    4    4    0    0 -0.54907660583E+02  0.21467410495E+02 -0.78671280643E+03  0.78891871616E+03  0.00000000000E+00 0. -1.
        -14    1    4    4    0    0  0.62214469448E+01  0.31660105157E+02 -0.10502349894E+03  0.10986812090E+03  0.00000000000E+00 0.  1.
</event>
<event>
12    1  0.1598254E-001  0.2205144E+03  0.7818608E-02  0.1133807E+00
         21   -1    0    0  501  502  0.00000000000E+00  0.00000000000E+00  0.32864542588E+03  0.32864542588E+03  0.00000000000E+00 0. -1.
         21   -1    0    0  502  503 -0.00000000000E+00 -0.00000000000E+00 -0.15339833252E+03  0.15339833252E+03  0.00000000000E+00 0.  1.
         -6    2    1    2    0  503 -0.13592077564E+03  0.66404426437E+01  0.37549989541E+02  0.22206861731E+03  0.17142320832E+03 0.  0.
        -24    2    3    3    0    0 -0.16585875797E+03  0.87865347752E-01  0.16271885195E+02  0.18446453801E+03  0.79077532966E+02 0.  0.
          6    2    1    2  501    0  0.13592077564E+03 -0.66404426437E+01  0.13769710381E+03  0.25997514109E+03  0.17351665297E+03 0.  0.
         24    2    5    5    0    0  0.64683721138E+02 -0.61264409529E+02  0.36176674821E+02  0.12437653049E+03  0.78888895806E+02 0.  0.
          5    1    5    5  501    0  0.71237054497E+02  0.54623966886E+02  0.10152042899E+03  0.13559861059E+03  0.47000000000E+01 0. -1.
        -11    1    6    6    0    0  0.40403257320E+02 -0.31218119222E+01 -0.14991992302E+02  0.43207970849E+02  0.00000000000E+00 0.  1.
         12    1    6    6    0    0  0.24280463818E+02 -0.58142597607E+02  0.51168667123E+02  0.81168559645E+02  0.00000000000E+00 0. -1.
         -5    1    3    3    0  503  0.29937982335E+02  0.65525772959E+01  0.21278104346E+02  0.37604079301E+02  0.47000000000E+01 0.  1.
         11    1    4    4    0    0 -0.10691187605E+03  0.13223466418E+02  0.46017768285E+02  0.11714369084E+03  0.00000000000E+00 0. -1.
        -12    1    4    4    0    0 -0.58946881919E+02 -0.13135601070E+02 -0.29745883090E+02  0.67320847174E+02  0.00000000000E+00 0.  1.
</event>
<event>
12    1  0.1598254E-001  0.2649510E+03  0.7818608E-02  0.1104296E+00
         21   -1    0    0  503  502  0.00000000000E+00  0.00000000000E+00  0.13105420752E+03  0.13105420752E+03  0.00000000000E+00 0.  1.
         21   -1    0    0  501  503 -0.00000000000E+00 -0.00000000000E+00 -0.63436313312E+03  0.63436313312E+03  0.00000000000E+00 0. -1.
          6    2    1    2  501    0 -0.19680095801E+03  0.40305007212E+02 -0.40383631308E+03  0.48299356152E+03  0.17275387702E+03 0.  0.
         24    2    3    3    0    0 -0.70367997207E+02 -0.41353237844E+02 -0.17019594400E+03  0.20503083987E+03  0.80057733117E+02 0.  0.
         -6    2    1    2    0  502  0.19680095801E+03 -0.40305007212E+02 -0.99472612514E+02  0.28242377912E+03  0.17179429470E+03 0.  0.
        -24    2    5    5    0    0  0.19373424942E+03 -0.16043076662E+02 -0.34650836718E+02  0.21298316713E+03  0.79817349564E+02 0.  0.
          5    1    3    3  501    0 -0.12643296080E+03  0.81658245056E+02 -0.23364036908E+03  0.27796272165E+03  0.47000000000E+01 0. -1.
        -13    1    4    4    0    0  0.12878915473E+02  0.55418250012E+01 -0.64182880735E+01  0.15419880346E+02  0.00000000000E+00 0.  1.
         14    1    4    4    0    0 -0.83246912680E+02 -0.46895062845E+02 -0.16377765593E+03  0.18961095952E+03  0.00000000000E+00 0. -1.
         -5    1    5    5    0  502  0.30667085915E+01 -0.24261930550E+02 -0.64821775796E+02  0.69440611985E+02  0.47000000000E+01 0.  1.
         13    1    6    6    0    0  0.35437810291E+02 -0.12910932014E+02  0.23357894300E+02  0.44363518682E+02  0.00000000000E+00 0. -1.
        -14    1    6    6    0    0  0.15829643913E+03 -0.31321446481E+01 -0.58008731018E+02  0.16861964845E+03  0.00000000000E+00 0.  1.
</event>
<event>
12    1  0.1598254E-001  0.2191141E+03  0.7818608E-02  0.1137662E+00
         21   -1    0    0  501  502  0.00000000000E+00  0.00000000000E+00  0.37947050113E+03  0.37947050113E+03  0.00000000000E+00 0.  1.
         21   -1    0    0  502  503 -0.00000000000E+00 -0.00000000000E+00 -0.12779596267E+03  0.12779596267E+03  0.00000000000E+00 0.  1.
         -6    2    1    2    0  503  0.94393674086E+02 -0.78029432894E+02  0.58146495268E+02  0.22669809214E+03  0.18169274054E+03 0.  0.
        -24    2    3    3    0    0  0.13295116832E+03 -0.45653324593E+02  0.21862699037E+02  0.16446067077E+03  0.82517243135E+02 0.  0.
          6    2    1    2  501    0 -0.94393674086E+02  0.78029432894E+02  0.19352804319E+03  0.28056837166E+03  0.16207019951E+03 0.  0.
         24    2    5    5    0    0 -0.36542837476E+02  0.83628177225E+02  0.18559276817E+03  0.22172005967E+03  0.79912816652E+02 0.  0.
          5    1    5    5  501    0 -0.57850836609E+02 -0.55987443310E+01  0.79352750186E+01  0.58848311990E+02  0.47000000000E+01 0. -1.
        -11    1    6    6    0    0 -0.31807864401E+02 -0.51171822474E+01  0.55400652868E+02  0.64087113604E+02  0.00000000000E+00 0.  1.
         12    1    6    6    0    0 -0.47349730752E+01  0.88745359472E+02  0.13019211530E+03  0.15763294606E+03  0.00000000000E+00 0. -1.
         -5    1    3    3    0  503 -0.38557494238E+02 -0.32376108301E+02  0.36283796231E+02  0.62237421376E+02  0.47000000000E+01 0.  1.
         11    1    4    4    0    0  0.69163588802E+02  0.60054653730E+01  0.40383439968E+02  0.80314941661E+02  0.00000000000E+00 0. -1.
        -12    1    4    4    0    0  0.63787579522E+02 -0.51658789966E+02 -0.18520740931E+02  0.84145729106E+02  0.00000000000E+00 0.  1.
</event>
<event>
12    1  0.1598254E-001  0.2345386E+03  0.7818608E-02  0.1123671E+00
         21   -1    0    0  501  502  0.00000000000E+00  0.00000000000E+00  0.11988589786E+03  0.11988589786E+03  0.00000000000E+00 0. -1.
         21   -1    0    0  502  503 -0.00000000000E+00 -0.00000000000E+00 -0.48277907466E+03  0.48277907466E+03  0.00000000000E+00 0. -1.
         -6    2    1    2    0  503 -0.10423738560E+03 -0.11802348794E+03 -0.25184363031E+03  0.34414176973E+03  0.17381992776E+03 0.  0.
        -24    2    3    3    0    0 -0.28994058172E+02  0.96330958393E+01 -0.11077687041E+03  0.13949650971E+03  0.79084190945E+02 0.  0.
          6    2    1    2  501    0  0.10423738560E+03  0.11802348794E+03 -0.11104954649E+03  0.25852320278E+03  0.17235796570E+03 0.  0.
         24    2    5    5    0    0  0.10894366761E+03  0.61691467123E+02 -0.13042315845E+03  0.19858262805E+03  0.82160209795E+02 0.  0.
          5    1    5    5  501    0 -0.47062820086E+01  0.56332020815E+02  0.19373611961E+02  0.59940574737E+02  0.47000000000E+01 0. -1.
        -13    1    6    6    0    0 -0.73047719572E+01  0.27623165651E+02 -0.26691524343E+02  0.39100338179E+02  0.00000000000E+00 0.  1.
         14    1    6    6    0    0  0.11624843957E+03  0.34068301473E+02 -0.10373163411E+03  0.15948228987E+03  0.00000000000E+00 0. -1.
         -5    1    3    3    0  503 -0.75243327429E+02 -0.12765658378E+03 -0.14106675989E+03  0.20464526003E+03  0.47000000000E+01 0.  1.
         11    1    4    4    0    0 -0.18109018501E+02 -0.66998572385E+01  0.66643471262E+01  0.20426408415E+02  0.00000000000E+00 0. -1.
        -12    1    4    4    0    0 -0.10885039670E+02  0.16332953078E+02 -0.11744121754E+03  0.11907010129E+03  0.00000000000E+00 0.  1.
</event>
<event>
12    1  0.1598254E-001  0.4032743E+03  0.7818608E-02  0.1042670E+00
         21   -1    0    0  503  502  0.00000000000E+00  0.00000000000E+00  0.20184291415E+03  0.20184291415E+03  0.00000000000E+00 0. -1.
         21   -1    0    0  501  503 -0.00000000000E+00 -0.00000000000E+00 -0.80873899930E+03  0.80873899930E+03  0.00000000000E+00 0.  1.
          6    2    1    2  501    0 -0.28453075623E+03 -0.22836036168E+03 -0.33641514998E+03  0.52517168704E+03  0.17182532323E+03 0.  0.
         24    2    3    3    0    0 -0.34365577761E+02 -0.47981774578E+02 -0.77674686445E+02  0.12257043434E+03  0.74208563073E+02 0.  0.
         -6    2    1    2    0  502  0.28453075623E+03  0.22836036168E+03 -0.27048093517E+03  0.48541022641E+03  0.17133868677E+03 0.  0.
        -24    2    5    5    0    0  0.12075440148E+03  0.14035420505E+03 -0.66673700329E+02  0.20949854316E+03  0.71856307441E+02 0.  0.
          5    1    3    3  501    0 -0.25016517847E+03 -0.18037858711E+03 -0.25874046353E+03  0.40260125270E+03  0.47000000000E+01 0. -1.
        -13    1    4    4    0    0  0.58206491942E+00 -0.53915074525E+02 -0.25881164243E+02  0.59808099144E+02  0.00000000000E+00 0.  1.
         14    1    4    4    0    0 -0.34947642680E+02  0.59332999469E+01 -0.51793522202E+02  0.62762335196E+02  0.00000000000E+00 0. -1.
         -5    1    5    5    0  502  0.16377635475E+03  0.88006156634E+02 -0.20380723484E+03  0.27591168325E+03  0.47000000000E+01 0.  1.
         11    1    6    6    0    0  0.12786005842E+03  0.11574952039E+03 -0.63046399735E+02  0.18363277085E+03  0.00000000000E+00 0. -1.
        -12    1    6    6    0    0 -0.71056569389E+01  0.24604684663E+02 -0.36273005941E+01  0.25865772315E+02  0.00000000000E+00 0.  1.
</event>
<event>
12    1  0.1598254E-001  0.2518976E+03  0.7818608E-02  0.1112919E+00
         21   -1    0    0  501  502  0.00000000000E+00  0.00000000000E+00  0.60757715095E+03  0.60757715095E+03  0.00000000000E+00 0.  1.
         21   -1    0    0  502  503 -0.00000000000E+00 -0.00000000000E+00 -0.10237875074E+03  0.10237875074E+03  0.00000000000E+00 0. -1.
         -6    2    1    2    0  503  0.16992378900E+01  0.18412198818E+03  0.24730861129E+03  0.35300697748E+03  0.17189701273E+03 0.  0.
        -24    2    3    3    0    0  0.67010193965E+02  0.11928860381E+03  0.15747756207E+03  0.22431899779E+03  0.82460251744E+02 0.  0.
          6    2    1    2  501    0 -0.16992378900E+01 -0.18412198818E+03  0.25788978892E+03  0.35694892422E+03  0.16432162770E+03 0.  0.
         24    2    5    5    0    0 -0.54039248793E+02 -0.12463799644E+03  0.12372259554E+03  0.20106195300E+03  0.81631842640E+02 0.  0.
          5    1    5    5  501    0  0.52340010903E+02 -0.59483991744E+02  0.13416719338E+03  0.15588697121E+03  0.47000000000E+01 0. -1.
        -11    1    6    6    0    0 -0.61050024647E+02 -0.13075507835E+03  0.99965879862E+02  0.17554820751E+03  0.00000000000E+00 0.  1.
         12    1    6    6    0    0  0.70107758545E+01  0.61170819139E+01  0.23756715680E+02  0.25513745494E+02  0.00000000000E+00 0. -1.
         -5    1    3    3    0  503 -0.65310956075E+02  0.64833384368E+02  0.89831049220E+02  0.12868797969E+03  0.47000000000E+01 0.  1.
         13    1    4    4    0    0  0.15229376852E+02  0.79437973943E+02  0.40801334804E+02  0.90592905601E+02  0.00000000000E+00 0. -1.
        -14    1    4    4    0    0  0.51780817113E+02  0.39850629868E+02  0.11667622727E+03  0.13372609219E+03  0.00000000000E+00 0.  1.
</event>
<event>
12    1  0.1598254E-001  0.2447843E+03  0.7818608E-02  0.1116875E+00
         21   -1    0    0  503  502  0.00000000000E+00  0.00000000000E+00  0.78210514086E+02  0.78210514086E+02  0.00000000000E+00 0. -1.
         21   -1    0    0  501  503 -0.00000000000E+00 -0.00000000000E+00 -0.87602892476E+03  0.87602892476E+03  0.00000000000E+00 0. -1.
          6    2    1    2  501    0  0.11912751589E+03  0.12596227846E+03 -0.57024578667E+03  0.62001098449E+03  0.17080838108E+03 0.  0.
         24    2    3    3    0    0  0.13139817296E+03  0.50864298474E+02 -0.32984746715E+03  0.36781320962E+03  0.81452740109E+02 0.  0.
         -6    2    1    2    0  502 -0.11912751589E+03 -0.12596227846E+03 -0.22757262400E+03  0.33422845435E+03  0.17280480278E+03 0.  0.
        -24    2    5    5    0    0 -0.20425195988E+00 -0.12153618110E+02 -0.64431311407E+02  0.10242609942E+03  0.78689006866E+02 0.  0.
          5    1    3    3  501    0 -0.12270657076E+02  0.75097979984E+02 -0.24039831952E+03  0.25219777488E+03  0.47000000000E+01 0. -1.
        -11    1    4    4    0    0  0.47808854659E+02  0.17886009675E+02 -0.41493811182E+02  0.65782461890E+02  0.00000000000E+00 0.  1.
         12    1    4    4    0    0  0.83589318302E+02  0.32978288800E+02 -0.28835365596E+03  0.30203074773E+03  0.00000000000E+00 0. -1.
         -5    1    5    5    0  502 -0.11892326393E+03 -0.11380866035E+03 -0.16314131260E+03  0.23180235493E+03  0.47000000000E+01 0.  1.
         13    1    6    6    0    0 -0.37926911910E+02 -0.10166170756E+02 -0.19866471998E+02  0.44005435851E+02  0.00000000000E+00 0. -1.
        -14    1    6    6    0    0  0.37722659950E+02 -0.19874473533E+01 -0.44564839409E+02  0.58420663572E+02  0.00000000000E+00 0.  1.
</event>
<event>
12    1  0.1598254E-001  0.2018310E+03  0.7818608E-02  0.1148381E+00
         21   -1    0    0  501  502  0.00000000000E+00  0.00000000000E+00  0.78441312916E+02  0.78441312916E+02  0.00000000000E+00 0. -1.
         21   -1    0    0  502  503 -0.00000000000E+00 -0.00000000000E+00 -0.92788226735E+03  0.92788226735E+03  0.00000000000E+00 0. -1.
         -6    2    1    2    0  503  0.16336634990E+02 -0.10637090083E+03 -0.75999003838E+03  0.78633364437E+03  0.17074568120E+03 0.  0.
        -24    2    3    3    0    0 -0.54530437516E+02 -0.79741475070E+02 -0.49332307175E+03  0.50908893410E+03  0.80446368717E+02 0.  0.
          6    2    1    2  501    0 -0.16336634990E+02  0.10637090083E+03 -0.89450916056E+02  0.21998993590E+03  0.16974230860E+03 0.  0.
         24    2    5    5    0    0 -0.28161502946E+01 -0.10386882055E+02 -0.55788072510E+02  0.97636103079E+02  0.79402024967E+02 0.  0.
          5    1    5    5  501    0 -0.13520484696E+02  0.11675778288E+03 -0.33662843546E+02  0.12235383282E+03  0.47000000000E+01 0. -1.
        -13    1    6    6    0    0  0.34108588860E+02 -0.21783780217E+02 -0.36258727021E+02  0.54338054803E+02  0.00000000000E+00 0.  1.
         14    1    6    6    0    0 -0.36924739155E+02  0.11396898162E+02 -0.19529345489E+02  0.43298048277E+02  0.00000000000E+00 0. -1.
         -5    1    3    3    0  503  0.70867072506E+02 -0.26629425755E+02 -0.26666696663E+03  0.27724471027E+03  0.47000000000E+01 0.  1.
         11    1    4    4    0    0 -0.60038882550E+02 -0.63470485859E+02 -0.47846582922E+03  0.48637713733E+03  0.00000000000E+00 0. -1.
        -12    1    4    4    0    0  0.55084450336E+01 -0.16270989211E+02 -0.14857242530E+02  0.22711796763E+02  0.00000000000E+00 0.  1.
</event>
<event>
12    1  0.1598254E-001  0.2073400E+03  0.7818608E-02  0.1143694E+00
         21   -1    0    0  503  502  0.00000000000E+00  0.00000000000E+00  0.32433377723E+03  0.32433377723E+03  0.00000000000E+00 0.  1.
         21   -1    0    0  501  503 -0.00000000000E+00 -0.00000000000E+00 -0.17153886702E+03  0.17153886702E+03  0.00000000000E+00 0.  1.
          6    2    1    2  501    0 -0.59049828603E+02 -0.99646700022E+02 -0.41831247322E+02  0.21149749358E+03  0.17194472791E+03 0.  0.
         24    2    3    3    0    0  0.22576031420E+02 -0.57151862430E+02  0.86614091374E+01  0.10642518228E+03  0.86459741158E+02 0.  0.
         -6    2    1    2    0  502  0.59049828603E+02  0.99646700022E+02  0.19462615753E+03  0.28437515067E+03  0.17196958464E+03 0.  0.
        -24    2    5    5    0    0 -0.46247112097E+01  0.99243087292E+02  0.16944284357E+03  0.21573915993E+03  0.89229645064E+02 0.  0.
          5    1    3    3  501    0 -0.81625860023E+02 -0.42494837592E+02 -0.50492656459E+02  0.10507231130E+03  0.47000000000E+01 0. -1.
        -11    1    4    4    0    0  0.13629102749E+02  0.21312661446E+02 -0.62460116993E+01  0.26057525628E+02  0.00000000000E+00 0.  1.
         12    1    4    4    0    0  0.89469286708E+01 -0.78464523876E+02  0.14907420837E+02  0.80367656652E+02  0.00000000000E+00 0. -1.
         -5    1    5    5    0  502  0.63674539813E+02  0.40361272997E+00  0.25183313954E+02  0.68635990743E+02  0.47000000000E+01 0.  1.
         13    1    6    6    0    0 -0.40139309756E+02  0.19437157423E+02  0.42201280710E+02  0.61399636562E+02  0.00000000000E+00 0. -1.
        -14    1    6    6    0    0  0.35514598547E+02  0.79805929869E+02  0.12724156286E+03  0.15433952336E+03  0.00000000000E+00 0.  1.
</event>
<event>
12    1  0.1598254E-001  0.2332834E+03  0.7818608E-02  0.1125009E+00
         21   -1    0    0  503  502  0.00000000000E+00  0.00000000000E+00  0.24548893297E+03  0.24548893297E+03  0.00000000000E+00 0. -1.
         21   -1    0    0  501  503 -0.00000000000E+00 -0.00000000000E+00 -0.24920881753E+03  0.24920881753E+03  0.00000000000E+00 0. -1.
          6    2    1    2  501    0 -0.54956887636E+02 -0.14195860633E+03 -0.89257459917E+02  0.24977598229E+03  0.17677285360E+03 0.  0.
         24    2    3    3    0    0 -0.98127356044E+02 -0.13034856040E+03 -0.93578992090E+02  0.20461794702E+03  0.80571404856E+02 0.  0.
         -6    2    1    2    0  502  0.54956887636E+02  0.14195860633E+03  0.85537575357E+02  0.24492176821E+03  0.17174833430E+03 0.  0.
        -24    2    5    5    0    0 -0.45891598024E+01  0.76920429692E+02 -0.15128329183E+02  0.11101355142E+03  0.78468652112E+02 0.  0.
          5    1    3    3  501    0  0.43170468407E+02 -0.11610045923E+02  0.43215321726E+01  0.45158035267E+02  0.47000000000E+01 0. -1.
        -13    1    4    4    0    0 -0.37311827953E+02 -0.36941033415E+01 -0.33547897356E+01  0.37644036963E+02  0.00000000000E+00 0.  1.
         14    1    4    4    0    0 -0.60815528091E+02 -0.12665445706E+03 -0.90224202354E+02  0.16697391006E+03  0.00000000000E+00 0. -1.
         -5    1    5    5    0  502  0.59546047439E+02  0.65038176635E+02  0.10066590454E+03  0.13390821678E+03  0.47000000000E+01 0.  1.
         11    1    6    6    0    0 -0.45983481975E+01  0.72471231194E+02  0.20225389836E+02  0.75380969422E+02  0.00000000000E+00 0. -1.
        -12    1    6    6    0    0  0.91883950803E-02  0.44491984975E+01 -0.35353719019E+02  0.35632582002E+02  0.00000000000E+00 0.  1.
</event>
<event>
12    1  0.1598254E-001  0.2170755E+03  0.7818608E-02  0.1136084E+00
         21   -1    0    0  501  502  0.00000000000E+00  0.00000000000E+00  0.47242037026E+03  0.47242037026E+03  0.00000000000E+00 0.  1.
         21   -1    0    0  502  503 -0.00000000000E+00 -0.00000000000E+00 -0.10254962415E+03  0.10254962415E+03  0.00000000000E+00 0. -1.
         -6    2    1    2    0  503  0.13945029340E+03  0.15566018132E+02  0.23251166094E+03  0.31809345384E+03  0.16562936833E+03 0.  0.
        -24    2    3    3    0    0  0.10928086938E+03  0.70524842937E+02  0.15183602109E+03  0.21581288171E+03  0.81270909482E+02 0.  0.
          6    2    1    2  501    0 -0.13945029340E+03 -0.15566018132E+02  0.13735908517E+03  0.25687654057E+03  0.16561809553E+03 0.  0.
         24    2    5    5    0    0 -0.23679693255E+02  0.16667559053E+02  0.16328049699E+02  0.86252870163E+02  0.79589050798E+02 0.  0.
          5    1    5    5  501    0 -0.11577060014E+03 -0.32233577185E+02  0.12103103548E+03  0.17062367041E+03  0.47000000000E+01 0. -1.
        -11    1    6    6    0    0 -0.16527033324E+02 -0.29738270294E+02  0.19460588181E+02  0.39194668553E+02  0.00000000000E+00 0.  1.
         12    1    6    6    0    0 -0.71526599309E+01  0.46405829347E+02 -0.31325384821E+01  0.47058201610E+02  0.00000000000E+00 0. -1.
         -5    1    3    3    0  503  0.30169424013E+02 -0.54958824805E+02  0.80675639848E+02  0.10228057212E+03  0.47000000000E+01 0.  1.
         11    1    4    4    0    0 -0.12311050325E+02  0.15209670243E+02  0.15736983722E+02  0.25110728497E+02  0.00000000000E+00 0. -1.
        -12    1    4    4    0    0  0.12159191971E+03  0.55315172695E+02  0.13609903737E+03  0.19070215321E+03  0.00000000000E+00 0.  1.
</event>
<event>
12    1  0.1598254E-001  0.1913539E+03  0.7818608E-02  0.1157540E+00
         21   -1    0    0  501  502  0.00000000000E+00  0.00000000000E+00  0.59215658748E+02  0.59215658748E+02  0.00000000000E+00 0.  1.
         21   -1    0    0  502  503 -0.00000000000E+00 -0.00000000000E+00 -0.35925588105E+04  0.35925588105E+04  0.00000000000E+00 0.  1.
         -6    2    1    2    0  503 -0.81762398443E+01 -0.82014899374E+02 -0.34302275685E+04  0.34355607251E+04  0.17269345644E+03 0.  0.
        -24    2    3    3    0    0  0.17489108398E+02  0.21134099292E+02 -0.12551312595E+04  0.12578636687E+04  0.78192144931E+02 0.  0.
          6    2    1    2  501    0  0.81762398443E+01  0.82014899374E+02 -0.10311558327E+03  0.21621374411E+03  0.17123745213E+03 0.  0.
         24    2    5    5    0    0  0.63134190059E+02  0.82250438060E+02 -0.51635559886E+02  0.14076366407E+03  0.79981982744E+02 0.  0.
          5    1    5    5  501    0 -0.54957950215E+02 -0.23553868524E+00 -0.51480023384E+02  0.75450080039E+02  0.47000000000E+01 0. -1.
        -11    1    6    6    0    0  0.40933777795E+02  0.20650646436E+02 -0.59169424568E+02  0.74853484665E+02  0.00000000000E+00 0.  1.
         12    1    6    6    0    0  0.22200412264E+02  0.61599791624E+02  0.75338646824E+01  0.65910179410E+02  0.00000000000E+00 0. -1.
         -5    1    3    3    0  503 -0.25665348243E+02 -0.10314899867E+03 -0.21750963090E+04  0.21776970564E+04  0.47000000000E+01 0.  1.
         11    1    4    4    0    0  0.13204385340E+01  0.49901686081E+01 -0.11605590056E+04  0.11605704851E+04  0.00000000000E+00 0. -1.
        -12    1    4    4    0    0  0.16168669864E+02  0.16143930684E+02 -0.94572253909E+02  0.97293183690E+02  0.00000000000E+00 0.  1.
</event>
<event>
12    1  0.1598254E-001  0.1848778E+03  0.7818608E-02  0.1163280E+00
         21   -1    0    0  503  502  0.00000000000E+00  0.00000000000E+00  0.71126725988E+03  0.71126725988E+03  0.00000000000E+00 0.  1.
         21   -1    0    0  501  503 -0.00000000000E+00 -0.00000000000E+00 -0.66087765457E+02  0.66087765457E+02  0.00000000000E+00 0.  1.
          6    2    1    2  501    0  0.12781960362E+02 -0.70614303640E+02  0.11915100703E+03  0.21994716382E+03  0.17038202371E+03 0.  0.
         24    2    3    3    0    0 -0.43013883224E+02 -0.39415697598E+02  0.20246127959E+02  0.10208794999E+03  0.81291158607E+02 0.  0.
         -6    2    1    2    0  502 -0.12781960362E+02  0.70614303640E+02  0.52602848739E+03  0.55740786152E+03  0.16984638986E+03 0.  0.
        -24    2    5    5    0    0 -0.55713666881E+02  0.40064966852E+02  0.46300250119E+03  0.47512324365E+03  0.81618418837E+02 0.  0.
          5    1    3    3  501    0  0.55795843586E+02 -0.31198606041E+02  0.98904879071E+02  0.11785921383E+03  0.47000000000E+01 0. -1.
        -13    1    4    4    0    0  0.17823347362E+02  0.85113275576E+01  0.14354155145E+02  0.24416309670E+02  0.00000000000E+00 0.  1.
         14    1    4    4    0    0 -0.60837230586E+02 -0.47927025156E+02  0.58919728137E+01  0.77671640316E+02  0.00000000000E+00 0. -1.
         -5    1    5    5    0  502  0.42931706519E+02  0.30549336788E+02  0.63025986199E+02  0.82284617877E+02  0.47000000000E+01 0.  1.
         13    1    6    6    0    0 -0.21722217159E+02  0.34529420148E+02  0.73177798096E+02  0.83780222655E+02  0.00000000000E+00 0. -1.
        -14    1    6    6    0    0 -0.33991449722E+02  0.55355467038E+01  0.38982470310E+03  0.39134302099E+03  0.00000000000E+00 0.  1.
</event>
<event>
12    1  0.1598254E-001  0.1892823E+03  0.7818608E-02  0.1159134E+00
         21   -1    0    0  503  502  0.00000000000E+00  0.00000000000E+00  0.28740619749E+03  0.28740619749E+03  0.00000000000E+00 0. -1.
         21   -1    0    0  501  503 -0.00000000000E+00 -0.00000000000E+00 -0.49976152891E+03  0.49976152891E+03  0.00000000000E+00 0. -1.
          6    2    1    2  501    0  0.55879883891E+02  0.51562971784E+02 -0.44719813421E+03  0.48560680962E+03  0.17333926510E+03 0.  0.
         24    2    3    3    0    0  0.70106960569E+02  0.35508643568E+02 -0.14754809019E+03  0.18515316919E+03  0.79595272815E+02 0.  0.
         -6    2    1    2    0  502 -0.55879883891E+02 -0.51562971784E+02  0.23484280279E+03  0.30156091678E+03  0.17322396781E+03 0.  0.
        -24    2    5    5    0    0  0.14055768528E+02  0.25177956758E+02  0.94941595125E+02  0.12727780372E+03  0.79713478780E+02 0.  0.
          5    1    3    3  501    0 -0.14227076679E+02  0.16054328216E+02 -0.29965004402E+03  0.30045364043E+03  0.47000000000E+01 0. -1.
        -13    1    4    4    0    0  0.66558310145E+02 -0.76422437450E+01 -0.10425194127E+03  0.12392287843E+03  0.00000000000E+00 0.  1.
         14    1    4    4    0    0  0.35486504243E+01  0.43150887313E+02 -0.43296148911E+02  0.61230290758E+02  0.00000000000E+00 0. -1.
         -5    1    5    5    0  502 -0.69935652419E+02 -0.76740928542E+02  0.13990120766E+03  0.17428311306E+03  0.47000000000E+01 0.  1.
         13    1    6    6    0    0 -0.67727581610E+01  0.18659577554E+02  0.10232908831E+03  0.10423671331E+03  0.00000000000E+00 0. -1.
        -14    1    6    6    0    0  0.20828526689E+02  0.65183792035E+01 -0.73874931872E+01  0.23041090406E+02  0.00000000000E+00 0.  1.
</event>
<event>
12    1  0.1598254E-001  0.1753675E+03  0.7818608E-02  0.1173068E+00
         21   -1    0    0  501  502  0.00000000000E+00  0.00000000000E+00  0.14042260166E+03  0.14042260166E+03  0.00000000000E+00 0. -1.
         21   -1    0    0  502  503 -0.00000000000E+00 -0.00000000000E+00 -0.22032834282E+03  0.22032834282E+03  0.00000000000E+00 0. -1.
         -6    2    1    2    0  503  0.26951583382E+02 -0.11923728806E+02 -0.66239798350E+02  0.18485179574E+03  0.17004091375E+03 0.  0.
        -24    2    3    3    0    0 -0.12082758333E+02  0.47320132204E+02 -0.65419936605E+02  0.11374429210E+03  0.79201060094E+02 0.  0.
          6    2    1    2  501    0 -0.26951583382E+02  0.11923728806E+02 -0.13665942809E+02  0.17589914874E+03  0.17287333333E+03 0.  0.
         24    2    5    5    0    0  0.53322383173E+02  0.21092473401E+01 -0.14693610777E+02  0.94884459609E+02  0.77067717016E+02 0.  0.
          5    1    5    5  501    0 -0.80273966555E+02  0.98144814659E+01  0.10276679689E+01  0.81014689127E+02  0.47000000000E+01 0. -1.
        -13    1    6    6    0    0  0.31572349783E+02 -0.13885902141E+02  0.27962711338E+02  0.44402080745E+02  0.00000000000E+00 0.  1.
         14    1    6    6    0    0  0.21750033390E+02  0.15995149481E+02 -0.42656322116E+02  0.50482378865E+02  0.00000000000E+00 0. -1.
         -5    1    3    3    0  503  0.39034341715E+02 -0.59243861010E+02 -0.81986174436E+00  0.71107503639E+02  0.47000000000E+01 0.  1.
         13    1    4    4    0    0  0.11677805192E+01  0.26034408836E+01  0.17971695711E+02  0.18196798139E+02  0.00000000000E+00 0. -1.
        -14    1    4    4    0    0 -0.13250538853E+02  0.44716691321E+02 -0.83391632317E+02  0.95547493965E+02  0.00000000000E+00 0.  1.
</event>
<event>
12    1  0.1598254E-001  0.2411132E+03  0.7818608E-02  0.1119463E+00
         21   -1    0    0  503  502  0.00000000000E+00  0.00000000000E+00  0.84977219114E+03  0.84977219114E+03  0.00000000000E+00 0. -1.
         21   -1    0    0  501  503 -0.00000000000E+00 -0.00000000000E+00 -0.83778593359E+02  0.83778593359E+02  0.00000000000E+00 0.  1.
          6    2    1    2  501    0 -0.26922374425E+02  0.16378390259E+03  0.18020695496E+03  0.30101515183E+03  0.17488737524E+03 0.  0.
         24    2    3    3    0    0 -0.64003483179E+00  0.38611259461E+02  0.13191928160E+02  0.90598752417E+02  0.80887996446E+02 0.  0.
         -6    2    1    2    0  502  0.26922374425E+02 -0.16378390259E+03  0.58578664282E+03  0.63253563267E+03  0.17147989591E+03 0.  0.
        -24    2    5    5    0    0  0.30341982066E+02 -0.13338970981E+03  0.57954865106E+03  0.60096819356E+03  0.81072067729E+02 0.  0.
          5    1    3    3  501    0 -0.26282339594E+02  0.12517264313E+03  0.16701502680E+03  0.21041639941E+03  0.47000000000E+01 0. -1.
        -11    1    4    4    0    0 -0.25930959971E+02 -0.10994090126E+02 -0.10538429747E+02  0.30072299617E+02  0.00000000000E+00 0.  1.
         12    1    4    4    0    0  0.25290925139E+02  0.49605349587E+02  0.23730357908E+02  0.60526452800E+02  0.00000000000E+00 0. -1.
         -5    1    5    5    0  502 -0.34196076407E+01 -0.30394192780E+02  0.62379917636E+01  0.31567439117E+02  0.47000000000E+01 0.  1.
         13    1    6    6    0    0  0.23140146037E+02 -0.68608725767E+01  0.18492816579E+03  0.18649655341E+03  0.00000000000E+00 0. -1.
        -14    1    6    6    0    0  0.72018360288E+01 -0.12652883724E+03  0.39462048527E+03  0.41447164015E+03  0.00000000000E+00 0.  1.
</event>
<event>
12    1  0.1598254E-001  0.1802638E+03  0.7818608E-02  0.1167681E+00
         21   -1    0    0  503  502  0.00000000000E+00  0.00000000000E+00  0.39413080016E+03  0.39413080016E+03  0.00000000000E+00 0. -1.
         21   -1    0    0  501  503 -0.00000000000E+00 -0.00000000000E+00 -0.97963990257E+02  0.97963990257E+02  0.00000000000E+00 0. -1.
          6    2    1    2  501    0 -0.54239277904E+02 -0.74351509402E+01  0.49560083394E+02  0.18695248980E+03  0.17174938381E+03 0.  0.
         24    2    3    3    0    0 -0.14322874232E+02  0.68075768420E+01  0.94843758033E+02  0.12475220230E+03  0.79475063459E+02 0.  0.
         -6    2    1    2    0  502  0.54239277904E+02  0.74351509402E+01  0.24660672651E+03  0.30514230061E+03  0.17117174220E+03 0.  0.
        -24    2    5    5    0    0  0.98426024388E+02  0.22135972165E+02  0.20784402208E+03  0.24437043242E+03  0.79624664421E+02 0.  0.
          5    1    3    3  501    0 -0.39916403672E+02 -0.14242727782E+02 -0.45283674639E+02  0.62200287504E+02  0.47000000000E+01 0. -1.
        -11    1    4    4    0    0  0.62168551438E+01  0.40000714589E+02  0.60301021906E+02  0.72628642410E+02  0.00000000000E+00 0.  1.
         12    1    4    4    0    0 -0.20539729376E+02 -0.33193137747E+02  0.34542736128E+02  0.52123559889E+02  0.00000000000E+00 0. -1.
         -5    1    5    5    0  502 -0.44186746484E+02 -0.14700821225E+02  0.38762704423E+02  0.60771868194E+02  0.47000000000E+01 0.  1.
         13    1    6    6    0    0  0.49387664675E+02  0.46530141330E+02  0.77620906267E+02  0.10309801436E+03  0.00000000000E+00 0. -1.
        -14    1    6    6    0    0  0.49038359712E+02 -0.24394169165E+02  0.13022311582E+03  0.14127241806E+03  0.00000000000E+00 0.  1.
</event>
<event>
12    1  0.1598254E-001  0.1740702E+03  0.7818608E-02  0.1174041E+00
         21   -1    0    0  503  502  0.00000000000E+00  0.00000000000E+00  0.16780168286E+03  0.16780168286E+03  0.00000000000E+00 0. -1.
         21   -1    0    0  501  503 -0.00000000000E+00 -0.00000000000E+00 -0.18101461385E+03  0.18101461385E+03  0.00000000000E+00 0. -1.
          6    2    1    2  501    0 -0.11714173115E+02  0.60320851194E+01 -0.24722348716E+02  0.17436596407E+03  0.17210080475E+03 0.  0.
         24    2    3    3    0    0 -0.72901289888E+02  0.14452939291E+02 -0.25033082553E+02  0.11242275944E+03  0.80552691429E+02 0.  0.
         -6    2    1    2    0  502  0.11714173115E+02 -0.60320851194E+01  0.11509417719E+02  0.17445033264E+03  0.17357086149E+03 0.  0.
        -24    2    5    5    0    0 -0.21689596349E+02  0.17742566740E+02  0.65205865135E+02  0.10672704012E+03  0.79709591515E+02 0.  0.
          5    1    3    3  501    0  0.61187116773E+02 -0.84208541713E+01  0.31073383761E+00  0.61943204627E+02  0.47000000000E+01 0. -1.
        -11    1    4    4    0    0 -0.41412693271E+02  0.41257523094E+02  0.86435501068E+01  0.59092345818E+02  0.00000000000E+00 0.  1.
         12    1    4    4    0    0 -0.31488596617E+02 -0.26804583803E+02 -0.33676632660E+02  0.53330413622E+02  0.00000000000E+00 0. -1.
         -5    1    5    5    0  502  0.33403769465E+02 -0.23774651860E+02 -0.53696447416E+02  0.67723292526E+02  0.47000000000E+01 0.  1.
         13    1    6    6    0    0 -0.22533463886E+02 -0.20994415975E+02  0.60249958388E+02  0.67665205110E+02  0.00000000000E+00 0. -1.
        -14    1    6    6    0    0  0.84386753634E+00  0.38736982715E+02  0.49559067466E+01  0.39061835005E+02  0.00000000000E+00 0.  1.
</event>
<event>
12    1  0.1598254E-001  0.2176380E+03  0.7818608E-02  0.1135839E+00
         21   -1    0    0  503  502  0.00000000000E+00  0.00000000000E+00  0.24259638024E+03  0.24259638024E+03  0.00000000000E+00 0.  1.
         21   -1    0    0  501  503 -0.00000000000E+00 -0.00000000000E+00 -0.21279255289E+03  0.21279255289E+03  0.00000000000E+00 0. -1.
          6    2    1    2  501    0  0.17467078015E+02  0.13100851505E+03 -0.52038393234E+02  0.22377286100E+03  0.17291029212E+03 0.  0.
         24    2    3    3    0    0  0.25573430476E+02 -0.21773737374E+01 -0.26388606432E+02  0.87816266878E+02  0.79728268991E+02 0.  0.
         -6    2    1    2    0  502 -0.17467078015E+02 -0.13100851505E+03  0.81842220576E+02  0.23161607213E+03  0.17169602782E+03 0.  0.
        -24    2    5    5    0    0 -0.33623257340E+02 -0.10025503073E+03 -0.10997989996E+02  0.13237800671E+03  0.78875764700E+02 0.  0.
          5    1    3    3  501    0 -0.81063524616E+01  0.13318588879E+03 -0.25649786803E+02  0.13595659412E+03  0.47000000000E+01 0. -1.
        -13    1    4    4    0    0 -0.27619831234E+02 -0.10572808205E+02 -0.13120742053E+02  0.32354184007E+02  0.00000000000E+00 0.  1.
         14    1    4    4    0    0  0.53193261710E+02  0.83954344678E+01 -0.13267864378E+02  0.55462082871E+02  0.00000000000E+00 0. -1.
         -5    1    5    5    0  502  0.16156179326E+02 -0.30753484321E+02  0.92840210572E+02  0.99238065415E+02  0.47000000000E+01 0.  1.
         11    1    6    6    0    0  0.18512607857E+02 -0.51818976506E+00 -0.68950582509E+01  0.19761755959E+02  0.00000000000E+00 0. -1.
        -12    1    6    6    0    0 -0.52135865197E+02 -0.99736840963E+02 -0.41029317454E+01  0.11261625075E+03  0.00000000000E+00 0.  1.
</event>
<event>
12    1  0.1598254E-001  0.2317718E+03  0.7818608E-02  0.1125697E+00
         21   -1    0    0  501  502  0.00000000000E+00  0.00000000000E+00  0.45438125723E+03  0.45438125723E+03  0.00000000000E+00 0.  1.
         21   -1    0    0  502  503 -0.00000000000E+00 -0.00000000000E+00 -0.24490292452E+03  0.24490292452E+03  0.00000000000E+00 0.  1.
         -6    2    1    2    0  503 -0.16898975324E+02  0.15256127630E+03 -0.14777349350E+03  0.27343555497E+03  0.17137525768E+03 0.  0.
        -24    2    3    3    0    0 -0.13848198695E+02  0.18084132003E+03 -0.14115044915E+03  0.24385477020E+03  0.81525112802E+02 0.  0.
          6    2    1    2  501    0  0.16898975324E+02 -0.15256127630E+03  0.35725182621E+03  0.42584862678E+03  0.17365963033E+03 0.  0.
         24    2    5    5    0    0  0.62299157710E+01 -0.17654737286E+03  0.34586311045E+03  0.39684941117E+03  0.81611134389E+02 0.  0.
          5    1    5    5  501    0  0.10669059553E+02  0.23986096555E+02  0.11388715758E+02  0.28999215616E+02  0.47000000000E+01 0. -1.
        -11    1    6    6    0    0  0.36700484072E+02 -0.43930704611E+02  0.12412775096E+03  0.13669137097E+03  0.00000000000E+00 0.  1.
         12    1    6    6    0    0 -0.30470568301E+02 -0.13261666825E+03  0.22173535949E+03  0.26015804019E+03  0.00000000000E+00 0. -1.
         -5    1    3    3    0  503 -0.30507766282E+01 -0.28280043726E+02 -0.66230443533E+01  0.29580784771E+02  0.47000000000E+01 0.  1.
         11    1    4    4    0    0 -0.19050357508E+02  0.57161840843E+02 -0.59528215427E+01  0.60546083722E+02  0.00000000000E+00 0. -1.
        -12    1    4    4    0    0  0.52021588126E+01  0.12367947919E+03 -0.13519762760E+03  0.18330868648E+03  0.00000000000E+00 0.  1.
</event>
<event>
12    1  0.1598254E-001  0.2492434E+03  0.7818608E-02  0.1114245E+00
         21   -1    0    0  503  502  0.00000000000E+00  0.00000000000E+00  0.52479119398E+03  0.52479119398E+03  0.00000000000E+00 0.  1.
         21   -1    0    0  501  503 -0.00000000000E+00 -0.00000000000E+00 -0.12378856590E+03  0.12378856590E+03  0.00000000000E+00 0.  1.
          6    2    1    2  501    0 -0.10140340613E+03  0.14447817757E+03  0.12570739019E+03  0.27914982527E+03  0.17597068628E+03 0.  0.
         24    2    3    3    0    0 -0.10269350396E+03  0.30902775144E+02  0.85849853426E+02  0.15868510170E+03  0.79434418862E+02 0.  0.
         -6    2    1    2    0  502  0.10140340613E+03 -0.14447817757E+03  0.27529523790E+03  0.36942993462E+03  0.17185579425E+03 0.  0.
        -24    2    5    5    0    0  0.32792134788E+02 -0.12329375843E+03  0.89726383216E+02  0.17039683185E+03  0.68611817420E+02 0.  0.
          5    1    3    3  501    0  0.12900978309E+01  0.11357540242E+03  0.39857536760E+02  0.12046472357E+03  0.47000000000E+01 0. -1.
        -13    1    4    4    0    0 -0.42835999966E+02  0.53961033785E+02  0.38197205610E+02  0.78776535699E+02  0.00000000000E+00 0.  1.
         14    1    4    4    0    0 -0.59857503996E+02 -0.23058258641E+02  0.47652647816E+02  0.79908565999E+02  0.00000000000E+00 0. -1.
         -5    1    5    5    0  502  0.68611271343E+02 -0.21184419139E+02  0.18556885468E+03  0.19903310277E+03  0.47000000000E+01 0.  1.
         13    1    6    6    0    0  0.31261354993E+02 -0.65670733041E+02  0.12135778527E+02  0.73737335283E+02  0.00000000000E+00 0. -1.
        -14    1    6    6    0    0  0.15307797951E+01 -0.57623025387E+02  0.77590604688E+02  0.96659496571E+02  0.00000000000E+00 0.  1.
</event>
<event>
12    1  0.1598254E-001  0.2248831E+03  0.7818608E-02  0.1130336E+00
         21   -1    0    0  503  502  0.00000000000E+00  0.00000000000E+00  0.31948945360E+03  0.31948945360E+03  0.00000000000E+00 0.  1.
         21   -1    0    0  501  503 -0.00000000000E+00 -0.00000000000E+00 -0.32504612888E+03  0.32504612888E+03  0.00000000000E+00 0.  1.
          6    2    1    2  501    0 -0.80090093400E+02  0.12072023072E+03  0.22816002283E+03  0.32035826133E+03  0.17200180935E+03 0.  0.
         24    2    3    3    0    0 -0.22441913188E+02  0.13867788928E+03  0.13691494401E+03  0.21084321857E+03  0.77291425667E+02 0.  0.
         -6    2    1    2    0  502  0.80090093400E+02 -0.12072023072E+03 -0.23371669811E+03  0.32417732115E+03  0.17169636982E+03 0.  0.
        -24    2    5    5    0    0  0.33729507622E+02 -0.96530873029E+02 -0.23888401648E+03  0.27142108817E+03  0.78408830109E+02 0.  0.
          5    1    3    3  501    0 -0.57648180211E+02 -0.17957658554E+02  0.91245078815E+02  0.10951504276E+03  0.47000000000E+01 0. -1.
        -13    1    4    4    0    0 -0.37357257202E+02  0.54948836826E+02  0.95257274825E+02  0.11614167099E+03  0.00000000000E+00 0.  1.
         14    1    4    4    0    0  0.14915344013E+02  0.83729052449E+02  0.41657669185E+02  0.94701547575E+02  0.00000000000E+00 0. -1.
         -5    1    5    5    0  502  0.46360585777E+02 -0.24189357692E+02  0.51673183769E+01  0.52756232981E+02  0.47000000000E+01 0. -1.
         13    1    6    6    0    0 -0.14483016716E+02 -0.33330442902E+02 -0.27464902092E+02  0.45552135452E+02  0.00000000000E+00 0. -1.
        -14    1    6    6    0    0  0.48212524339E+02 -0.63200430127E+02 -0.21141911439E+03  0.22586895272E+03  0.00000000000E+00 0.  1.
</event>
<event>
12    1  0.1598254E-001  0.1847335E+03  0.7818608E-02  0.1163533E+00
         21   -1    0    0  503  502  0.00000000000E+00  0.00000000000E+00  0.79324644249E+03  0.79324644249E+03  0.00000000000E+00 0. -1.
         21   -1    0    0  501  503 -0.00000000000E+00 -0.00000000000E+00 -0.44474014157E+03  0.44474014157E+03  0.00000000000E+00 0. -1.
          6    2    1    2  501    0  0.84972305085E+01  0.62453764578E+02 -0.41425551724E+03  0.45317319432E+03  0.17258515245E+03 0.  0.
         24    2    3    3    0    0 -0.56501357693E+02  0.18415541793E+02 -0.27964358447E+03  0.29726731252E+03  0.81460328734E+02 0.  0.
         -6    2    1    2    0  502 -0.84972305085E+01 -0.62453764578E+02  0.76276181817E+03  0.78481338974E+03  0.17364846622E+03 0.  0.
        -24    2    5    5    0    0  0.54786892500E+02 -0.30738659350E+01  0.44215290611E+03  0.45263419551E+03  0.79796430501E+02 0.  0.
          5    1    3    3  501    0  0.64998588201E+02  0.44038222785E+02 -0.13461193277E+03  0.15590588180E+03  0.47000000000E+01 0. -1.
        -13    1    4    4    0    0 -0.34442455342E+01 -0.59230638310E+01  0.38276227826E+01  0.78483252107E+01  0.00000000000E+00 0.  1.
         14    1    4    4    0    0 -0.53057112159E+02  0.24338605624E+02 -0.28347120725E+03  0.28941898731E+03  0.00000000000E+00 0. -1.
         -5    1    5    5    0  502 -0.63284123009E+02 -0.59379898643E+02  0.32060891206E+03  0.33217919423E+03  0.47000000000E+01 0.  1.
         13    1    6    6    0    0 -0.20105372945E+02  0.46000718156E+01  0.12337726690E+03  0.12508931477E+03  0.00000000000E+00 0. -1.
        -14    1    6    6    0    0  0.74892265446E+02 -0.76739377506E+01  0.31877563921E+03  0.32754488074E+03  0.00000000000E+00 0.  1.
</event>
<event>
12    1  0.1598254E-001  0.2267674E+03  0.7818608E-02  0.1129658E+00
         21   -1    0    0  501  502  0.00000000000E+00  0.00000000000E+00  0.80163466469E+02  0.80163466469E+02  0.00000000000E+00 0.  1.
         21   -1    0    0  502  503 -0.00000000000E+00 -0.00000000000E+00 -0.70431558914E+03  0.70431558914E+03  0.00000000000E+00 0.  1.
         -6    2    1    2    0  503 -0.13991881996E+03  0.22640263498E+02 -0.44175328852E+03  0.49655758552E+03  0.17701302241E+03 0.  0.
        -24    2    3    3    0    0 -0.14855821535E+02  0.16567499730E+02 -0.28004745096E+03  0.29198852643E+03  0.79596151254E+02 0.  0.
          6    2    1    2  501    0  0.13991881996E+03 -0.22640263498E+02 -0.18239883415E+03  0.28792147010E+03  0.17187082513E+03 0.  0.
         24    2    5    5    0    0  0.38626139851E+02 -0.39301670890E+02 -0.15382969865E+03  0.18126269154E+03  0.78460099036E+02 0.  0.
          5    1    5    5  501    0  0.10129268011E+03  0.16661407392E+02 -0.28569135499E+02  0.10665877856E+03  0.47000000000E+01 0. -1.
        -13    1    6    6    0    0  0.63612279602E+01  0.20863042265E+02 -0.14749905387E+02  0.26330428455E+02  0.00000000000E+00 0.  1.
         14    1    6    6    0    0  0.32264911891E+02 -0.60164713155E+02 -0.13907979327E+03  0.15493226308E+03  0.00000000000E+00 0. -1.
         -5    1    3    3    0  503 -0.12506299843E+03  0.60727637680E+01 -0.16170583756E+03  0.20456905909E+03  0.47000000000E+01 0.  1.
         11    1    4    4    0    0  0.18233950592E+02  0.34869836774E+02 -0.90164167501E+02  0.98376621064E+02  0.00000000000E+00 0. -1.
        -12    1    4    4    0    0 -0.33089772127E+02 -0.18302337043E+02 -0.18988328346E+03  0.19361190536E+03  0.00000000000E+00 0.  1.
</event>
<event>
12    1  0.1598254E-001  0.1870406E+03  0.7818608E-02  0.1161172E+00
         21   -1    0    0  501  502  0.00000000000E+00  0.00000000000E+00  0.13170570144E+03  0.13170570144E+03  0.00000000000E+00 0. -1.
         21   -1    0    0  502  503 -0.00000000000E+00 -0.00000000000E+00 -0.51935529809E+03  0.51935529809E+03  0.00000000000E+00 0. -1.
         -6    2    1    2    0  503 -0.57606911783E+02 -0.45549251438E+02 -0.42141280184E+03  0.46105633206E+03  0.17202006043E+03 0.  0.
        -24    2    3    3    0    0  0.23824111465E+02  0.10654516086E+02 -0.22941108056E+03  0.24500859196E+03  0.81967427970E+02 0.  0.
          6    2    1    2  501    0  0.57606911783E+02  0.45549251438E+02  0.33763205186E+02  0.19000466747E+03  0.17195502041E+03 0.  0.
         24    2    5    5    0    0 -0.15896119097E+02 -0.86726425456E+01 -0.19848854314E+02  0.83990270993E+02  0.79576926761E+02 0.  0.
          5    1    5    5  501    0  0.73503030881E+02  0.54221893984E+02  0.53612059500E+02  0.10601439647E+03  0.47000000000E+01 0. -1.
        -11    1    6    6    0    0 -0.53414018036E+01  0.23100863765E+02 -0.38834954485E+02  0.45500924933E+02  0.00000000000E+00 0.  1.
         12    1    6    6    0    0 -0.10554717294E+02 -0.31773506311E+02  0.18986100171E+02  0.38489346060E+02  0.00000000000E+00 0. -1.
         -5    1    3    3    0  503 -0.81431023249E+02 -0.56203767524E+02 -0.19200172127E+03  0.21604774010E+03  0.47000000000E+01 0.  1.
         11    1    4    4    0    0  0.11159181890E+02 -0.35823861147E+02 -0.11114901508E+03  0.11731146543E+03  0.00000000000E+00 0. -1.
        -12    1    4    4    0    0  0.12664929576E+02  0.46478377233E+02 -0.11826206548E+03  0.12769712653E+03  0.00000000000E+00 0.  1.
</event>
<event>
12    1  0.1598254E-001  0.2782962E+03  0.7818608E-02  0.1096663E+00
         21   -1    0    0  501  502  0.00000000000E+00  0.00000000000E+00  0.72891798016E+02  0.72891798016E+02  0.00000000000E+00 0.  1.
         21   -1    0    0  502  503 -0.00000000000E+00 -0.00000000000E+00 -0.14122618420E+04  0.14122618420E+04  0.00000000000E+00 0.  1.
         -6    2    1    2    0  503 -0.20589175207E+03 -0.74340179184E+02 -0.10400748675E+04  0.10766635907E+04  0.17184551668E+03 0.  0.
        -24    2    3    3    0    0 -0.66368293658E+02  0.13440306608E+02 -0.53585399227E+03  0.54616100804E+03  0.81036741215E+02 0.  0.
          6    2    1    2  501    0  0.20589175207E+03  0.74340179184E+02 -0.29929517649E+03  0.40849004938E+03  0.17137281569E+03 0.  0.
         24    2    5    5    0    0  0.12363762142E+03 -0.24069235801E+02 -0.15494612246E+03  0.21533494495E+03  0.80593102115E+02 0.  0.
          5    1    5    5  501    0  0.82254130657E+02  0.98409414985E+02 -0.14434905402E+03  0.19315510443E+03  0.47000000000E+01 0. -1.
        -13    1    6    6    0    0  0.85182116112E+02 -0.18152503633E+02 -0.43623796824E+02  0.97409147121E+02  0.00000000000E+00 0.  1.
         14    1    6    6    0    0  0.38455505304E+02 -0.59167321673E+01 -0.11132232564E+03  0.11792579783E+03  0.00000000000E+00 0. -1.
         -5    1    3    3    0  503 -0.13952345841E+03 -0.87780485792E+02 -0.50422087523E+03  0.53050258261E+03  0.47000000000E+01 0.  1.
         11    1    4    4    0    0 -0.79943236299E+02  0.28291132370E+02 -0.45547466565E+03  0.46330171622E+03  0.00000000000E+00 0. -1.
        -12    1    4    4    0    0  0.13574942640E+02 -0.14850825762E+02 -0.80379326623E+02  0.82859291826E+02  0.00000000000E+00 0.  1.
</event>
<event>
12    1  0.1598254E-001  0.1903120E+03  0.7818608E-02  0.1158559E+00
         21   -1    0    0  501  502  0.00000000000E+00  0.00000000000E+00  0.92800386305E+03  0.92800386305E+03  0.00000000000E+00 0.  1.
         21   -1    0    0  502  503 -0.00000000000E+00 -0.00000000000E+00 -0.13391090284E+03  0.13391090284E+03  0.00000000000E+00 0.  1.
         -6    2    1    2    0  503  0.76648161627E+02  0.52793388602E+01 -0.51200371850E+02  0.19546252243E+03  0.17228263842E+03 0.  0.
        -24    2    3    3    0    0  0.75582305041E+02  0.47657453751E+02  0.85064598885E+01  0.12208652889E+03  0.82757736460E+02 0.  0.
          6    2    1    2  501    0 -0.76648161627E+02 -0.52793388602E+01  0.84529333206E+03  0.86645224345E+03  0.17411450503E+03 0.  0.
         24    2    5    5    0    0 -0.69281638090E+02 -0.23185932052E+02  0.27020877835E+03  0.29102262511E+03  0.79648299467E+02 0.  0.
          5    1    5    5  501    0 -0.73665235370E+01  0.17906593192E+02  0.57508455370E+03  0.57542961834E+03  0.47000000000E+01 0. -1.
        -11    1    6    6    0    0 -0.29863017709E+02 -0.46415179885E+02  0.19791602196E+03  0.20546756557E+03  0.00000000000E+00 0.  1.
         12    1    6    6    0    0 -0.39418620382E+02  0.23229247833E+02  0.72292756388E+02  0.85555059546E+02  0.00000000000E+00 0. -1.
         -5    1    3    3    0  503  0.10658565866E+01 -0.42378114891E+02 -0.59706831738E+02  0.73375993542E+02  0.47000000000E+01 0.  1.
         11    1    4    4    0    0  0.33883540311E+02 -0.45556122480E+01  0.36165791348E+02  0.49767583534E+02  0.00000000000E+00 0. -1.
        -12    1    4    4    0    0  0.41698764729E+02  0.52213065999E+02 -0.27659331460E+02  0.72318945359E+02  0.00000000000E+00 0.  1.
</event>
<event>
12    1  0.1598254E-001  0.2029918E+03  0.7818608E-02  0.1147495E+00
         21   -1    0    0  503  502  0.00000000000E+00  0.00000000000E+00  0.12594413470E+04  0.12594413470E+04  0.00000000000E+00 0. -1.
         21   -1    0    0  501  503 -0.00000000000E+00 -0.00000000000E+00 -0.57317719287E+02  0.57317719287E+02  0.00000000000E+00 0. -1.
          6    2    1    2  501    0 -0.60479918014E+02 -0.91316461710E+02  0.16696328510E+03  0.26188343442E+03  0.16943930473E+03 0.  0.
         24    2    3    3    0    0 -0.63454605840E+02  0.39318143490E+01  0.61340345268E+02  0.11954799161E+03  0.80542772327E+02 0.  0.
         -6    2    1    2    0  502  0.60479918014E+02  0.91316461710E+02  0.10351603426E+04  0.10548756318E+04  0.17090683759E+03 0.  0.
        -24    2    5    5    0    0  0.21537689430E+02 -0.29989447216E+01  0.28224513535E+03  0.29506296261E+03  0.83228419033E+02 0.  0.
          5    1    3    3  501    0  0.29746878266E+01 -0.95248276059E+02  0.10562293984E+03  0.14233544281E+03  0.47000000000E+01 0. -1.
        -13    1    4    4    0    0  0.77347955526E+01 -0.53899959292E+01  0.44917948666E+02  0.45896636377E+02  0.00000000000E+00 0.  1.
         14    1    4    4    0    0 -0.71189401393E+02  0.93218102782E+01  0.16422396602E+02  0.73651355233E+02  0.00000000000E+00 0. -1.
         -5    1    5    5    0  502  0.38942228583E+02  0.94315406432E+02  0.75291520721E+03  0.75981266922E+03  0.47000000000E+01 0.  1.
         13    1    6    6    0    0  0.45440309610E+01  0.24355666356E+02  0.24316474106E+03  0.24442368542E+03  0.00000000000E+00 0. -1.
        -14    1    6    6    0    0  0.16993658469E+02 -0.27354611078E+02  0.39080394296E+02  0.50639277184E+02  0.00000000000E+00 0.  1.
</event>
<event>
12    1  0.1598254E-001  0.2364183E+03  0.7818608E-02  0.1122351E+00
         21   -1    0    0  503  502  0.00000000000E+00  0.00000000000E+00  0.50458189657E+03  0.50458189657E+03  0.00000000000E+00 0. -1.
         21   -1    0    0  501  503 -0.00000000000E+00 -0.00000000000E+00 -0.12128510173E+03  0.12128510173E+03  0.00000000000E+00 0. -1.
          6    2    1    2  501    0 -0.13128402714E+03 -0.95104188906E+02  0.98062822265E+02  0.25594904525E+03  0.17208513627E+03 0.  0.
         24    2    3    3    0    0 -0.12252155880E+02 -0.83832109240E+02  0.38681396444E+02  0.12236802157E+03  0.79370929239E+02 0.  0.
         -6    2    1    2    0  502  0.13128402714E+03  0.95104188906E+02  0.28523397258E+03  0.36991795305E+03  0.17088174375E+03 0.  0.
        -24    2    5    5    0    0  0.13697567433E+03  0.26686252109E+02  0.14311687656E+03  0.21201681973E+03  0.70669654600E+02 0.  0.
          5    1    3    3  501    0 -0.11903187126E+03 -0.11272079666E+02  0.59381425820E+02  0.13358102368E+03  0.47000000000E+01 0. -1.
        -11    1    4    4    0    0 -0.25240190084E+02 -0.59472296588E+02 -0.10995788540E+02  0.65535704944E+02  0.00000000000E+00 0.  1.
         12    1    4    4    0    0  0.12988034204E+02 -0.24359812653E+02  0.49677184984E+02  0.56832316625E+02  0.00000000000E+00 0. -1.
         -5    1    5    5    0  502 -0.56916471940E+01  0.68417936797E+02  0.14211709602E+03  0.15790113333E+03  0.47000000000E+01 0.  1.
         13    1    6    6    0    0  0.11610595815E+03  0.48586889253E+02  0.10992517308E+03  0.16710722008E+03  0.00000000000E+00 0. -1.
        -14    1    6    6    0    0  0.20869716176E+02 -0.21900637145E+02  0.33191703479E+02  0.44909599647E+02  0.00000000000E+00 0.  1.
</event>
<event>
12    1  0.1598254E-001  0.2158507E+03  0.7818608E-02  0.1138585E+00
         21   -1    0    0  501  502  0.00000000000E+00  0.00000000000E+00  0.10855222835E+03  0.10855222835E+03  0.00000000000E+00 0.  1.
         21   -1    0    0  502  503 -0.00000000000E+00 -0.00000000000E+00 -0.45512125664E+03  0.45512125664E+03  0.00000000000E+00 0.  1.
         -6    2    1    2    0  503 -0.10130247264E+03  0.59057217807E+02 -0.26165278382E+03  0.33919567348E+03  0.18122245911E+03 0.  0.
        -24    2    3    3    0    0 -0.10836280492E+03  0.95348059653E+02 -0.25012244823E+03  0.30018398122E+03  0.81947748625E+02 0.  0.
          6    2    1    2  501    0  0.10130247264E+03 -0.59057217807E+02 -0.84916244474E+02  0.22447781152E+03  0.17155049796E+03 0.  0.
         24    2    5    5    0    0  0.58280204509E+02  0.33739085832E+02 -0.48339922815E+02  0.11574885111E+03  0.80784529746E+02 0.  0.
          5    1    5    5  501    0  0.43022268135E+02 -0.92796303639E+02 -0.36576321659E+02  0.10872896040E+03  0.47000000000E+01 0. -1.
        -13    1    6    6    0    0  0.72974544330E+02  0.38734826846E+02 -0.54582837035E+02  0.99019982982E+02  0.00000000000E+00 0.  1.
         14    1    6    6    0    0 -0.14694339821E+02 -0.49957410141E+01  0.62429142200E+01  0.16728868133E+02  0.00000000000E+00 0. -1.
         -5    1    3    3    0  503  0.70603322777E+01 -0.36290841845E+02 -0.11530335593E+02  0.39011692255E+02  0.47000000000E+01 0.  1.
         11    1    4    4    0    0  0.58838943189E+01  0.15055132821E+02 -0.31499371047E+01  0.16468131053E+02  0.00000000000E+00 0. -1.
        -12    1    4    4    0    0 -0.11424669924E+03  0.80292926831E+02 -0.24697251112E+03  0.28371585017E+03  0.00000000000E+00 0.  1.
</event>
<event>
12    1  0.1598254E-001  0.1756735E+03  0.7818608E-02  0.1172163E+00
         21   -1    0    0  503  502  0.00000000000E+00  0.00000000000E+00  0.49778530510E+03  0.49778530510E+03  0.00000000000E+00 0.  1.
         21   -1    0    0  501  503 -0.00000000000E+00 -0.00000000000E+00 -0.72406494652E+02  0.72406494652E+02  0.00000000000E+00 0.  1.
          6    2    1    2  501    0  0.38088359618E+01 -0.32348846241E+02  0.10359773514E+03  0.20357995980E+03  0.17219568584E+03 0.  0.
         24    2    3    3    0    0 -0.30237775965E+02 -0.76771150055E+02  0.48692154450E+02  0.12503554147E+03  0.80341945141E+02 0.  0.
         -6    2    1    2    0  502 -0.38088359618E+01  0.32348846241E+02  0.32178107531E+03  0.36661183996E+03  0.17262741869E+03 0.  0.
        -24    2    5    5    0    0 -0.52720637218E+02  0.28993193401E+02  0.29207089390E+03  0.30909306400E+03  0.81320626515E+02 0.  0.
          5    1    3    3  501    0  0.34046611927E+02  0.44422303814E+02  0.54905580688E+02  0.78544418328E+02  0.47000000000E+01 0. -1.
        -13    1    4    4    0    0  0.23962752333E+02 -0.32816410625E+02  0.12512921136E+01  0.40653364407E+02  0.00000000000E+00 0.  1.
         14    1    4    4    0    0 -0.54200528298E+02 -0.43954739430E+02  0.47440862337E+02  0.84382177060E+02  0.00000000000E+00 0. -1.
         -5    1    5    5    0  502  0.48911801257E+02  0.33556528402E+01  0.29710181412E+02  0.57518775958E+02  0.47000000000E+01 0.  1.
         11    1    6    6    0    0 -0.34566358739E+02  0.33151488347E+02  0.62366231880E+02  0.78634605709E+02  0.00000000000E+00 0. -1.
        -12    1    6    6    0    0 -0.18154278480E+02 -0.41582949469E+01  0.22970466202E+03  0.23045845829E+03  0.00000000000E+00 0.  1.
</event>
<event>
12    1  0.1598254E-001  0.2112052E+03  0.7818608E-02  0.1140855E+00
         21   -1    0    0  503  502  0.00000000000E+00  0.00000000000E+00  0.70151084435E+02  0.70151084435E+02  0.00000000000E+00 0.  1.
         21   -1    0    0  501  503 -0.00000000000E+00 -0.00000000000E+00 -0.63223443000E+03  0.63223443000E+03  0.00000000000E+00 0. -1.
          6    2    1    2  501    0 -0.12037549431E+03  0.44202396139E+01 -0.27906246395E+03  0.34924465786E+03  0.17200631998E+03 0.  0.
         24    2    3    3    0    0 -0.55528711618E+02 -0.69102813384E+01 -0.45757415960E+02  0.10678472025E+03  0.78600544280E+02 0.  0.
         -6    2    1    2    0  502  0.12037549431E+03 -0.44202396139E+01 -0.28302088162E+03  0.35314085658E+03  0.17348731078E+03 0.  0.
        -24    2    5    5    0    0  0.28841632410E+02 -0.40690416923E+02 -0.64169451200E+02  0.11311583240E+03  0.78676065496E+02 0.  0.
          5    1    3    3  501    0 -0.64846782689E+02  0.11330520952E+02 -0.23330504799E+03  0.24245993761E+03  0.47000000000E+01 0. -1.
        -13    1    4    4    0    0  0.64239113812E+01 -0.56568118776E-01 -0.43961363510E+02  0.44428271619E+02  0.00000000000E+00 0.  1.
         14    1    4    4    0    0 -0.61952622999E+02 -0.68537132196E+01 -0.17960524505E+01  0.62356448630E+02  0.00000000000E+00 0. -1.
         -5    1    5    5    0  502  0.91533861897E+02  0.36270177309E+02 -0.21885143042E+03  0.24002502418E+03  0.47000000000E+01 0.  1.
         13    1    6    6    0    0 -0.49467837902E+00 -0.28194210992E+02 -0.74451069601E+02  0.79612310637E+02  0.00000000000E+00 0. -1.
        -14    1    6    6    0    0  0.29336310789E+02 -0.12496205931E+02  0.10281618401E+02  0.33503521760E+02  0.00000000000E+00 0.  1.
</event>
<event>
12    1  0.1598254E-001  0.1770420E+03  0.7818608E-02  0.1170790E+00
         21   -1    0    0  501  502  0.00000000000E+00  0.00000000000E+00  0.11175325789E+03  0.11175325789E+03  0.00000000000E+00 0.  1.
         21   -1    0    0  502  503 -0.00000000000E+00 -0.00000000000E+00 -0.30730685311E+03  0.30730685311E+03  0.00000000000E+00 0.  1.
         -6    2    1    2    0  503  0.44289417867E+01 -0.42648804101E+02 -0.35083448076E+02  0.18011550621E+03  0.17138322914E+03 0.  0.
        -24    2    3    3    0    0 -0.58397579279E+02 -0.25933556585E+02  0.63071255566E+01  0.10290254852E+03  0.80413481685E+02 0.  0.
          6    2    1    2  501    0 -0.44289417867E+01  0.42648804101E+02 -0.16047014714E+03  0.23894460479E+03  0.17177112684E+03 0.  0.
         24    2    5    5    0    0 -0.37615095538E+02 -0.34338452231E+02 -0.89057085288E+02  0.12871632420E+03  0.77734824634E+02 0.  0.
          5    1    5    5  501    0  0.33186153751E+02  0.76987256332E+02 -0.71413061857E+02  0.11022828059E+03  0.47000000000E+01 0. -1.
        -11    1    6    6    0    0 -0.45617235290E+02 -0.47195633458E+02 -0.92270454434E+02  0.11323513913E+03  0.00000000000E+00 0.  1.
         12    1    6    6    0    0  0.80021397525E+01  0.12857181227E+02  0.32133691462E+01  0.15481185064E+02  0.00000000000E+00 0. -1.
         -5    1    3    3    0  503  0.62826521065E+02 -0.16715247516E+02 -0.41390573633E+02  0.77212957684E+02  0.47000000000E+01 0.  1.
         11    1    4    4    0    0 -0.39387867547E+02 -0.10136592879E+02 -0.35730472471E+02  0.54137060209E+02  0.00000000000E+00 0. -1.
        -12    1    4    4    0    0 -0.19009711732E+02 -0.15796963706E+02  0.42037598027E+02  0.48765488312E+02  0.00000000000E+00 0.  1.
</event>
<event>
12    1  0.1598254E-001  0.2727456E+03  0.7818608E-02  0.1099873E+00
         21   -1    0    0  503  502  0.00000000000E+00  0.00000000000E+00  0.47605852018E+03  0.47605852018E+03  0.00000000000E+00 0.  1.
         21   -1    0    0  501  503 -0.00000000000E+00 -0.00000000000E+00 -0.20370056551E+03  0.20370056551E+03  0.00000000000E+00 0.  1.
          6    2    1    2  501    0  0.60160759858E+02 -0.20228187302E+03 -0.29128770000E+02  0.27320721259E+03  0.17104508935E+03 0.  0.
         24    2    3    3    0    0 -0.23328668916E+02 -0.39908414239E+02 -0.11080053459E+02  0.89676640200E+02  0.76040935637E+02 0.  0.
         -6    2    1    2    0  502 -0.60160759858E+02  0.20228187302E+03  0.30148672467E+03  0.40655187310E+03  0.17277993863E+03 0.  0.
        -24    2    5    5    0    0 -0.31728549261E+02  0.57363099698E+02  0.31242030834E+02  0.98551668547E+02  0.66626877742E+02 0.  0.
          5    1    3    3  501    0  0.83489428774E+02 -0.16237345878E+03 -0.18048716542E+02  0.18353057239E+03  0.47000000000E+01 0. -1.
        -13    1    4    4    0    0  0.11385769945E+02  0.13898239717E+02 -0.17800953673E+02  0.25291713587E+02  0.00000000000E+00 0.  1.
         14    1    4    4    0    0 -0.34714438861E+02 -0.53806653956E+02  0.67209002146E+01  0.64384926614E+02  0.00000000000E+00 0. -1.
         -5    1    5    5    0  502 -0.28432210596E+02  0.14491877332E+03  0.27024469383E+03  0.30800020455E+03  0.47000000000E+01 0.  1.
         13    1    6    6    0    0  0.11660625196E+01 -0.13196600488E+02 -0.28701996194E+01  0.13555368386E+02  0.00000000000E+00 0. -1.
        -14    1    6    6    0    0 -0.32894611781E+02  0.70559700186E+02  0.34112230454E+02  0.84996300161E+02  0.00000000000E+00 0.  1.
</event>
<event>
12    1  0.1598254E-001  0.2131851E+03  0.7818608E-02  0.1139137E+00
         21   -1    0    0  501  502  0.00000000000E+00  0.00000000000E+00  0.49747154672E+03  0.49747154672E+03  0.00000000000E+00 0. -1.
         21   -1    0    0  502  503 -0.00000000000E+00 -0.00000000000E+00 -0.10408346685E+03  0.10408346685E+03  0.00000000000E+00 0. -1.
         -6    2    1    2    0  503 -0.16844716305E+02 -0.12505820646E+03  0.91044011069E+02  0.23181219373E+03  0.17182718568E+03 0.  0.
        -24    2    3    3    0    0 -0.23733097306E+02 -0.20707912563E+02  0.93723046413E+02  0.12709495131E+03  0.79856368999E+02 0.  0.
          6    2    1    2  501    0  0.16844716305E+02  0.12505820646E+03  0.30234406880E+03  0.36974281985E+03  0.17138995718E+03 0.  0.
         24    2    5    5    0    0  0.51464568613E+02  0.16380253249E+02  0.17231315834E+03  0.19671230415E+03  0.78019174243E+02 0.  0.
          5    1    5    5  501    0 -0.34619852308E+02  0.10867795321E+03  0.13003091046E+03  0.17303051570E+03  0.47000000000E+01 0. -1.
        -13    1    6    6    0    0  0.73783011397E+01  0.25173197576E+02  0.96490407971E+01  0.27950549051E+02  0.00000000000E+00 0.  1.
         14    1    6    6    0    0  0.44086267473E+02 -0.87929443279E+01  0.16266411754E+03  0.16876175510E+03  0.00000000000E+00 0. -1.
         -5    1    3    3    0  503  0.68883810009E+01 -0.10435029389E+03 -0.26790353443E+01  0.10471724241E+03  0.47000000000E+01 0.  1.
         11    1    4    4    0    0 -0.14518912142E+02  0.24214303573E+02  0.71471849519E+01  0.29124106167E+02  0.00000000000E+00 0. -1.
        -12    1    4    4    0    0 -0.92141851642E+01 -0.44922216135E+02  0.86575861461E+02  0.97970845146E+02  0.00000000000E+00 0.  1.
</event>
<event>
12    1  0.1598254E-001  0.2340793E+03  0.7818608E-02  0.1124455E+00
         21   -1    0    0  501  502  0.00000000000E+00  0.00000000000E+00  0.65081142513E+03  0.65081142513E+03  0.00000000000E+00 0. -1.
         21   -1    0    0  502  503 -0.00000000000E+00 -0.00000000000E+00 -0.12118151945E+03  0.12118151945E+03  0.00000000000E+00 0. -1.
         -6    2    1    2    0  503 -0.87311362404E+02 -0.12794449057E+03  0.46239220299E+02  0.23490850794E+03  0.17044317216E+03 0.  0.
        -24    2    3    3    0    0 -0.59268069883E+02 -0.88501733433E+02 -0.37124631065E+02  0.13840058567E+03  0.80194906035E+02 0.  0.
          6    2    1    2  501    0  0.87311362404E+02  0.12794449057E+03  0.48339068539E+03  0.53708443664E+03  0.17549948914E+03 0.  0.
         24    2    5    5    0    0  0.35411096973E+02  0.84141959014E+02  0.13050723574E+03  0.17769451140E+03  0.78799655763E+02 0.  0.
          5    1    5    5  501    0  0.51900265432E+02  0.43802531557E+02  0.35288344965E+03  0.35938992524E+03  0.47000000000E+01 0. -1.
        -11    1    6    6    0    0  0.39559224704E+02  0.89357042140E+01  0.23613086641E+02  0.46929275828E+02  0.00000000000E+00 0.  1.
         12    1    6    6    0    0 -0.41481277320E+01  0.75206254800E+02  0.10689414909E+03  0.13076523558E+03  0.00000000000E+00 0. -1.
         -5    1    3    3    0  503 -0.28043292521E+02 -0.39442757138E+02  0.83363851364E+02  0.96507922267E+02  0.47000000000E+01 0.  1.
         11    1    4    4    0    0 -0.22049904622E+02 -0.93235850010E+02 -0.26281183386E+02  0.99346980936E+02  0.00000000000E+00 0. -1.
        -12    1    4    4    0    0 -0.37218165261E+02  0.47341165774E+01 -0.10843447679E+02  0.39053604734E+02  0.00000000000E+00 0.  1.
</event>
<event>
12    1  0.1598254E-001  0.1915561E+03  0.7818608E-02  0.1157136E+00
         21   -1    0    0  501  502  0.00000000000E+00  0.00000000000E+00  0.13423540668E+03  0.13423540668E+03  0.00000000000E+00 0.  1.
         21   -1    0    0  502  503 -0.00000000000E+00 -0.00000000000E+00 -0.32451335365E+03  0.32451335365E+03  0.00000000000E+00 0. -1.
         -6    2    1    2    0  503  0.37032401611E+02  0.76094785208E+02 -0.18654590080E+03  0.26715635334E+03  0.17149731461E+03 0.  0.
        -24    2    3    3    0    0  0.17076760331E+02 -0.25760575715E+02 -0.66627792026E+02  0.10848945389E+03  0.79846577455E+02 0.  0.
          6    2    1    2  501    0 -0.37032401611E+02 -0.76094785208E+02 -0.37320461789E+01  0.19159240699E+03  0.17184850056E+03 0.  0.
         24    2    5    5    0    0  0.17906309002E+02 -0.10242211051E+03  0.49905500175E+00  0.13034387886E+03  0.78602500451E+02 0.  0.
          5    1    5    5  501    0 -0.54938710613E+02  0.26327325300E+02 -0.42311011807E+01  0.61248528133E+02  0.47000000000E+01 0. -1.
        -13    1    6    6    0    0  0.17682945186E+02  0.22374433369E+01  0.16714988265E+02  0.24435292833E+02  0.00000000000E+00 0.  1.
         14    1    6    6    0    0  0.22336381590E+00 -0.10465955384E+03 -0.16215933263E+02  0.10590858603E+03  0.00000000000E+00 0. -1.
         -5    1    3    3    0  503  0.19955641280E+02  0.10185536092E+03 -0.11991810877E+03  0.15866689945E+03  0.47000000000E+01 0.  1.
         13    1    4    4    0    0 -0.30616741104E+02 -0.20032559935E+02 -0.37083734536E+02  0.52095025296E+02  0.00000000000E+00 0. -1.
        -14    1    4    4    0    0  0.47693501435E+02 -0.57280157798E+01 -0.29544057490E+02  0.56394428598E+02  0.00000000000E+00 0.  1.
</event>
<event>
12    1  0.1598254E-001  0.2239484E+03  0.7818608E-02  0.1132668E+00
         21   -1    0    0  501  502  0.00000000000E+00  0.00000000000E+00  0.78681112951E+03  0.78681112951E+03  0.00000000000E+00 0.  1.
         21   -1    0    0  502  503 -0.00000000000E+00 -0.00000000000E+00 -0.72799899593E+02  0.72799899593E+02  0.00000000000E+00 0. -1.
         -6    2    1    2    0  503  0.10144068259E+03  0.81847704926E+02  0.19152522724E+03  0.29467744285E+03  0.18210882399E+03 0.  0.
        -24    2    3    3    0    0  0.54946374146E+02  0.82551850189E+02  0.34358134315E+02  0.13070853838E+03  0.77912313596E+02 0.  0.
          6    2    1    2  501    0 -0.10144068259E+03 -0.81847704926E+02  0.52248600268E+03  0.56493358625E+03  0.17078956346E+03 0.  0.
         24    2    5    5    0    0 -0.21561583353E+02 -0.64106351119E+02  0.42221436632E+03  0.43542714939E+03  0.82202829437E+02 0.  0.
          5    1    5    5  501    0 -0.79879099233E+02 -0.17741353807E+02  0.10027163636E+03  0.12950643686E+03  0.47000000000E+01 0. -1.
        -13    1    6    6    0    0  0.12332534426E+02 -0.66917134413E+02  0.21714021564E+03  0.22755190075E+03  0.00000000000E+00 0.  1.
         14    1    6    6    0    0 -0.33894117778E+02  0.28107832934E+01  0.20507415068E+03  0.20787524864E+03  0.00000000000E+00 0. -1.
         -5    1    3    3    0  503  0.46494308440E+02 -0.70414526296E+00  0.15716709292E+03  0.16396890448E+03  0.47000000000E+01 0.  1.
         11    1    4    4    0    0  0.52738944704E+02  0.61032649444E+02  0.57478509628E+02  0.99046250084E+02  0.00000000000E+00 0. -1.
        -12    1    4    4    0    0  0.22074294422E+01  0.21519200745E+02 -0.23120375313E+02  0.31662288295E+02  0.00000000000E+00 0.  1.
</event>
<event>
12    1  0.1598254E-001  0.2040811E+03  0.7818608E-02  0.1146394E+00
         21   -1    0    0  501  502  0.00000000000E+00  0.00000000000E+00  0.10652423620E+03  0.10652423620E+03  0.00000000000E+00 0. -1.
         21   -1    0    0  502  503 -0.00000000000E+00 -0.00000000000E+00 -0.42066264241E+03  0.42066264241E+03  0.00000000000E+00 0.  1.
         -6    2    1    2    0  503  0.98077101930E+02  0.49277760222E+02 -0.86563134526E+02  0.22168055028E+03  0.17205137180E+03 0.  0.
        -24    2    3    3    0    0  0.12014342136E+03  0.79258365582E+02 -0.80986244507E+02  0.18374704460E+03  0.80547342534E+02 0.  0.
          6    2    1    2  501    0 -0.98077101930E+02 -0.49277760222E+02 -0.22757527168E+03  0.30550632833E+03  0.17174456846E+03 0.  0.
         24    2    5    5    0    0 -0.41172564891E+02 -0.19407749255E+02 -0.22356479913E+03  0.24094226882E+03  0.77460419957E+02 0.  0.
          5    1    5    5  501    0 -0.56904537039E+02 -0.29870010968E+02 -0.40104725428E+01  0.64564059513E+02  0.47000000000E+01 0. -1.
        -11    1    6    6    0    0  0.14622575197E+02  0.17570194942E+02 -0.53510939103E+02  0.58188934167E+02  0.00000000000E+00 0.  1.
         12    1    6    6    0    0 -0.55795140088E+02 -0.36977944197E+02 -0.17005386003E+03  0.18275333465E+03  0.00000000000E+00 0. -1.
         -5    1    3    3    0  503 -0.22066319427E+02 -0.29980605359E+02 -0.55768900184E+01  0.37933505678E+02  0.47000000000E+01 0.  1.
         11    1    4    4    0    0  0.11610044218E+03  0.36208597454E+02 -0.57175404636E+02  0.13438527486E+03  0.00000000000E+00 0. -1.
        -12    1    4    4    0    0  0.40429791789E+01  0.43049768127E+02 -0.23810839871E+02  0.49361769740E+02  0.00000000000E+00 0.  1.
</event>
<event>
12    1  0.1598254E-001  0.2544853E+03  0.7818608E-02  0.1110643E+00
         21   -1    0    0  501  502  0.00000000000E+00  0.00000000000E+00  0.13417377640E+03  0.13417377640E+03  0.00000000000E+00 0. -1.
         21   -1    0    0  502  503 -0.00000000000E+00 -0.00000000000E+00 -0.69100671059E+03  0.69100671059E+03  0.00000000000E+00 0. -1.
         -6    2    1    2    0  503 -0.79044967255E+02 -0.16842263069E+03 -0.50554645952E+03  0.56557870870E+03  0.17230137441E+03 0.  0.
        -24    2    3    3    0    0 -0.91512339784E+02 -0.16608546113E+03 -0.51089877737E+03  0.55103102690E+03  0.81601122265E+02 0.  0.
          6    2    1    2  501    0  0.79044967255E+02  0.16842263069E+03 -0.51286474678E+02  0.25960177830E+03  0.17363320948E+03 0.  0.
         24    2    5    5    0    0 -0.17347600078E+02  0.12292891303E+03 -0.24132742397E+02  0.14950808838E+03  0.79735953919E+02 0.  0.
          5    1    5    5  501    0  0.96392567334E+02  0.45493717659E+02 -0.27153732281E+02  0.11009368992E+03  0.47000000000E+01 0. -1.
        -13    1    6    6    0    0  0.50621555794E+01  0.36518781894E+02 -0.44657949692E+02  0.57910096882E+02  0.00000000000E+00 0.  1.
         14    1    6    6    0    0 -0.22409755658E+02  0.86410131135E+02  0.20525207295E+02  0.91597991495E+02  0.00000000000E+00 0. -1.
         -5    1    3    3    0  503  0.12467372529E+02 -0.23371695583E+01  0.53523178527E+01  0.14547681799E+02  0.47000000000E+01 0.  1.
         11    1    4    4    0    0 -0.58138965168E+02 -0.33829255955E+02 -0.21346079173E+03  0.22380810404E+03  0.00000000000E+00 0. -1.
        -12    1    4    4    0    0 -0.33373374616E+02 -0.13225620517E+03 -0.29743798564E+03  0.32722292286E+03  0.00000000000E+00 0.  1.
</event>
<event>
12    1  0.1598254E-001  0.1891187E+03  0.7818608E-02  0.1160074E+00
         21   -1    0    0  501  502  0.00000000000E+00  0.00000000000E+00  0.17284825399E+03  0.17284825399E+03  0.00000000000E+00 0.  1.
         21   -1    0    0  502  503 -0.00000000000E+00 -0.00000000000E+00 -0.26314337738E+03  0.26314337738E+03  0.00000000000E+00 0.  1.
         -6    2    1    2    0  503 -0.72481785204E+02  0.25777322570E+02 -0.14965528230E+03  0.24116919845E+03  0.17276515625E+03 0.  0.
        -24    2    3    3    0    0 -0.56768722482E+02 -0.51168644938E+02 -0.79709168731E+02  0.13589749732E+03  0.79206439887E+02 0.  0.
          6    2    1    2  501    0  0.72481785204E+02 -0.25777322570E+02  0.59360158916E+02  0.19482243293E+03  0.16886110375E+03 0.  0.
         24    2    5    5    0    0  0.11299999303E+03 -0.15488228087E+02  0.28144894617E+02  0.14243852933E+03  0.80546358753E+02 0.  0.
          5    1    5    5  501    0 -0.40518207831E+02 -0.10289094483E+02  0.31215264300E+02  0.52383903600E+02  0.47000000000E+01 0. -1.
        -11    1    6    6    0    0  0.79976102875E+02 -0.30034442700E+02  0.51218147174E+02  0.99606944433E+02  0.00000000000E+00 0.  1.
         12    1    6    6    0    0  0.33023890160E+02  0.14546214613E+02 -0.23073252557E+02  0.42831584893E+02  0.00000000000E+00 0. -1.
         -5    1    3    3    0  503 -0.15713062722E+02  0.76945967508E+02 -0.69946113573E+02  0.10527170114E+03  0.47000000000E+01 0.  1.
         13    1    4    4    0    0 -0.25496104129E+02 -0.49244854143E+02 -0.59652466971E+01  0.55773570385E+02  0.00000000000E+00 0. -1.
        -14    1    4    4    0    0 -0.31272618353E+02 -0.19237907951E+01 -0.73743922034E+02  0.80123926930E+02  0.00000000000E+00 0.  1.
</event>
<event>
12    1  0.1598254E-001  0.2345178E+03  0.7818608E-02  0.1123573E+00
         21   -1    0    0  503  502  0.00000000000E+00  0.00000000000E+00  0.32872514233E+03  0.32872514233E+03  0.00000000000E+00 0.  1.
         21   -1    0    0  501  503 -0.00000000000E+00 -0.00000000000E+00 -0.22651898211E+03  0.22651898211E+03  0.00000000000E+00 0.  1.
          6    2    1    2  501    0  0.98698126903E+01  0.15880187324E+03 -0.91231739991E+02  0.25124275695E+03  0.17170976789E+03 0.  0.
         24    2    3    3    0    0 -0.24198864616E+02  0.15249304304E+03 -0.11582546903E+03  0.20849445148E+03  0.78833265829E+02 0.  0.
         -6    2    1    2    0  502 -0.98698126903E+01 -0.15880187324E+03  0.19343790022E+03  0.30400136750E+03  0.17228802063E+03 0.  0.
        -24    2    5    5    0    0  0.32283378946E+02 -0.56593795410E+02  0.30930256711E+02  0.10739463583E+03  0.79572940059E+02 0.  0.
          5    1    3    3  501    0  0.34068677307E+02  0.63088302052E+01  0.24593729036E+02  0.42748305462E+02  0.47000000000E+01 0. -1.
        -11    1    4    4    0    0 -0.28806072627E+02  0.14447327025E+02 -0.78296837775E+01  0.33163519511E+02  0.00000000000E+00 0.  1.
         12    1    4    4    0    0  0.46072080101E+01  0.13804571601E+03 -0.10799578525E+03  0.17533093197E+03  0.00000000000E+00 0. -1.
         -5    1    5    5    0  502 -0.42153191636E+02 -0.10220807783E+03  0.16250764351E+03  0.19660673167E+03  0.47000000000E+01 0.  1.
         13    1    6    6    0    0 -0.17057063964E+02 -0.19036424585E+02 -0.15533071605E+02  0.29909951614E+02  0.00000000000E+00 0. -1.
        -14    1    6    6    0    0  0.49340442909E+02 -0.37557370825E+02  0.46463328316E+02  0.77484684216E+02  0.00000000000E+00 0.  1.
</event>
<event>
12    1  0.1598254E-001  0.1912663E+03  0.7818608E-02  0.1157691E+00
         21   -1    0    0  503  502  0.00000000000E+00  0.00000000000E+00  0.14691335985E+03  0.14691335985E+03  0.00000000000E+00 0.  1.
         21   -1    0    0  501  503 -0.00000000000E+00 -0.00000000000E+00 -0.27373275377E+03  0.27373275377E+03  0.00000000000E+00 0.  1.
          6    2    1    2  501    0  0.77175036951E+02  0.29226262261E+02  0.22077084793E+01  0.19127908755E+03  0.17254754308E+03 0.  0.
         24    2    3    3    0    0 -0.76606195830E+01  0.60214553142E+02 -0.39389824510E+01  0.10063012395E+03  0.80165009586E+02 0.  0.
         -6    2    1    2    0  502 -0.77175036951E+02 -0.29226262261E+02 -0.12902710240E+03  0.22936702608E+03  0.17073686996E+03 0.  0.
        -24    2    5    5    0    0 -0.44164416134E+02  0.54279965346E+02 -0.10410291441E+03  0.13605949003E+03  0.52706334990E+02 0.  0.
          5    1    3    3  501    0  0.84835656534E+02 -0.30988290881E+02  0.61466909303E+01  0.90648963594E+02  0.47000000000E+01 0. -1.
        -13    1    4    4    0    0 -0.25489558899E+02  0.26609673977E+02 -0.35525516695E+02  0.51184516199E+02  0.00000000000E+00 0.  1.
         14    1    4    4    0    0  0.17828939316E+02  0.33604879164E+02  0.31586534244E+02  0.49445607756E+02  0.00000000000E+00 0. -1.
         -5    1    5    5    0  502 -0.33010620817E+02 -0.83506227607E+02 -0.24924187982E+02  0.93307536043E+02  0.47000000000E+01 0.  1.
         13    1    6    6    0    0  0.56299560303E+01  0.19954676893E+02 -0.74251872186E+01  0.22023145553E+02  0.00000000000E+00 0. -1.
        -14    1    6    6    0    0 -0.49794372165E+02  0.34325288453E+02 -0.96677727196E+02  0.11403634448E+03  0.00000000000E+00 0.  1.
</event>
<event>
12    1  0.1598254E-001  0.1930299E+03  0.7818608E-02  0.1155791E+00
         21   -1    0    0  503  502  0.00000000000E+00  0.00000000000E+00  0.27003965430E+03  0.27003965430E+03  0.00000000000E+00 0.  1.
         21   -1    0    0  501  503 -0.00000000000E+00 -0.00000000000E+00 -0.14299623247E+03  0.14299623247E+03  0.00000000000E+00 0.  1.
          6    2    1    2  501    0  0.80855500310E+02  0.30912602061E+02  0.10259097345E+03  0.21846335457E+03  0.17236046112E+03 0.  0.
         24    2    3    3    0    0  0.91550548424E+02  0.77285683840E+02  0.67078345321E+02  0.15889756301E+03  0.79964687674E+02 0.  0.
         -6    2    1    2    0  502 -0.80855500310E+02 -0.30912602061E+02  0.24452448378E+02  0.19457253219E+03  0.17253216267E+03 0.  0.
        -24    2    5    5    0    0 -0.66564433427E+02  0.43329844863E+02 -0.45076062529E+01  0.11347413343E+03  0.80918237685E+02 0.  0.
          5    1    3    3  501    0 -0.10695048113E+02 -0.46373081779E+02  0.35512628129E+02  0.59565791562E+02  0.47000000000E+01 0. -1.
        -13    1    4    4    0    0  0.25127914929E+02  0.11259902013E+02  0.58737433957E+02  0.64871285249E+02  0.00000000000E+00 0.  1.
         14    1    4    4    0    0  0.66422633495E+02  0.66025781827E+02  0.83409113636E+01  0.94026277756E+02  0.00000000000E+00 0. -1.
         -5    1    5    5    0  502 -0.14291066883E+02 -0.74242446924E+02  0.28960054631E+02  0.81098398765E+02  0.47000000000E+01 0.  1.
         11    1    6    6    0    0 -0.21151128126E+02  0.12134292549E+02  0.37125362792E+02  0.44417382173E+02  0.00000000000E+00 0. -1.
        -12    1    6    6    0    0 -0.45413305301E+02  0.31195552314E+02 -0.41632969045E+02  0.69056751256E+02  0.00000000000E+00 0.  1.
</event>
<event>
12    1  0.1598254E-001  0.2259738E+03  0.7818608E-02  0.1129606E+00
         21   -1    0    0  503  502  0.00000000000E+00  0.00000000000E+00  0.19780816711E+03  0.19780816711E+03  0.00000000000E+00 0. -1.
         21   -1    0    0  501  503 -0.00000000000E+00 -0.00000000000E+00 -0.40001384877E+03  0.40001384877E+03  0.00000000000E+00 0.  1.
          6    2    1    2  501    0  0.48128210893E+02 -0.13787296944E+03 -0.27958558127E+03  0.35948890063E+03  0.17244967974E+03 0.  0.
         24    2    3    3    0    0 -0.22606216351E+01 -0.25739869944E+02 -0.82205801143E+02  0.12690830375E+03  0.93167980035E+02 0.  0.
         -6    2    1    2    0  502 -0.48128210893E+02  0.13787296944E+03  0.77379899599E+02  0.23833311525E+03  0.17172578308E+03 0.  0.
        -24    2    5    5    0    0  0.53375770961E+01  0.15022378826E+03  0.68377709355E+02  0.18252753632E+03  0.77750331757E+02 0.  0.
          5    1    3    3  501    0  0.50388832528E+02 -0.11213309950E+03 -0.19737978012E+03  0.23258059689E+03  0.47000000000E+01 0. -1.
        -13    1    4    4    0    0  0.30255825009E+02 -0.55702170349E+01 -0.83122926884E+02  0.88633307727E+02  0.00000000000E+00 0.  1.
         14    1    4    4    0    0 -0.32516446644E+02 -0.20169652909E+02  0.91712574109E+00  0.38274996021E+02  0.00000000000E+00 0. -1.
         -5    1    5    5    0  502 -0.53465787989E+02 -0.12350818820E+02  0.90021902444E+01  0.55805578932E+02  0.47000000000E+01 0.  1.
         13    1    6    6    0    0 -0.16958575819E+02  0.12281675783E+03  0.24819254159E+02  0.12644186283E+03  0.00000000000E+00 0. -1.
        -14    1    6    6    0    0  0.22296152915E+02  0.27407030431E+02  0.43558455196E+02  0.56085673491E+02  0.00000000000E+00 0.  1.
</event>
<event>
12    1  0.1598254E-001  0.2522416E+03  0.7818608E-02  0.1112218E+00
         21   -1    0    0  503  502  0.00000000000E+00  0.00000000000E+00  0.20250689425E+03  0.20250689425E+03  0.00000000000E+00 0.  1.
         21   -1    0    0  501  503 -0.00000000000E+00 -0.00000000000E+00 -0.31770272725E+03  0.31770272725E+03  0.00000000000E+00 0. -1.
          6    2    1    2  501    0  0.18138180298E+03 -0.22679692004E+02 -0.93742051904E+02  0.26909734421E+03  0.17381622906E+03 0.  0.
         24    2    3    3    0    0  0.17075957559E+03 -0.25337640198E+02 -0.12991202639E+03  0.23101515077E+03  0.81792644033E+02 0.  0.
         -6    2    1    2    0  502 -0.18138180298E+03  0.22679692004E+02 -0.21453781097E+02  0.25111227729E+03  0.17083144969E+03 0.  0.
        -24    2    5    5    0    0 -0.31563328558E+02  0.41368192108E+02  0.10388932567E+02  0.96739728804E+02  0.80889271113E+02 0.  0.
          5    1    3    3  501    0  0.10622227388E+02  0.26579481941E+01  0.36169974484E+02  0.38082193443E+02  0.47000000000E+01 0. -1.
        -13    1    4    4    0    0  0.34947013916E+01 -0.15432729210E+02 -0.35077734039E+02  0.38481547448E+02  0.00000000000E+00 0.  1.
         14    1    4    4    0    0  0.16726487420E+03 -0.99049109880E+01 -0.94834292349E+02  0.19253360332E+03  0.00000000000E+00 0. -1.
         -5    1    5    5    0  502 -0.14981847442E+03 -0.18688500104E+02 -0.31842713665E+02  0.15437254849E+03  0.47000000000E+01 0.  1.
         13    1    6    6    0    0 -0.23205494615E+02  0.54407890079E+02 -0.20158117126E+02  0.62490504633E+02  0.00000000000E+00 0. -1.
        -14    1    6    6    0    0 -0.83578339424E+01 -0.13039697971E+02  0.30547049693E+02  0.34249224171E+02  0.00000000000E+00 0.  1.
</event>
<event>
12    1  0.1598254E-001  0.1794620E+03  0.7818608E-02  0.1168339E+00
         21   -1    0    0  503  502  0.00000000000E+00  0.00000000000E+00  0.22340134911E+03  0.22340134911E+03  0.00000000000E+00 0. -1.
         21   -1    0    0  501  503 -0.00000000000E+00 -0.00000000000E+00 -0.17144089607E+03  0.17144089607E+03  0.00000000000E+00 0. -1.
          6    2    1    2  501    0  0.74824841654E+01 -0.54724634266E+02 -0.52838983372E+02  0.18702134376E+03  0.17068758506E+03 0.  0.
         24    2    3    3    0    0  0.71197936449E+02 -0.23483662819E+02 -0.18850655139E+02  0.10819905241E+03  0.75703759289E+02 0.  0.
         -6    2    1    2    0  502 -0.74824841654E+01  0.54724634266E+02  0.10479943640E+03  0.20782090142E+03  0.17075078926E+03 0.  0.
        -24    2    5    5    0    0  0.60547544289E+02  0.49807233972E+02  0.58600530117E+02  0.12530608736E+03  0.78235718985E+02 0.  0.
          5    1    3    3  501    0 -0.63715452283E+02 -0.31240971447E+02 -0.33988328233E+02  0.78822291344E+02  0.47000000000E+01 0. -1.
        -11    1    4    4    0    0  0.64285150437E+02  0.12922381673E+02 -0.25858552213E+02  0.70485695267E+02  0.00000000000E+00 0.  1.
         12    1    4    4    0    0  0.69127860118E+01 -0.36406044492E+02  0.70078970737E+01  0.37713357148E+02  0.00000000000E+00 0. -1.
         -5    1    5    5    0  502 -0.68030028454E+02  0.49174002935E+01  0.46198906288E+02  0.82514814060E+02  0.47000000000E+01 0.  1.
         13    1    6    6    0    0  0.38622500307E+02  0.52705383822E+02  0.73724724561E+02  0.98513400232E+02  0.00000000000E+00 0. -1.
        -14    1    6    6    0    0  0.21925043982E+02 -0.28981498495E+01 -0.15124194444E+02  0.26792687131E+02  0.00000000000E+00 0.  1.
</event>
<event>
12    1  0.1598254E-001  0.2241679E+03  0.7818608E-02  0.1131564E+00
         21   -1    0    0  503  502  0.00000000000E+00  0.00000000000E+00  0.87568256601E+03  0.87568256601E+03  0.00000000000E+00 0. -1.
         21   -1    0    0  501  503 -0.00000000000E+00 -0.00000000000E+00 -0.37721651646E+03  0.37721651646E+03  0.00000000000E+00 0. -1.
          6    2    1    2  501    0  0.10356028387E+03  0.99397383684E+02 -0.32819378806E+03  0.39744485296E+03  0.17218210228E+03 0.  0.
         24    2    3    3    0    0  0.24485165807E+02  0.10508844757E+03 -0.14698999012E+03  0.19960105373E+03  0.81187550146E+02 0.  0.
         -6    2    1    2    0  502 -0.10356028387E+03 -0.99397383684E+02  0.82665983761E+03  0.85545422951E+03  0.16682589546E+03 0.  0.
        -24    2    5    5    0    0 -0.12407178222E+03 -0.10991481212E+03  0.59520546166E+03  0.62280738124E+03  0.78386347446E+02 0.  0.
          5    1    3    3  501    0  0.79075118063E+02 -0.56910638842E+01 -0.18120379794E+03  0.19784379923E+03  0.47000000000E+01 0. -1.
        -11    1    4    4    0    0 -0.24740032345E+02  0.99842545074E+01 -0.41104127833E+02  0.49003100549E+02  0.00000000000E+00 0.  1.
         12    1    4    4    0    0  0.49225198152E+02  0.95104193061E+02 -0.10588586229E+03  0.15059795319E+03  0.00000000000E+00 0. -1.
         -5    1    5    5    0  502  0.20511498353E+02  0.10517428440E+02  0.23145437595E+03  0.23264684827E+03  0.47000000000E+01 0.  1.
         11    1    6    6    0    0 -0.71756780018E+02 -0.24507996600E+02  0.34635227366E+03  0.35455546089E+03  0.00000000000E+00 0. -1.
        -12    1    6    6    0    0 -0.52315002206E+02 -0.85406815525E+02  0.24885318801E+03  0.26825192036E+03  0.00000000000E+00 0.  1.
</event>
<event>
12    1  0.1598254E-001  0.1913107E+03  0.7818608E-02  0.1157447E+00
         21   -1    0    0  503  502  0.00000000000E+00  0.00000000000E+00  0.50133618591E+02  0.50133618591E+02  0.00000000000E+00 0.  1.
         21   -1    0    0  501  503 -0.00000000000E+00 -0.00000000000E+00 -0.12275619274E+04  0.12275619274E+04  0.00000000000E+00 0. -1.
          6    2    1    2  501    0  0.27198386065E+02 -0.78348397822E+02 -0.99588547778E+03  0.10139578051E+04  0.17159347885E+03 0.  0.
         24    2    3    3    0    0  0.37174081635E+02 -0.11606997271E+03 -0.67275259295E+03  0.68844377624E+03  0.80651291439E+02 0.  0.
         -6    2    1    2    0  502 -0.27198386065E+02  0.78348397822E+02 -0.18154283107E+03  0.26373774095E+03  0.17239945720E+03 0.  0.
        -24    2    5    5    0    0  0.51702400285E+02  0.52791949196E+02 -0.11031963234E+03  0.15431516471E+03  0.78629642541E+02 0.  0.
          5    1    3    3  501    0 -0.99756955696E+01  0.37721574884E+02 -0.32313288483E+03  0.32551402884E+03  0.47000000000E+01 0. -1.
        -11    1    4    4    0    0  0.60248619123E+02 -0.67218759553E+02 -0.36581151272E+03  0.37678418302E+03  0.00000000000E+00 0.  1.
         12    1    4    4    0    0 -0.23074537488E+02 -0.48851213153E+02 -0.30694108023E+03  0.31165959321E+03  0.00000000000E+00 0. -1.
         -5    1    5    5    0  502 -0.78900786350E+02  0.25556448626E+02 -0.71223198732E+02  0.10942257624E+03  0.47000000000E+01 0.  1.
         13    1    6    6    0    0  0.15519368988E+02 -0.76334187074E+01  0.60239861871E+01  0.18314155851E+02  0.00000000000E+00 0. -1.
        -14    1    6    6    0    0  0.36183031297E+02  0.60425367903E+02 -0.11634361852E+03  0.13600100886E+03  0.00000000000E+00 0.  1.
</event>
<event>
12    1  0.1598254E-001  0.1787556E+03  0.7818608E-02  0.1169438E+00
         21   -1    0    0  503  502  0.00000000000E+00  0.00000000000E+00  0.22189238498E+02  0.22189238498E+02  0.00000000000E+00 0. -1.
         21   -1    0    0  501  503 -0.00000000000E+00 -0.00000000000E+00 -0.16478944130E+04  0.16478944130E+04  0.00000000000E+00 0. -1.
          6    2    1    2  501    0  0.13980060418E+02 -0.38151122346E+02 -0.11226056022E+04  0.11367483952E+04  0.17407649367E+03 0.  0.
         24    2    3    3    0    0  0.37342420790E+02 -0.74286832208E+02 -0.51782158027E+03  0.53041730363E+03  0.79311645839E+02 0.  0.
         -6    2    1    2    0  502 -0.13980060418E+02  0.38151122346E+02 -0.50309957230E+03  0.53333525631E+03  0.17229731788E+03 0.  0.
        -24    2    5    5    0    0 -0.31340052766E+02  0.84528412717E+02 -0.28205971814E+03  0.30676754122E+03  0.80133565260E+02 0.  0.
          5    1    3    3  501    0 -0.23362360372E+02  0.36135709862E+02 -0.60478402197E+03  0.60633109160E+03  0.47000000000E+01 0. -1.
        -11    1    4    4    0    0 -0.51428259279E+01  0.80894204448E+01 -0.87566723523E+01  0.12983323625E+02  0.00000000000E+00 0.  1.
         12    1    4    4    0    0  0.42485246718E+02 -0.82376252653E+02 -0.50906490792E+03  0.51743398000E+03  0.00000000000E+00 0. -1.
         -5    1    5    5    0  502  0.17359992349E+02 -0.46377290370E+02 -0.22103985416E+03  0.22656771509E+03  0.47000000000E+01 0.  1.
         13    1    6    6    0    0 -0.18563355553E+01  0.65181856611E+02 -0.25240363773E+03  0.26069084516E+03  0.00000000000E+00 0. -1.
        -14    1    6    6    0    0 -0.29483717211E+02  0.19346556106E+02 -0.29656080416E+02  0.46076696055E+02  0.00000000000E+00 0.  1.
</event>
<event>
12    1  0.1598254E-001  0.2031405E+03  0.7818608E-02  0.1147446E+00
         21   -1    0    0  501  502  0.00000000000E+00  0.00000000000E+00  0.28748357245E+03  0.28748357245E+03  0.00000000000E+00 0. -1.
         21   -1    0    0  502  503 -0.00000000000E+00 -0.00000000000E+00 -0.49135941101E+03  0.49135941101E+03  0.00000000000E+00 0.  1.
         -6    2    1    2    0  503  0.89898811590E+02  0.54384836912E+02 -0.42998783373E+03  0.47488132192E+03  0.17199774981E+03 0.  0.
        -24    2    3    3    0    0 -0.20208123666E+02  0.39763976348E+02 -0.19270862024E+03  0.21284922100E+03  0.78604303258E+02 0.  0.
          6    2    1    2  501    0 -0.89898811590E+02 -0.54384836912E+02  0.22611199517E+03  0.30396166154E+03  0.17385784570E+03 0.  0.
         24    2    5    5    0    0  0.21428127240E+02 -0.32800753625E+02  0.89624254281E+02  0.12644953977E+03  0.80136914575E+02 0.  0.
          5    1    5    5  501    0 -0.11132693883E+03 -0.21584083287E+02  0.13648774089E+03  0.17751212177E+03  0.47000000000E+01 0. -1.
        -11    1    6    6    0    0 -0.10295655406E+02 -0.12525737697E+01 -0.11731273100E+02  0.15658615196E+02  0.00000000000E+00 0.  1.
         12    1    6    6    0    0  0.31723782646E+02 -0.31548179855E+02  0.10135552738E+03  0.11079092458E+03  0.00000000000E+00 0. -1.
         -5    1    3    3    0  503  0.11010693526E+03  0.14620860563E+02 -0.23727921349E+03  0.26203210091E+03  0.47000000000E+01 0.  1.
         11    1    4    4    0    0 -0.27669914447E+02 -0.42687728790E+01 -0.19864488375E+02  0.34328479224E+02  0.00000000000E+00 0. -1.
        -12    1    4    4    0    0  0.74617907814E+01  0.44032749228E+02 -0.17284413186E+03  0.17852074178E+03  0.00000000000E+00 0.  1.
</event>
<event>
12    1  0.1598254E-001  0.2012697E+03  0.7818608E-02  0.1148757E+00
         21   -1    0    0  503  502  0.00000000000E+00  0.00000000000E+00  0.33163979242E+03  0.33163979242E+03  0.00000000000E+00 0.  1.
         21   -1    0    0  501  503 -0.00000000000E+00 -0.00000000000E+00 -0.13447351176E+03  0.13447351176E+03  0.00000000000E+00 0. -1.
          6    2    1    2  501    0 -0.79517686410E+02  0.66464423850E+02  0.27420607035E+02  0.20312897972E+03  0.17253669355E+03 0.  0.
         24    2    3    3    0    0 -0.54219772191E+02 -0.22313583365E+02  0.45505630784E+02  0.10894470761E+03  0.79752787939E+02 0.  0.
         -6    2    1    2    0  502  0.79517686410E+02 -0.66464423850E+02  0.16974567362E+03  0.26298432446E+03  0.17206562442E+03 0.  0.
        -24    2    5    5    0    0  0.11719875819E+03 -0.77056263121E+02  0.12464632598E+03  0.20308364511E+03  0.77672670364E+02 0.  0.
          5    1    3    3  501    0 -0.25297914219E+02  0.88778007214E+02 -0.18085023749E+02  0.94184272110E+02  0.47000000000E+01 0. -1.
        -13    1    4    4    0    0 -0.67793258567E+01  0.25009311579E+02 -0.31958462327E+01  0.26108204799E+02  0.00000000000E+00 0.  1.
         14    1    4    4    0    0 -0.47440446334E+02 -0.47322894943E+02  0.48701477017E+02  0.82836502810E+02  0.00000000000E+00 0. -1.
         -5    1    5    5    0  502 -0.37681071777E+02  0.10591839272E+02  0.45099347640E+02  0.59900679353E+02  0.47000000000E+01 0.  1.
         11    1    6    6    0    0  0.50033738106E+02 -0.53690648329E+02  0.19132486501E+02  0.75842683935E+02  0.00000000000E+00 0. -1.
        -12    1    6    6    0    0  0.67165020081E+02 -0.23365614793E+02  0.10551383948E+03  0.12724096117E+03  0.00000000000E+00 0.  1.
</event>
<event>
12    1  0.1598254E-001  0.2203926E+03  0.7818608E-02  0.1133591E+00
         21   -1    0    0  501  502  0.00000000000E+00  0.00000000000E+00  0.32969536683E+03  0.32969536683E+03  0.00000000000E+00 0. -1.
         21   -1    0    0  502  503 -0.00000000000E+00 -0.00000000000E+00 -0.22478129631E+03  0.22478129631E+03  0.00000000000E+00 0.  1.
         -6    2    1    2    0  503 -0.87401057833E+02  0.10663807840E+03 -0.11028592717E+03  0.24644651920E+03  0.17193683847E+03 0.  0.
        -24    2    3    3    0    0 -0.86236328325E+02  0.81380119229E+02 -0.10794394884E+02  0.14368477490E+03  0.80432378107E+02 0.  0.
          6    2    1    2  501    0  0.87401057833E+02 -0.10663807840E+03  0.21519999769E+03  0.30803014394E+03  0.17193285286E+03 0.  0.
         24    2    5    5    0    0  0.29961603960E+02 -0.19269351790E+02  0.16992463815E+03  0.19399272275E+03  0.86543562427E+02 0.  0.
          5    1    5    5  501    0  0.57439453874E+02 -0.87368726607E+02  0.45275359542E+02  0.11403742119E+03  0.47000000000E+01 0. -1.
        -13    1    6    6    0    0  0.71196885150E+01 -0.46925281831E+02  0.13814316894E+03  0.14606918623E+03  0.00000000000E+00 0.  1.
         14    1    6    6    0    0  0.22841915445E+02  0.27655930040E+02  0.31781469212E+02  0.47923536522E+02  0.00000000000E+00 0. -1.
         -5    1    3    3    0  503 -0.11647295080E+01  0.25257959168E+02 -0.99491532286E+02  0.10276174431E+03  0.47000000000E+01 0.  1.
         13    1    4    4    0    0 -0.39377184543E+02 -0.96473964550E+01 -0.76414977020E+01  0.41255634864E+02  0.00000000000E+00 0. -1.
        -14    1    4    4    0    0 -0.46859143782E+02  0.91027515684E+02 -0.31528971818E+01  0.10242914003E+03  0.00000000000E+00 0.  1.
</event>
<event>
12    1  0.1598254E-001  0.2231578E+03  0.7818608E-02  0.1131740E+00
         21   -1    0    0  503  502  0.00000000000E+00  0.00000000000E+00  0.32633607321E+03  0.32633607321E+03  0.00000000000E+00 0. -1.
         21   -1    0    0  501  503 -0.00000000000E+00 -0.00000000000E+00 -0.20105870717E+03  0.20105870717E+03  0.00000000000E+00 0.  1.
          6    2    1    2  501    0 -0.12434167617E+03 -0.70214872851E+02 -0.67645393462E+02  0.23318516305E+03  0.17148889237E+03 0.  0.
         24    2    3    3    0    0 -0.86628377526E+02 -0.60936097264E+00 -0.92675312463E+02  0.15002383175E+03  0.80084888951E+02 0.  0.
         -6    2    1    2    0  502  0.12434167617E+03  0.70214872851E+02  0.19292275950E+03  0.29420961733E+03  0.17014442982E+03 0.  0.
        -24    2    5    5    0    0  0.83005651457E+02 -0.10266660583E+02  0.15725437548E+03  0.19684295065E+03  0.83802542439E+02 0.  0.
          5    1    3    3  501    0 -0.37713298648E+02 -0.69605511879E+02  0.25029919001E+02  0.83161331302E+02  0.47000000000E+01 0. -1.
        -13    1    4    4    0    0 -0.64120942311E+02  0.14348019035E+02 -0.14470110995E+02  0.67281089507E+02  0.00000000000E+00 0.  1.
         14    1    4    4    0    0 -0.22507435215E+02 -0.14957380008E+02 -0.78205201468E+02  0.82742742240E+02  0.00000000000E+00 0. -1.
         -5    1    5    5    0  502  0.41336024717E+02  0.80481533434E+02  0.35668384018E+02  0.97366666687E+02  0.47000000000E+01 0.  1.
         11    1    6    6    0    0 -0.15969892253E+02  0.66568640748E+01  0.31282030020E+02  0.35747960782E+02  0.00000000000E+00 0. -1.
        -12    1    6    6    0    0  0.98975543710E+02 -0.16923524658E+02  0.12597234546E+03  0.16109498987E+03  0.00000000000E+00 0.  1.
</event>
<event>
12    1  0.1598254E-001  0.1771832E+03  0.7818608E-02  0.1170620E+00
         21   -1    0    0  501  502  0.00000000000E+00  0.00000000000E+00  0.24549197427E+03  0.24549197427E+03  0.00000000000E+00 0.  1.
         21   -1    0    0  502  503 -0.00000000000E+00 -0.00000000000E+00 -0.13765780643E+03  0.13765780643E+03  0.00000000000E+00 0.  1.
         -6    2    1    2    0  503  0.22337605042E+00  0.40239661458E+02  0.10540976841E+03  0.20595000036E+03  0.17229307335E+03 0.  0.
        -24    2    3    3    0    0  0.65710853234E+02  0.23553985755E+02  0.43655742320E+02  0.11428391514E+03  0.79260853801E+02 0.  0.
          6    2    1    2  501    0 -0.22337605042E+00 -0.40239661458E+02  0.24243994303E+01  0.17719978033E+03  0.17255319234E+03 0.  0.
         24    2    5    5    0    0  0.49921730487E+02 -0.57453491273E+01 -0.28059245144E+02  0.10896685661E+03  0.92527111652E+02 0.  0.
          5    1    5    5  501    0 -0.50145106538E+02 -0.34494312330E+02  0.30483644575E+02  0.68232923720E+02  0.47000000000E+01 0. -1.
        -13    1    6    6    0    0  0.45319746323E+02 -0.76483259245E+00 -0.60628805174E+02  0.75698853310E+02  0.00000000000E+00 0.  1.
         14    1    6    6    0    0  0.46019841647E+01 -0.49805165349E+01  0.32569560030E+02  0.33268003303E+02  0.00000000000E+00 0. -1.
         -5    1    3    3    0  503 -0.65487477184E+02  0.16685675703E+02  0.61754026090E+02  0.91666085222E+02  0.47000000000E+01 0.  1.
         13    1    4    4    0    0  0.55916103827E+02  0.51376368601E+02  0.28364577114E+02  0.81059799856E+02  0.00000000000E+00 0. -1.
        -14    1    4    4    0    0  0.97947494067E+01 -0.27822382847E+02  0.15291165206E+02  0.33224115287E+02  0.00000000000E+00 0.  1.
</event>
<event>
12    1  0.1598254E-001  0.1863491E+03  0.7818608E-02  0.1162075E+00
         21   -1    0    0  503  502  0.00000000000E+00  0.00000000000E+00  0.20644414908E+02  0.20644414908E+02  0.00000000000E+00 0.  1.
         21   -1    0    0  501  503 -0.00000000000E+00 -0.00000000000E+00 -0.16752895692E+04  0.16752895692E+04  0.00000000000E+00 0.  1.
          6    2    1    2  501    0 -0.63849960357E+02  0.25017608089E+02 -0.87148712625E+03  0.89118786450E+03  0.17327233030E+03 0.  0.
         24    2    3    3    0    0 -0.97073335280E+02  0.44816559730E+02 -0.77498262921E+03  0.78711577853E+03  0.86726102112E+02 0.  0.
         -6    2    1    2    0  502  0.63849960357E+02 -0.25017608089E+02 -0.78315802807E+03  0.80474611964E+03  0.17198000465E+03 0.  0.
        -24    2    5    5    0    0  0.38585330485E+01 -0.83202482919E+02 -0.38886397571E+03  0.40166505988E+03  0.56409992783E+02 0.  0.
          5    1    3    3  501    0  0.33223374923E+02 -0.19798951642E+02 -0.96504497045E+02  0.10407208597E+03  0.47000000000E+01 0. -1.
        -13    1    4    4    0    0 -0.24350043040E+02 -0.26125300873E+02 -0.17748558530E+03  0.18104305822E+03  0.00000000000E+00 0.  1.
         14    1    4    4    0    0 -0.72723292239E+02  0.70941860603E+02 -0.59749704391E+03  0.60607272031E+03  0.00000000000E+00 0. -1.
         -5    1    5    5    0  502  0.59991427308E+02  0.58184874831E+02 -0.39429405236E+03  0.40308105976E+03  0.47000000000E+01 0.  1.
         11    1    6    6    0    0 -0.42143461149E+01 -0.87936537023E+02 -0.37297876349E+03  0.38322806953E+03  0.00000000000E+00 0. -1.
        -12    1    6    6    0    0  0.80728791634E+01  0.47340541038E+01 -0.15885212215E+02  0.18436990356E+02  0.00000000000E+00 0.  1.
</event>
<event>
12    1  0.1598254E-001  0.1725516E+03  0.7818608E-02  0.1175387E+00
         21   -1    0    0  503  502  0.00000000000E+00  0.00000000000E+00  0.78939133108E+03  0.78939133108E+03  0.00000000000E+00 0. -1.
         21   -1    0    0  501  503 -0.00000000000E+00 -0.00000000000E+00 -0.17425877911E+03  0.17425877911E+03  0.00000000000E+00 0. -1.
          6    2    1    2  501    0  0.80720312956E+01 -0.47541917140E+01 -0.11903906967E+03  0.20962904922E+03  0.17229706365E+03 0.  0.
         24    2    3    3    0    0  0.30574560792E+02 -0.49114077437E+02 -0.23305842292E+02  0.10164245691E+03  0.80256030252E+02 0.  0.
         -6    2    1    2    0  502 -0.80720312956E+01  0.47541917140E+01  0.73417162165E+03  0.75402106097E+03  0.17161593843E+03 0.  0.
        -24    2    5    5    0    0  0.37999670182E+02  0.40441631284E+02  0.59303353983E+03  0.60125246747E+03  0.82074659916E+02 0.  0.
          5    1    3    3  501    0 -0.22502529496E+02  0.44359885723E+02 -0.95733227379E+02  0.10798659231E+03  0.47000000000E+01 0. -1.
        -13    1    4    4    0    0  0.24449920656E+02  0.12352781464E+02  0.12645213582E+02  0.30171033402E+02  0.00000000000E+00 0.  1.
         14    1    4    4    0    0  0.61246401354E+01 -0.61466858900E+02 -0.35951055874E+02  0.71471423509E+02  0.00000000000E+00 0. -1.
         -5    1    5    5    0  502 -0.46071701477E+02 -0.35687439570E+02  0.14113808182E+03  0.15276859350E+03  0.47000000000E+01 0.  1.
         13    1    6    6    0    0  0.38905456657E+02 -0.38080671744E+01  0.44579805446E+03  0.44750870527E+03  0.00000000000E+00 0. -1.
        -14    1    6    6    0    0 -0.90578647535E+00  0.44249698459E+02  0.14723548537E+03  0.15374376220E+03  0.00000000000E+00 0.  1.
</event>
<event>
12    1  0.1598254E-001  0.1846972E+03  0.7818608E-02  0.1163426E+00
         21   -1    0    0  503  502  0.00000000000E+00  0.00000000000E+00  0.26070493731E+03  0.26070493731E+03  0.00000000000E+00 0. -1.
         21   -1    0    0  501  503 -0.00000000000E+00 -0.00000000000E+00 -0.13233738154E+03  0.13233738154E+03  0.00000000000E+00 0. -1.
          6    2    1    2  501    0 -0.18513332930E+02 -0.63151153749E+02  0.41402046484E+02  0.18889519174E+03  0.17215241007E+03 0.  0.
         24    2    3    3    0    0 -0.39281554611E+02 -0.13358208957E+02 -0.35926889557E+02  0.94489096957E+02  0.76915315583E+02 0.  0.
         -6    2    1    2    0  502  0.18513332930E+02  0.63151153749E+02  0.86965509283E+02  0.20414712711E+03  0.17257531106E+03 0.  0.
        -24    2    5    5    0    0 -0.19677212750E+02  0.74944706032E+02  0.11109751041E+03  0.15722113076E+03  0.79824341367E+02 0.  0.
          5    1    3    3  501    0  0.20768221682E+02 -0.49792944792E+02  0.77328936041E+02  0.94406094782E+02  0.47000000000E+01 0. -1.
        -13    1    4    4    0    0 -0.29756653293E+02  0.21796493638E+02  0.76756460333E+01  0.37675736120E+02  0.00000000000E+00 0.  1.
         14    1    4    4    0    0 -0.95249013181E+01 -0.35154702596E+02 -0.43602535590E+02  0.56813360837E+02  0.00000000000E+00 0. -1.
         -5    1    5    5    0  502  0.38190545680E+02 -0.11793552283E+02 -0.24132001128E+02  0.46925996348E+02  0.47000000000E+01 0.  1.
         11    1    6    6    0    0 -0.19365196400E+02  0.91708246166E+02  0.87141507905E+02  0.12798068466E+03  0.00000000000E+00 0. -1.
        -12    1    6    6    0    0 -0.31201635062E+00 -0.16763540135E+02  0.23956002505E+02  0.29240446099E+02  0.00000000000E+00 0.  1.
</event>
<event>
12    1  0.1598254E-001  0.2463703E+03  0.7818608E-02  0.1116104E+00
         21   -1    0    0  501  502  0.00000000000E+00  0.00000000000E+00  0.92097772476E+02  0.92097772476E+02  0.00000000000E+00 0. -1.
         21   -1    0    0  502  503 -0.00000000000E+00 -0.00000000000E+00 -0.76660992181E+03  0.76660992181E+03  0.00000000000E+00 0.  1.
         -6    2    1    2    0  503  0.17167705068E+03 -0.22002553695E+02 -0.50566331191E+03  0.56248884775E+03  0.17533167634E+03 0.  0.
        -24    2    3    3    0    0  0.20148276837E+02 -0.21882383362E+02 -0.25325891470E+03  0.26805540285E+03  0.82636731306E+02 0.  0.
          6    2    1    2  501    0 -0.17167705068E+03  0.22002553695E+02 -0.16884883742E+03  0.29621884653E+03  0.17110976900E+03 0.  0.
         24    2    5    5    0    0 -0.71423467109E+02 -0.15715922440E+02 -0.15863946811E+03  0.18851654535E+03  0.70878100661E+02 0.  0.
          5    1    5    5  501    0 -0.10025358357E+03  0.37718476135E+02 -0.10209369303E+02  0.10770230119E+03  0.47000000000E+01 0. -1.
        -11    1    6    6    0    0  0.82122032414E+01 -0.20470895055E+02 -0.35392168973E+02  0.41702559287E+02  0.00000000000E+00 0.  1.
         12    1    6    6    0    0 -0.79635670351E+02  0.47549726155E+01 -0.12324729914E+03  0.14681398606E+03  0.00000000000E+00 0. -1.
         -5    1    3    3    0  503  0.15152877384E+03 -0.12017033336E+00 -0.25240439721E+03  0.29443344490E+03  0.47000000000E+01 0.  1.
         11    1    4    4    0    0  0.41774437831E+01  0.12064005608E+02 -0.76505074131E+00  0.12789705646E+02  0.00000000000E+00 0. -1.
        -12    1    4    4    0    0  0.15970833054E+02 -0.33946388970E+02 -0.25249386396E+03  0.25526569721E+03  0.00000000000E+00 0.  1.
</event>
<event>
12    1  0.1598254E-001  0.1986390E+03  0.7818608E-02  0.1151102E+00
         21   -1    0    0  503  502  0.00000000000E+00  0.00000000000E+00  0.21530923644E+03  0.21530923644E+03  0.00000000000E+00 0.  1.
         21   -1    0    0  501  503 -0.00000000000E+00 -0.00000000000E+00 -0.20947837209E+03  0.20947837209E+03  0.00000000000E+00 0. -1.
          6    2    1    2  501    0  0.77896613936E+02 -0.58732509771E+02 -0.73516562963E+02  0.21088700025E+03  0.17190477503E+03 0.  0.
         24    2    3    3    0    0 -0.24010330788E+02 -0.12927949723E+02 -0.46269726333E+02  0.95788941139E+02  0.79315860968E+02 0.  0.
         -6    2    1    2    0  502 -0.77896613936E+02  0.58732509771E+02  0.79347427312E+02  0.21390060829E+03  0.17303197923E+03 0.  0.
        -24    2    5    5    0    0 -0.11293109459E+03  0.70273307946E+02  0.44770494056E+02  0.16312404706E+03  0.83146182446E+02 0.  0.
          5    1    3    3  501    0  0.10190694472E+03 -0.45804560047E+02 -0.27246836629E+02  0.11509805911E+03  0.47000000000E+01 0. -1.
        -13    1    4    4    0    0 -0.12056189138E+02 -0.20215853435E+02  0.18239632511E+02  0.29777787372E+02  0.00000000000E+00 0.  1.
         14    1    4    4    0    0 -0.11954141649E+02  0.72879037120E+01 -0.64509358844E+02  0.66011153767E+02  0.00000000000E+00 0. -1.
         -5    1    5    5    0  502  0.35034480652E+02 -0.11540798175E+02  0.34576933255E+02  0.50776561230E+02  0.47000000000E+01 0.  1.
         11    1    6    6    0    0 -0.23732302949E+02 -0.13183149715E+02 -0.10423160492E+02  0.29080232363E+02  0.00000000000E+00 0. -1.
        -12    1    6    6    0    0 -0.89198791639E+02  0.83456457660E+02  0.55193654548E+02  0.13404381469E+03  0.00000000000E+00 0.  1.
</event>
<event>
12    1  0.1598254E-001  0.1779507E+03  0.7818608E-02  0.1170101E+00
         21   -1    0    0  503  502  0.00000000000E+00  0.00000000000E+00  0.22882650396E+03  0.22882650396E+03  0.00000000000E+00 0.  1.
         21   -1    0    0  501  503 -0.00000000000E+00 -0.00000000000E+00 -0.20479706735E+03  0.20479706735E+03  0.00000000000E+00 0.  1.
          6    2    1    2  501    0 -0.41757789965E+02 -0.19796845478E+02 -0.11234999050E+03  0.20942320609E+03  0.17058701817E+03 0.  0.
         24    2    3    3    0    0 -0.62905722739E+02  0.12435188923E+02 -0.12520779858E+02  0.10230597872E+03  0.78727247358E+02 0.  0.
         -6    2    1    2    0  502  0.41757789965E+02  0.19796845478E+02  0.13637942711E+03  0.22420036522E+03  0.17184535930E+03 0.  0.
        -24    2    5    5    0    0  0.89022061814E+02 -0.12955984167E+02  0.85741201502E+02  0.14743462328E+03  0.79326095897E+02 0.  0.
          5    1    3    3  501    0  0.21147932774E+02 -0.32232034402E+02 -0.99829210639E+02  0.10711722737E+03  0.47000000000E+01 0. -1.
        -11    1    4    4    0    0 -0.19859430129E+02 -0.30756291860E+02 -0.18526725851E+02  0.41031524769E+02  0.00000000000E+00 0.  1.
         12    1    4    4    0    0 -0.43046292610E+02  0.43191480784E+02  0.60059459929E+01  0.61274453951E+02  0.00000000000E+00 0. -1.
         -5    1    5    5    0  502 -0.47264271849E+02  0.32752829645E+02  0.50638225605E+02  0.76765741940E+02  0.47000000000E+01 0.  1.
         11    1    6    6    0    0  0.54562715624E+01 -0.38343297598E+01 -0.14888238561E+02  0.16313572003E+02  0.00000000000E+00 0. -1.
        -12    1    6    6    0    0  0.83565790251E+02 -0.91216544072E+01  0.10062944006E+03  0.13112105127E+03  0.00000000000E+00 0.  1.
</event>
<event>
12    1  0.1598254E-001  0.1929158E+03  0.7818608E-02  0.1156039E+00
         21   -1    0    0  503  502  0.00000000000E+00  0.00000000000E+00  0.10936888348E+04  0.10936888348E+04  0.00000000000E+00 0.  1.
         21   -1    0    0  501  503 -0.00000000000E+00 -0.00000000000E+00 -0.10383587323E+03  0.10383587323E+03  0.00000000000E+00 0.  1.
          6    2    1    2  501    0 -0.46472956456E+02 -0.72554201085E+02  0.31323649012E+01  0.19212228068E+03  0.17168957816E+03 0.  0.
         24    2    3    3    0    0  0.40104190399E+02 -0.26632619181E+02  0.47132277207E+01  0.93994898321E+02  0.80592703781E+02 0.  0.
         -6    2    1    2    0  502  0.46472956456E+02  0.72554201085E+02  0.98672059663E+03  0.10054024273E+04  0.17260549602E+03 0.  0.
        -24    2    5    5    0    0 -0.37411912180E+02  0.14831325045E+02  0.32483775147E+03  0.33571623788E+03  0.74607025267E+02 0.  0.
          5    1    3    3  501    0 -0.86577146854E+02 -0.45921581904E+02 -0.15808628195E+01  0.98127382362E+02  0.47000000000E+01 0. -1.
        -11    1    4    4    0    0 -0.10023748135E+00 -0.20929524124E+02 -0.32670772352E+02  0.38799927754E+02  0.00000000000E+00 0.  1.
         12    1    4    4    0    0  0.40204427880E+02 -0.57030950570E+01  0.37384000073E+02  0.55194970567E+02  0.00000000000E+00 0. -1.
         -5    1    5    5    0  502  0.83884868635E+02  0.57722876040E+02  0.66188284516E+03  0.66968618943E+03  0.47000000000E+01 0.  1.
         11    1    6    6    0    0  0.14656222654E+02 -0.13680116839E+02  0.14388174951E+03  0.14527184276E+03  0.00000000000E+00 0. -1.
        -12    1    6    6    0    0 -0.52068134834E+02  0.28511441884E+02  0.18095600197E+03  0.19044439512E+03  0.00000000000E+00 0.  1.
</event>
<event>
12    1  0.1598254E-001  0.1925332E+03  0.7818608E-02  0.1158579E+00
         21   -1    0    0  501  502  0.00000000000E+00  0.00000000000E+00  0.59679430282E+02  0.59679430282E+02  0.00000000000E+00 0. -1.
         21   -1    0    0  502  503 -0.00000000000E+00 -0.00000000000E+00 -0.60588352983E+03  0.60588352983E+03  0.00000000000E+00 0. -1.
         -6    2    1    2    0  503 -0.53736503969E+02 -0.31279383950E+02 -0.33775669966E+03  0.38877834590E+03  0.18221691020E+03 0.  0.
        -24    2    3    3    0    0 -0.64565184173E+02 -0.83829342747E+02 -0.28285491009E+03  0.31186895127E+03  0.77841639858E+02 0.  0.
          6    2    1    2  501    0  0.53736503969E+02  0.31279383950E+02 -0.20844739989E+03  0.27678461421E+03  0.17115312565E+03 0.  0.
         24    2    5    5    0    0  0.86543900800E+02  0.58030644510E+02 -0.18944366648E+03  0.23014571294E+03  0.78871692922E+02 0.  0.
          5    1    5    5  501    0 -0.32807396831E+02 -0.26751260560E+02 -0.19003733411E+02  0.46638901273E+02  0.47000000000E+01 0. -1.
        -11    1    6    6    0    0 -0.15109953359E+02  0.45598890586E+01 -0.24816522236E+02  0.29410254243E+02  0.00000000000E+00 0.  1.
         12    1    6    6    0    0  0.10165385416E+03  0.53470755451E+02 -0.16462714425E+03  0.20073545869E+03  0.00000000000E+00 0. -1.
         -5    1    3    3    0  503  0.10828680204E+02  0.52549958797E+02 -0.54901789570E+02  0.76909394631E+02  0.47000000000E+01 0.  1.
         13    1    4    4    0    0 -0.54692263997E+02 -0.38016040976E+02 -0.23745393621E+03  0.24661880490E+03  0.00000000000E+00 0. -1.
        -14    1    4    4    0    0 -0.98729201756E+01 -0.45813301771E+02 -0.45400973881E+02  0.65250146370E+02  0.00000000000E+00 0.  1.
</event>
<event>
12    1  0.1598254E-001  0.1726802E+03  0.7818608E-02  0.1175178E+00
         21   -1    0    0  501  502  0.00000000000E+00  0.00000000000E+00  0.32577315559E+03  0.32577315559E+03  0.00000000000E+00 0. -1.
         21   -1    0    0  502  503 -0.00000000000E+00 -0.00000000000E+00 -0.11250253594E+03  0.11250253594E+03  0.00000000000E+00 0. -1.
         -6    2    1    2    0  503 -0.37036877996E+02  0.71760072502E+00  0.11480052958E+02  0.17268602585E+03  0.16827485440E+03 0.  0.
        -24    2    3    3    0    0  0.10289761813E+02  0.37428289948E+02 -0.34977785378E+02  0.96739292659E+02  0.81414305792E+02 0.  0.
          6    2    1    2  501    0  0.37036877996E+02 -0.71760072502E+00  0.20179056669E+03  0.26558966569E+03  0.16865999062E+03 0.  0.
         24    2    5    5    0    0 -0.13315471389E+02  0.26284854319E+02  0.18709863798E+03  0.20640829670E+03  0.82038340218E+02 0.  0.
          5    1    5    5  501    0  0.50352349385E+02 -0.27002455044E+02  0.14691928709E+02  0.59181368996E+02  0.47000000000E+01 0. -1.
        -13    1    6    6    0    0  0.17928104285E+02  0.39486136097E+02  0.55082406721E+02  0.70104517667E+02  0.00000000000E+00 0.  1.
         14    1    6    6    0    0 -0.31243575675E+02 -0.13201281778E+02  0.13201623126E+03  0.13630377903E+03  0.00000000000E+00 0. -1.
         -5    1    3    3    0  503 -0.47326639808E+02 -0.36710689223E+02  0.46457838337E+02  0.75946733187E+02  0.47000000000E+01 0.  1.
         11    1    4    4    0    0  0.13044554639E+02  0.48572477370E+02  0.91705813200E+01  0.51122847391E+02  0.00000000000E+00 0. -1.
        -12    1    4    4    0    0 -0.27547928260E+01 -0.11144187421E+02 -0.44148366698E+02  0.45616445268E+02  0.00000000000E+00 0.  1.
</event>
<event>
12    1  0.1598254E-001  0.2662718E+03  0.7818608E-02  0.1103843E+00
         21   -1    0    0  501  502  0.00000000000E+00  0.00000000000E+00  0.51608178282E+03  0.51608178282E+03  0.00000000000E+00 0.  1.
         21   -1    0    0  502  503 -0.00000000000E+00 -0.00000000000E+00 -0.21576967074E+03  0.21576967074E+03  0.00000000000E+00 0. -1.
         -6    2    1    2    0  503 -0.10322555608E+03  0.17189340556E+03 -0.71918654027E+02  0.27581331650E+03  0.17520797487E+03 0.  0.
        -24    2    3    3    0    0 -0.13796754203E+03  0.10967713861E+03 -0.38741244889E+02  0.19706879327E+03  0.79190326688E+02 0.  0.
          6    2    1    2  501    0  0.10322555608E+03 -0.17189340556E+03  0.37223076610E+03  0.45603813706E+03  0.17091571289E+03 0.  0.
         24    2    5    5    0    0  0.81452137986E+02 -0.15109203496E+03  0.17920695663E+03  0.26062304098E+03  0.79661674412E+02 0.  0.
          5    1    5    5  501    0  0.21773418096E+02 -0.20801370595E+02  0.19302380947E+03  0.19541509608E+03  0.47000000000E+01 0. -1.
        -11    1    6    6    0    0 -0.18516146760E+01  0.67067886178E+01  0.21095497072E+02  0.22213272770E+02  0.00000000000E+00 0.  1.
         12    1    6    6    0    0  0.83303752662E+02 -0.15779882358E+03  0.15811145956E+03  0.23840976821E+03  0.00000000000E+00 0. -1.
         -5    1    3    3    0  503  0.34741985946E+02  0.62216266953E+02 -0.33177409139E+02  0.78744523226E+02  0.47000000000E+01 0.  1.
         11    1    4    4    0    0 -0.66842841492E+02  0.64403192564E+02 -0.59480738875E+02  0.11024379787E+03  0.00000000000E+00 0. -1.
        -12    1    4    4    0    0 -0.71124700536E+02  0.45273946043E+02  0.20739493986E+02  0.86824995407E+02  0.00000000000E+00 0.  1.
</event>
<event>
12    1  0.1598254E-001  0.2947336E+03  0.7818608E-02  0.1088366E+00
         21   -1    0    0  503  502  0.00000000000E+00  0.00000000000E+00  0.16600657913E+04  0.16600657913E+04  0.00000000000E+00 0.  1.
         21   -1    0    0  501  503 -0.00000000000E+00 -0.00000000000E+00 -0.10287579505E+03  0.10287579505E+03  0.00000000000E+00 0. -1.
          6    2    1    2  501    0 -0.23211358646E+03 -0.58104374826E+02  0.15924785672E+03  0.33500412108E+03  0.17209022598E+03 0.  0.
         24    2    3    3    0    0 -0.13073958028E+03 -0.48698690566E+02  0.16421314739E+03  0.23296540227E+03  0.88558006776E+02 0.  0.
         -6    2    1    2    0  502  0.23211358646E+03  0.58104374826E+02  0.13979421395E+04  0.14279374652E+04  0.16586242442E+03 0.  0.
        -24    2    5    5    0    0  0.41146076900E+02  0.52769615329E+01  0.35732560285E+03  0.36861494982E+03  0.80464581122E+02 0.  0.
          5    1    3    3  501    0 -0.10137400618E+03 -0.94056842603E+01 -0.49652906675E+01  0.10203871881E+03  0.47000000000E+01 0. -1.
        -11    1    4    4    0    0 -0.12302567704E+03 -0.26715199180E+02  0.88864313990E+02  0.15409699990E+03  0.00000000000E+00 0.  1.
         12    1    4    4    0    0 -0.77139032370E+01 -0.21983491386E+02  0.75348833401E+02  0.78868402365E+02  0.00000000000E+00 0. -1.
         -5    1    5    5    0  502  0.19096750956E+03  0.52827413293E+02  0.10406165366E+04  0.10593225154E+04  0.47000000000E+01 0.  1.
         11    1    6    6    0    0  0.18701320635E+02 -0.33693270095E+02  0.95957083272E+02  0.10340569459E+03  0.00000000000E+00 0. -1.
        -12    1    6    6    0    0  0.22444756266E+02  0.38970231628E+02  0.26136851957E+03  0.26520925523E+03  0.00000000000E+00 0.  1.
</event>
<event>
12    1  0.1598254E-001  0.3360133E+03  0.7818608E-02  0.1068538E+00
         21   -1    0    0  503  502  0.00000000000E+00  0.00000000000E+00  0.48940765794E+03  0.48940765794E+03  0.00000000000E+00 0.  1.
         21   -1    0    0  501  503 -0.00000000000E+00 -0.00000000000E+00 -0.23160812347E+03  0.23160812347E+03  0.00000000000E+00 0. -1.
          6    2    1    2  501    0 -0.26433414714E+03  0.11521133839E+03  0.10387879607E+03  0.35142613193E+03  0.17193989675E+03 0.  0.
         24    2    3    3    0    0 -0.11746981845E+03  0.11589143560E+03  0.24330483158E+02  0.18433448743E+03  0.78468132087E+02 0.  0.
         -6    2    1    2    0  502  0.26433414714E+03 -0.11521133839E+03  0.15392073840E+03  0.36958964948E+03  0.17250716350E+03 0.  0.
        -24    2    5    5    0    0  0.18277038622E+03 -0.54132163795E+02  0.16783850047E+03  0.26663768610E+03  0.81182437570E+02 0.  0.
          5    1    3    3  501    0 -0.14686432868E+03 -0.68009721841E+00  0.79548312916E+02  0.16709164449E+03  0.47000000000E+01 0. -1.
        -11    1    4    4    0    0 -0.44076845046E+02  0.80656181427E+02  0.41953564652E+02  0.10103607998E+03  0.00000000000E+00 0.  1.
         12    1    4    4    0    0 -0.73392973406E+02  0.35235254177E+02 -0.17623081494E+02  0.83298407449E+02  0.00000000000E+00 0. -1.
         -5    1    5    5    0  502  0.81563760911E+02 -0.61079174591E+02 -0.13917762077E+02  0.10295196338E+03  0.47000000000E+01 0.  1.
         13    1    6    6    0    0  0.11895727027E+03 -0.69224254997E+02  0.88166031420E+02  0.16345053908E+03  0.00000000000E+00 0. -1.
        -14    1    6    6    0    0  0.63813115958E+02  0.15092091202E+02  0.79672469052E+02  0.10318714702E+03  0.00000000000E+00 0.  1.
</event>
<event>
12    1  0.1598254E-001  0.2155239E+03  0.7818608E-02  0.1137286E+00
         21   -1    0    0  503  502  0.00000000000E+00  0.00000000000E+00  0.69896593969E+03  0.69896593969E+03  0.00000000000E+00 0.  1.
         21   -1    0    0  501  503 -0.00000000000E+00 -0.00000000000E+00 -0.22355027543E+03  0.22355027543E+03  0.00000000000E+00 0. -1.
          6    2    1    2  501    0  0.57585636772E+02  0.11587617587E+03 -0.14898241596E+03  0.26200440304E+03  0.17235763183E+03 0.  0.
         24    2    3    3    0    0  0.44829637739E+02  0.66327695585E+02 -0.10331963189E+02  0.11414025775E+03  0.80698137237E+02 0.  0.
         -6    2    1    2    0  502 -0.57585636772E+02 -0.11587617587E+03  0.62439808023E+03  0.66051181208E+03  0.17221932993E+03 0.  0.
        -24    2    5    5    0    0 -0.95342339091E+02 -0.50368851759E+02  0.32099138913E+03  0.34779070904E+03  0.79345589331E+02 0.  0.
          5    1    3    3  501    0  0.12755999034E+02  0.49548480284E+02 -0.13865045277E+03  0.14786414530E+03  0.47000000000E+01 0. -1.
        -11    1    4    4    0    0  0.45054842792E+01  0.35494789101E+02  0.32032309209E+02  0.48023413823E+02  0.00000000000E+00 0.  1.
         12    1    4    4    0    0  0.40324153459E+02  0.30832906484E+02 -0.42364272398E+02  0.66116843923E+02  0.00000000000E+00 0. -1.
         -5    1    5    5    0  502  0.37756702319E+02 -0.65507324110E+02  0.30340669109E+03  0.31272110303E+03  0.47000000000E+01 0.  1.
         11    1    6    6    0    0 -0.61259328133E+02 -0.52073808861E+01  0.24761764069E+03  0.25513588160E+03  0.00000000000E+00 0. -1.
        -12    1    6    6    0    0 -0.34083010959E+02 -0.45161470873E+02  0.73373748443E+02  0.92654827440E+02  0.00000000000E+00 0.  1.
</event>
<event>
12    1  0.1598254E-001  0.1782924E+03  0.7818608E-02  0.1169812E+00
         21   -1    0    0  503  502  0.00000000000E+00  0.00000000000E+00  0.21945740203E+02  0.21945740203E+02  0.00000000000E+00 0. -1.
         21   -1    0    0  501  503 -0.00000000000E+00 -0.00000000000E+00 -0.14563295648E+04  0.14563295648E+04  0.00000000000E+00 0. -1.
          6    2    1    2  501    0  0.42909408980E+01 -0.43019636940E+02 -0.79937982718E+03  0.81871616134E+03  0.17151951321E+03 0.  0.
         24    2    3    3    0    0 -0.21863200848E+01  0.42641419813E+02 -0.40353384404E+03  0.41362863510E+03  0.80162421428E+02 0.  0.
         -6    2    1    2    0  502 -0.42909408980E+01  0.43019636940E+02 -0.63500399741E+03  0.65955914365E+03  0.17297134418E+03 0.  0.
        -24    2    5    5    0    0  0.16988039444E+02  0.55610343959E+02 -0.19522201016E+03  0.21905760311E+03  0.80582233710E+02 0.  0.
          5    1    3    3  501    0  0.64772609828E+01 -0.85661056753E+02 -0.39584598314E+03  0.40508752625E+03  0.47000000000E+01 0. -1.
        -11    1    4    4    0    0  0.32172199532E+02  0.13062438463E+02 -0.27797695395E+03  0.28013722468E+03  0.00000000000E+00 0.  1.
         12    1    4    4    0    0 -0.34358519617E+02  0.29578981350E+02 -0.12555689009E+03  0.13349141042E+03  0.00000000000E+00 0. -1.
         -5    1    5    5    0  502 -0.21278980342E+02 -0.12590707019E+02 -0.43978198725E+03  0.44050154054E+03  0.47000000000E+01 0.  1.
         13    1    6    6    0    0 -0.84943105998E+00  0.30624214702E+02 -0.11397859037E+02  0.32687539673E+02  0.00000000000E+00 0. -1.
        -14    1    6    6    0    0  0.17837470504E+02  0.24986129257E+02 -0.18382415112E+03  0.18637006344E+03  0.00000000000E+00 0.  1.
</event>
<event>
12    1  0.1598254E-001  0.2615479E+03  0.7818608E-02  0.1106596E+00
         21   -1    0    0  503  502  0.00000000000E+00  0.00000000000E+00  0.31695584920E+03  0.31695584920E+03  0.00000000000E+00 0. -1.
         21   -1    0    0  501  503 -0.00000000000E+00 -0.00000000000E+00 -0.28880407353E+03  0.28880407353E+03  0.00000000000E+00 0.  1.
          6    2    1    2  501    0 -0.19279496574E+03 -0.30513238945E+02 -0.14038211794E+03  0.29461531856E+03  0.17026476536E+03 0.  0.
         24    2    3    3    0    0 -0.19284354212E+03 -0.30921567680E+02 -0.16620019322E+03  0.26836970744E+03  0.79088687904E+02 0.  0.
         -6    2    1    2    0  502  0.19279496574E+03  0.30513238945E+02  0.16853389362E+03  0.31114460417E+03  0.17408714725E+03 0.  0.
        -24    2    5    5    0    0  0.32326223410E+02  0.32269060910E+02  0.10227255395E+03  0.13746111240E+03  0.79684409515E+02 0.  0.
          5    1    3    3  501    0  0.48576379176E-01  0.40832873442E+00  0.25818075281E+02  0.26245611123E+02  0.47000000000E+01 0. -1.
        -13    1    4    4    0    0 -0.92582614821E+02  0.18322871525E+02 -0.10430598602E+03  0.14066629628E+03  0.00000000000E+00 0.  1.
         14    1    4    4    0    0 -0.10026092730E+03 -0.49244439205E+02 -0.61894207199E+02  0.12770341116E+03  0.00000000000E+00 0. -1.
         -5    1    5    5    0  502  0.16046874233E+03 -0.17558219647E+01  0.66261339669E+02  0.17368349177E+03  0.47000000000E+01 0.  1.
         13    1    6    6    0    0  0.38589195074E+02  0.27542865381E+02  0.11393470784E+03  0.12340523919E+03  0.00000000000E+00 0. -1.
        -14    1    6    6    0    0 -0.62629716632E+01  0.47261955293E+01 -0.11662153892E+02  0.14055873208E+02  0.00000000000E+00 0.  1.
</event>
<event>
12    1  0.1598254E-001  0.1815041E+03  0.7818608E-02  0.1167104E+00
         21   -1    0    0  501  502  0.00000000000E+00  0.00000000000E+00  0.85196162222E+02  0.85196162222E+02  0.00000000000E+00 0. -1.
         21   -1    0    0  502  503 -0.00000000000E+00 -0.00000000000E+00 -0.93574373050E+03  0.93574373050E+03  0.00000000000E+00 0. -1.
         -6    2    1    2    0  503 -0.32906543994E+02 -0.41943685869E+02 -0.82011396089E+03  0.83995872461E+03  0.17349823278E+03 0.  0.
        -24    2    3    3    0    0 -0.64749984820E+01 -0.90579036894E+02 -0.65176526751E+03  0.66268098622E+03  0.78112982449E+02 0.  0.
          6    2    1    2  501    0  0.32906543994E+02  0.41943685869E+02 -0.30433607385E+02  0.18098116811E+03  0.17025235778E+03 0.  0.
         24    2    5    5    0    0  0.35257840443E+02 -0.22021501767E+02 -0.61204895113E+02  0.10980507681E+03  0.81136020699E+02 0.  0.
          5    1    5    5  501    0 -0.23512964492E+01  0.63965187636E+02  0.30771287728E+02  0.71176091300E+02  0.47000000000E+01 0. -1.
        -11    1    6    6    0    0 -0.36984695027E+01 -0.44743828510E+02 -0.39303623511E+02  0.59669621144E+02  0.00000000000E+00 0.  1.
         12    1    6    6    0    0  0.38956309946E+02  0.22722326742E+02 -0.21901271602E+02  0.50135455667E+02  0.00000000000E+00 0. -1.
         -5    1    3    3    0  503 -0.26431545512E+02  0.48635351026E+02 -0.16834869337E+03  0.17727773839E+03  0.47000000000E+01 0.  1.
         11    1    4    4    0    0 -0.32966533710E+02 -0.78270870509E+02 -0.38136942797E+03  0.39071186584E+03  0.00000000000E+00 0. -1.
        -12    1    4    4    0    0  0.26491535228E+02 -0.12308166385E+02 -0.27039583954E+03  0.27196912038E+03  0.00000000000E+00 0.  1.
</event>
<event>
12    1  0.1598254E-001  0.3305528E+03  0.7818608E-02  0.1071272E+00
         21   -1    0    0  503  502  0.00000000000E+00  0.00000000000E+00  0.12014274712E+04  0.12014274712E+04  0.00000000000E+00 0. -1.
         21   -1    0    0  501  503 -0.00000000000E+00 -0.00000000000E+00 -0.22899325318E+03  0.22899325318E+03  0.00000000000E+00 0.  1.
          6    2    1    2  501    0  0.26176965806E+03 -0.93954938070E+02 -0.71965131639E+02  0.33495956402E+03  0.17224414384E+03 0.  0.
         24    2    3    3    0    0  0.24266447181E+03 -0.12572571414E+03 -0.82302092504E+02  0.29618672412E+03  0.79119782869E+02 0.  0.
         -6    2    1    2    0  502 -0.26176965806E+03  0.93954938070E+02  0.10443993497E+04  0.10954611604E+04  0.17864564935E+03 0.  0.
        -24    2    5    5    0    0 -0.26596214604E+03  0.45913627023E+02  0.85662125530E+03  0.90153270128E+03  0.78213248044E+02 0.  0.
          5    1    3    3  501    0  0.19105186256E+02  0.31770776072E+02  0.10336960865E+02  0.38772839902E+02  0.47000000000E+01 0. -1.
        -13    1    4    4    0    0  0.16622318576E+03 -0.57495335562E+02 -0.21896934848E+02  0.17724372162E+03  0.00000000000E+00 0.  1.
         14    1    4    4    0    0  0.76441286041E+02 -0.68230378581E+02 -0.60405157656E+02  0.11894300250E+03  0.00000000000E+00 0. -1.
         -5    1    5    5    0  502  0.41924879789E+01  0.48041311047E+02  0.18777809438E+03  0.19392845911E+03  0.47000000000E+01 0.  1.
         13    1    6    6    0    0 -0.22712906218E+03  0.66171012033E+02  0.69954386458E+03  0.73846315561E+03  0.00000000000E+00 0. -1.
        -14    1    6    6    0    0 -0.38833083864E+02 -0.20257385010E+02  0.15707739071E+03  0.16306954567E+03  0.00000000000E+00 0.  1.
</event>
<event>
12    1  0.1598254E-001  0.2758894E+03  0.7818608E-02  0.1098128E+00
         21   -1    0    0  501  502  0.00000000000E+00  0.00000000000E+00  0.48474930139E+03  0.48474930139E+03  0.00000000000E+00 0.  1.
         21   -1    0    0  502  503 -0.00000000000E+00 -0.00000000000E+00 -0.18236243879E+03  0.18236243879E+03  0.00000000000E+00 0. -1.
         -6    2    1    2    0  503  0.13825339718E+03  0.16508295378E+03  0.25425753242E+02  0.27705849491E+03  0.17247770062E+03 0.  0.
        -24    2    3    3    0    0  0.12076466995E+03  0.15518008735E+03  0.74069644373E+02  0.22421684005E+03  0.78242661806E+02 0.  0.
          6    2    1    2  501    0 -0.13825339718E+03 -0.16508295378E+03  0.27696110936E+03  0.39005324528E+03  0.17049250597E+03 0.  0.
         24    2    5    5    0    0 -0.79746202681E+02 -0.17150552724E+03  0.25558344961E+03  0.32725646515E+03  0.77461548847E+02 0.  0.
          5    1    5    5  501    0 -0.58507194502E+02  0.64225734605E+01  0.21377659753E+02  0.62796780132E+02  0.47000000000E+01 0. -1.
        -13    1    6    6    0    0 -0.82182422677E+02 -0.10153150219E+03  0.13520891082E+03  0.18800012260E+03  0.00000000000E+00 0.  1.
         14    1    6    6    0    0  0.24362199958E+01 -0.69974025053E+02  0.12037453879E+03  0.13925634254E+03  0.00000000000E+00 0. -1.
         -5    1    3    3    0  503  0.17488727237E+02  0.99028664262E+01 -0.48643891131E+02  0.52841654859E+02  0.47000000000E+01 0.  1.
         11    1    4    4    0    0  0.58821512836E+02  0.98503638955E+02  0.39004342462E+01  0.11479612645E+03  0.00000000000E+00 0. -1.
        -12    1    4    4    0    0  0.61943157110E+02  0.56676448396E+02  0.70169210127E+02  0.10942071360E+03  0.00000000000E+00 0.  1.
</event>
<event>
12    1  0.1598254E-001  0.2314155E+03  0.7818608E-02  0.1125832E+00
         21   -1    0    0  501  502  0.00000000000E+00  0.00000000000E+00  0.27299928876E+03  0.27299928876E+03  0.00000000000E+00 0. -1.
         21   -1    0    0  502  503 -0.00000000000E+00 -0.00000000000E+00 -0.72459347813E+03  0.72459347813E+03  0.00000000000E+00 0. -1.
         -6    2    1    2    0  503 -0.10417850756E+03  0.11373784867E+03 -0.65225548238E+03  0.69209128113E+03  0.17252149857E+03 0.  0.
        -24    2    3    3    0    0 -0.86561929103E+02  0.14711253275E+03 -0.47999951439E+03  0.51568713752E+03  0.79991406611E+02 0.  0.
          6    2    1    2  501    0  0.10417850756E+03 -0.11373784867E+03  0.20066129301E+03  0.30550148576E+03  0.17110448163E+03 0.  0.
         24    2    5    5    0    0  0.51790316965E+02 -0.11330041368E+03  0.67953467901E+02  0.16274935545E+03  0.79689762376E+02 0.  0.
          5    1    5    5  501    0  0.52388190595E+02 -0.43743498316E+00  0.13270782511E+03  0.14275213031E+03  0.47000000000E+01 0. -1.
        -11    1    6    6    0    0 -0.20962951693E+02 -0.32147397838E+02  0.11845422550E+02  0.40164842422E+02  0.00000000000E+00 0.  1.
         12    1    6    6    0    0  0.72753268658E+02 -0.81153015847E+02  0.56108045351E+02  0.12258451303E+03  0.00000000000E+00 0. -1.
         -5    1    3    3    0  503 -0.17616578457E+02 -0.33374684082E+02 -0.17225596799E+03  0.17640414361E+03  0.47000000000E+01 0.  1.
         13    1    4    4    0    0 -0.71760058484E+01  0.87930004940E+02 -0.19659942572E+03  0.21548669338E+03  0.00000000000E+00 0. -1.
        -14    1    4    4    0    0 -0.79385923255E+02  0.59182527810E+02 -0.28340008867E+03  0.30020044415E+03  0.00000000000E+00 0.  1.
</event>
<event>
12    1  0.1598254E-001  0.1830709E+03  0.7818608E-02  0.1165120E+00
         21   -1    0    0  501  502  0.00000000000E+00  0.00000000000E+00  0.25820610004E+02  0.25820610004E+02  0.00000000000E+00 0.  1.
         21   -1    0    0  502  503 -0.00000000000E+00 -0.00000000000E+00 -0.16705965218E+04  0.16705965218E+04  0.00000000000E+00 0.  1.
         -6    2    1    2    0  503  0.49114876971E+02  0.32762307778E+02 -0.12289255484E+04  0.12424866037E+04  0.17328969125E+03 0.  0.
        -24    2    3    3    0    0  0.89070910181E+02  0.77610815823E+01 -0.10682276729E+04  0.10749531949E+04  0.80125829964E+02 0.  0.
          6    2    1    2  501    0 -0.49114876971E+02 -0.32762307778E+02 -0.41585036348E+03  0.45393052812E+03  0.17215039819E+03 0.  0.
         24    2    5    5    0    0 -0.45913394515E+02 -0.40776636084E+02 -0.42724994738E+03  0.43887996463E+03  0.79387227999E+02 0.  0.
          5    1    5    5  501    0 -0.32014824561E+01  0.80143283058E+01  0.11399583901E+02  0.15050563485E+02  0.47000000000E+01 0. -1.
        -13    1    6    6    0    0  0.21466977008E+02 -0.48288408350E+01 -0.63638957949E+02  0.67335471889E+02  0.00000000000E+00 0.  1.
         14    1    6    6    0    0 -0.67380371522E+02 -0.35947795249E+02 -0.36361098943E+03  0.37154449274E+03  0.00000000000E+00 0. -1.
         -5    1    3    3    0  503 -0.39956033210E+02  0.25001226196E+02 -0.16069787544E+03  0.16753340883E+03  0.47000000000E+01 0.  1.
         11    1    4    4    0    0 -0.19464069459E+01 -0.23422751582E+01 -0.24912421715E+00  0.30556203611E+01  0.00000000000E+00 0. -1.
        -12    1    4    4    0    0  0.91017317126E+02  0.10103356740E+02 -0.10679785487E+04  0.10718975745E+04  0.00000000000E+00 0.  1.
</event>
<event>
12    1  0.1598254E-001  0.1860854E+03  0.7818608E-02  0.1162267E+00
         21   -1    0    0  501  502  0.00000000000E+00  0.00000000000E+00  0.11616891804E+04  0.11616891804E+04  0.00000000000E+00 0.  1.
         21   -1    0    0  502  503 -0.00000000000E+00 -0.00000000000E+00 -0.31969026552E+02  0.31969026552E+02  0.00000000000E+00 0. -1.
         -6    2    1    2    0  503  0.66858723524E+02 -0.12956678910E+02  0.72416647027E+03  0.74745021357E+03  0.17212431748E+03 0.  0.
        -24    2    3    3    0    0  0.68666800680E+02 -0.41130506433E+02  0.70205253910E+03  0.71128186205E+03  0.81469451616E+02 0.  0.
          6    2    1    2  501    0 -0.66858723524E+02  0.12956678910E+02  0.40555368354E+03  0.44620799334E+03  0.17317568723E+03 0.  0.
         24    2    5    5    0    0 -0.12344846590E+02 -0.37090351923E+02  0.32380371370E+03  0.33583763662E+03  0.80062373941E+02 0.  0.
          5    1    5    5  501    0 -0.54513876935E+02  0.50047030834E+02  0.81749969834E+02  0.11037035672E+03  0.47000000000E+01 0. -1.
        -11    1    6    6    0    0 -0.35370920994E+02 -0.31878097957E+02  0.29392700788E+03  0.29775896484E+03  0.00000000000E+00 0.  1.
         12    1    6    6    0    0  0.23026074405E+02 -0.52122539669E+01  0.29876705825E+02  0.38078671785E+02  0.00000000000E+00 0. -1.
         -5    1    3    3    0  503 -0.18080771554E+01  0.28173827522E+02  0.22113931170E+02  0.36168351526E+02  0.47000000000E+01 0.  1.
         13    1    4    4    0    0  0.15997894821E+02  0.24748788894E+02  0.15698317548E+03  0.15972524088E+03  0.00000000000E+00 0. -1.
        -14    1    4    4    0    0  0.52668905859E+02 -0.65879295326E+02  0.54506936362E+03  0.55155662117E+03  0.00000000000E+00 0.  1.
</event>
<event>
12    1  0.1598254E-001  0.2121546E+03  0.7818608E-02  0.1140136E+00
         21   -1    0    0  501  502  0.00000000000E+00  0.00000000000E+00  0.10968183801E+04  0.10968183801E+04  0.00000000000E+00 0.  1.
         21   -1    0    0  502  503 -0.00000000000E+00 -0.00000000000E+00 -0.48930306738E+02  0.48930306738E+02  0.00000000000E+00 0. -1.
         -6    2    1    2    0  503 -0.12463944805E+03 -0.32466809146E+01  0.29146443401E+03  0.36050119502E+03  0.17165099002E+03 0.  0.
        -24    2    3    3    0    0 -0.12457944458E+03  0.40102925033E+02  0.16054289723E+03  0.22250941727E+03  0.81290444169E+02 0.  0.
          6    2    1    2  501    0  0.12463944805E+03  0.32466809146E+01  0.75642363931E+03  0.78524749177E+03  0.16997461068E+03 0.  0.
         24    2    5    5    0    0  0.96027483131E+02 -0.68678279651E+01  0.26262354595E+03  0.29049344173E+03  0.78401965690E+02 0.  0.
          5    1    5    5  501    0  0.28611964919E+02  0.10114508880E+02  0.49380009337E+03  0.49475405004E+03  0.47000000000E+01 0. -1.
        -11    1    6    6    0    0  0.40559306805E+02 -0.40177183931E+02  0.15159087144E+03  0.16198473935E+03  0.00000000000E+00 0.  1.
         12    1    6    6    0    0  0.55468176326E+02  0.33309355966E+02  0.11103267451E+03  0.12850870238E+03  0.00000000000E+00 0. -1.
         -5    1    3    3    0  503 -0.60003465172E-01 -0.43349605948E+02  0.13092153677E+03  0.13799177775E+03  0.47000000000E+01 0.  1.
         11    1    4    4    0    0 -0.17430579306E+02  0.43397908506E+02  0.45133346368E+02  0.64994019048E+02  0.00000000000E+00 0. -1.
        -12    1    4    4    0    0 -0.10714886528E+03 -0.32949834729E+01  0.11540955086E+03  0.15751539822E+03  0.00000000000E+00 0.  1.
</event>
<event>
12    1  0.1598254E-001  0.1764003E+03  0.7818608E-02  0.1171501E+00
         21   -1    0    0  503  502  0.00000000000E+00  0.00000000000E+00  0.64310890194E+03  0.64310890194E+03  0.00000000000E+00 0. -1.
         21   -1    0    0  501  503 -0.00000000000E+00 -0.00000000000E+00 -0.71252300904E+02  0.71252300904E+02  0.00000000000E+00 0. -1.
          6    2    1    2  501    0  0.99794044392E+01  0.37650012209E+02  0.82397856062E+02  0.19408538873E+03  0.17135524358E+03 0.  0.
         24    2    3    3    0    0  0.33716827783E+02  0.70566767871E+02  0.99921220239E+02  0.14963163341E+03  0.79302473223E+02 0.  0.
         -6    2    1    2    0  502 -0.99794044392E+01 -0.37650012209E+02  0.48945874497E+03  0.52027581411E+03  0.17204635359E+03 0.  0.
        -24    2    5    5    0    0  0.10382314187E+02  0.38204540108E+02  0.18564759556E+03  0.20644175414E+03  0.81152872901E+02 0.  0.
          5    1    3    3  501    0 -0.23737423343E+02 -0.32916755662E+02 -0.17523364177E+02  0.44453755324E+02  0.47000000000E+01 0. -1.
        -11    1    4    4    0    0  0.57823707418E+02  0.63710485036E+02  0.72822147392E+02  0.11271944018E+03  0.00000000000E+00 0.  1.
         12    1    4    4    0    0 -0.24106879635E+02  0.68562828350E+01  0.27099072847E+02  0.36912193233E+02  0.00000000000E+00 0. -1.
         -5    1    5    5    0  502 -0.20361718626E+02 -0.75854552316E+02  0.30381114941E+03  0.31383405997E+03  0.47000000000E+01 0.  1.
         11    1    6    6    0    0 -0.86177571137E+01  0.45183990236E+02  0.17948127469E+03  0.18528191135E+03  0.00000000000E+00 0. -1.
        -12    1    6    6    0    0  0.19000071301E+02 -0.69794501284E+01  0.61663208776E+01  0.21159842785E+02  0.00000000000E+00 0.  1.
</event>
<event>
12    1  0.1598254E-001  0.1751964E+03  0.7818608E-02  0.1172573E+00
         21   -1    0    0  501  502  0.00000000000E+00  0.00000000000E+00  0.88637985207E+03  0.88637985207E+03  0.00000000000E+00 0.  1.
         21   -1    0    0  502  503 -0.00000000000E+00 -0.00000000000E+00 -0.35724785667E+02  0.35724785667E+02  0.00000000000E+00 0.  1.
         -6    2    1    2    0  503  0.33233348293E+02 -0.27461750007E+02  0.50702072798E+03  0.53638669759E+03  0.16965278540E+03 0.  0.
        -24    2    3    3    0    0 -0.22862244711E+02 -0.28970406823E+02  0.14781956922E+03  0.17279825710E+03  0.81526964303E+02 0.  0.
          6    2    1    2  501    0 -0.33233348293E+02  0.27461750007E+02  0.34363433843E+03  0.38571794015E+03  0.16980920958E+03 0.  0.
         24    2    5    5    0    0 -0.86791496113E+02  0.21840901531E+02  0.21667417801E+03  0.24772865989E+03  0.80074969473E+02 0.  0.
          5    1    5    5  501    0  0.53558147819E+02  0.56208484758E+01  0.12696016042E+03  0.13798928027E+03  0.47000000000E+01 0. -1.
        -13    1    6    6    0    0 -0.15119209875E+02  0.14484152605E+02  0.14356482698E+03  0.14508356465E+03  0.00000000000E+00 0.  1.
         14    1    6    6    0    0 -0.71672286238E+02  0.73567489263E+01  0.73109351026E+02  0.10264509524E+03  0.00000000000E+00 0. -1.
         -5    1    3    3    0  503  0.56095593004E+02  0.15086568157E+01  0.35920115876E+03  0.36358844049E+03  0.47000000000E+01 0.  1.
         11    1    4    4    0    0 -0.22172427032E+02 -0.49738439086E+02  0.14063752726E+03  0.15081260862E+03  0.00000000000E+00 0. -1.
        -12    1    4    4    0    0 -0.68981767937E+00  0.20768032264E+02  0.71820419528E+01  0.21985648481E+02  0.00000000000E+00 0.  1.
</event>
<event>
12    1  0.1598254E-001  0.2132569E+03  0.7818608E-02  0.1139187E+00
         21   -1    0    0  501  502  0.00000000000E+00  0.00000000000E+00  0.46711456520E+03  0.46711456520E+03  0.00000000000E+00 0. -1.
         21   -1    0    0  502  503 -0.00000000000E+00 -0.00000000000E+00 -0.11754689430E+03  0.11754689430E+03  0.00000000000E+00 0. -1.
         -6    2    1    2    0  503  0.12006873155E+03  0.41664061596E+02  0.52724121823E+02  0.21967784376E+03  0.17124873048E+03 0.  0.
        -24    2    3    3    0    0  0.13313802826E+03  0.25300372559E+02  0.69469960467E+01  0.16911884773E+03  0.10093106798E+03 0.  0.
          6    2    1    2  501    0 -0.12006873155E+03 -0.41664061596E+02  0.29684354908E+03  0.36498361575E+03  0.17013098720E+03 0.  0.
         24    2    5    5    0    0 -0.85535496873E+01 -0.49101696980E+02  0.11684731167E+03  0.15305983301E+03  0.85380784596E+02 0.  0.
          5    1    5    5  501    0 -0.11151518187E+03  0.74376353840E+01  0.17999623741E+03  0.21192378274E+03  0.47000000000E+01 0. -1.
        -13    1    6    6    0    0  0.50665529777E+01  0.23301407197E+02  0.40243660539E+02  0.46777962226E+02  0.00000000000E+00 0.  1.
         14    1    6    6    0    0 -0.13620102665E+02 -0.72403104176E+02  0.76603651130E+02  0.10628187078E+03  0.00000000000E+00 0. -1.
         -5    1    3    3    0  503 -0.13069296705E+02  0.16363689037E+02  0.45777125776E+02  0.50558996030E+02  0.47000000000E+01 0.  1.
         11    1    4    4    0    0  0.91064994591E+02 -0.32289202370E+02  0.13229786976E+02  0.97521551941E+02  0.00000000000E+00 0. -1.
        -12    1    4    4    0    0  0.42073033666E+02  0.57589574929E+02 -0.62827909295E+01  0.71597295788E+02  0.00000000000E+00 0.  1.
</event>
<event>
12    1  0.1598254E-001  0.2042739E+03  0.7818608E-02  0.1146525E+00
         21   -1    0    0  503  502  0.00000000000E+00  0.00000000000E+00  0.86860098876E+03  0.86860098876E+03  0.00000000000E+00 0. -1.
         21   -1    0    0  501  503 -0.00000000000E+00 -0.00000000000E+00 -0.49849383181E+02  0.49849383181E+02  0.00000000000E+00 0.  1.
          6    2    1    2  501    0  0.81525792292E+02  0.74015277676E+02  0.31133311542E+03  0.37145735618E+03  0.17008098823E+03 0.  0.
         24    2    3    3    0    0  0.10369996662E+03  0.30909401023E+02  0.28707430645E+03  0.31704788621E+03  0.79991440642E+02 0.  0.
         -6    2    1    2    0  502 -0.81525792292E+02 -0.74015277676E+02  0.50741849016E+03  0.54699301577E+03  0.17205556953E+03 0.  0.
        -24    2    5    5    0    0  0.19258487764E+01 -0.13436239528E-01  0.12446705732E+03  0.14810162849E+03  0.80239235596E+02 0.  0.
          5    1    3    3  501    0 -0.22174174329E+02  0.43105876653E+02  0.24258808971E+02  0.54409469966E+02  0.47000000000E+01 0. -1.
        -13    1    4    4    0    0  0.47556944754E+02 -0.63219091247E+01  0.20660779916E+03  0.21210471990E+03  0.00000000000E+00 0.  1.
         14    1    4    4    0    0  0.56143021867E+02  0.37231310147E+02  0.80466507294E+02  0.10494316631E+03  0.00000000000E+00 0. -1.
         -5    1    5    5    0  502 -0.83451641068E+02 -0.74001841436E+02  0.38295143284E+03  0.39889138728E+03  0.47000000000E+01 0.  1.
         13    1    6    6    0    0  0.11954317201E+02 -0.91859124775E+01  0.13179966211E+03  0.13265910304E+03  0.00000000000E+00 0. -1.
        -14    1    6    6    0    0 -0.10028468425E+02  0.91724762380E+01 -0.73326047868E+01  0.15442525449E+02  0.00000000000E+00 0.  1.
</event>
<event>
12    1  0.1598254E-001  0.2013819E+03  0.7818608E-02  0.1148795E+00
         21   -1    0    0  503  502  0.00000000000E+00  0.00000000000E+00  0.42439762157E+03  0.42439762157E+03  0.00000000000E+00 0.  1.
         21   -1    0    0  501  503 -0.00000000000E+00 -0.00000000000E+00 -0.21711383821E+03  0.21711383821E+03  0.00000000000E+00 0. -1.
          6    2    1    2  501    0  0.75912356280E+02 -0.69590292989E+02 -0.13696067583E+03  0.24268953202E+03  0.17185600809E+03 0.  0.
         24    2    3    3    0    0 -0.26445986608E+02 -0.26071186465E+02 -0.49530195051E+02  0.10113628423E+03  0.79976313960E+02 0.  0.
         -6    2    1    2    0  502 -0.75912356280E+02  0.69590292989E+02  0.34424445919E+03  0.39882192775E+03  0.17305833599E+03 0.  0.
        -24    2    5    5    0    0  0.26827370766E+01  0.44128002546E+02  0.26914029338E+03  0.28707112169E+03  0.89548052450E+02 0.  0.
          5    1    3    3  501    0  0.10235834289E+03 -0.43519106524E+02 -0.87430480778E+02  0.14155324779E+03  0.47000000000E+01 0. -1.
        -11    1    4    4    0    0 -0.18621911458E+02 -0.13232218566E+01  0.19735990706E+02  0.27166814896E+02  0.00000000000E+00 0.  1.
         12    1    4    4    0    0 -0.78240751495E+01 -0.24747964608E+02 -0.69266185757E+02  0.73969469334E+02  0.00000000000E+00 0. -1.
         -5    1    5    5    0  502 -0.78595093356E+02  0.25462290443E+02  0.75104165809E+02  0.11175080606E+03  0.47000000000E+01 0.  1.
         13    1    6    6    0    0 -0.14127089672E+02  0.30179270164E+02  0.24258308178E+02  0.41216847598E+02  0.00000000000E+00 0. -1.
        -14    1    6    6    0    0  0.16809826749E+02  0.13948732383E+02  0.24488198520E+03  0.24585427409E+03  0.00000000000E+00 0.  1.
</event>
<event>
12    1  0.1598254E-001  0.1869211E+03  0.7818608E-02  0.1161457E+00
         21   -1    0    0  503  502  0.00000000000E+00  0.00000000000E+00  0.65501295694E+03  0.65501295694E+03  0.00000000000E+00 0. -1.
         21   -1    0    0  501  503 -0.00000000000E+00 -0.00000000000E+00 -0.12823422080E+03  0.12823422080E+03  0.00000000000E+00 0. -1.
          6    2    1    2  501    0 -0.69959411262E+02  0.28636744761E+02 -0.36123023379E+02  0.19037956066E+03  0.17095356657E+03 0.  0.
         24    2    3    3    0    0  0.21226720550E+02  0.37835747353E+01  0.13600449641E+02  0.83481925211E+02  0.79494468382E+02 0.  0.
         -6    2    1    2    0  502  0.69959411262E+02 -0.28636744761E+02  0.56290175953E+03  0.59286761708E+03  0.17005657332E+03 0.  0.
        -24    2    5    5    0    0 -0.21122511708E+02  0.55137689451E+01  0.20199355746E+03  0.21905082425E+03  0.81885921885E+02 0.  0.
          5    1    3    3  501    0 -0.91186131812E+02  0.24853170026E+02 -0.49723473020E+02  0.10689763545E+03  0.47000000000E+01 0. -1.
        -13    1    4    4    0    0  0.49308457534E+02  0.14925695193E+02  0.35399812729E+01  0.51639440632E+02  0.00000000000E+00 0.  1.
         14    1    4    4    0    0 -0.28081736984E+02 -0.11142120457E+02  0.10060468368E+02  0.31842484579E+02  0.00000000000E+00 0. -1.
         -5    1    5    5    0  502  0.91081922970E+02 -0.34150513707E+02  0.36090820207E+03  0.37381679282E+03  0.47000000000E+01 0.  1.
         13    1    6    6    0    0  0.30039667342E+02  0.13169730220E+02  0.86078948963E+02  0.92116279032E+02  0.00000000000E+00 0. -1.
        -14    1    6    6    0    0 -0.51162179050E+02 -0.76559612747E+01  0.11591460850E+03  0.12693454522E+03  0.00000000000E+00 0.  1.
</event>
<event>
12    1  0.1598254E-001  0.1980995E+03  0.7818608E-02  0.1152161E+00
         21   -1    0    0  503  502  0.00000000000E+00  0.00000000000E+00  0.83990305046E+02  0.83990305046E+02  0.00000000000E+00 0. -1.
         21   -1    0    0  501  503 -0.00000000000E+00 -0.00000000000E+00 -0.70907047088E+03  0.70907047088E+03  0.00000000000E+00 0.  1.
          6    2    1    2  501    0 -0.66029822483E+02 -0.54615623171E+02 -0.54635233789E+03  0.57989069243E+03  0.17444063260E+03 0.  0.
         24    2    3    3    0    0 -0.10282106146E+03 -0.22320269111E+02 -0.47629467804E+03  0.49429425055E+03  0.79998879412E+02 0.  0.
         -6    2    1    2    0  502  0.66029822483E+02  0.54615623171E+02 -0.78727827940E+02  0.21317008349E+03  0.17860741824E+03 0.  0.
        -24    2    5    5    0    0  0.51506663528E+02  0.67286510718E+02  0.14993038623E+02  0.11737256595E+03  0.79819277860E+02 0.  0.
          5    1    3    3  501    0  0.36791238973E+02 -0.32295354060E+02 -0.70057659853E+02  0.85596441884E+02  0.47000000000E+01 0. -1.
        -13    1    4    4    0    0 -0.75498026435E+02 -0.33064027335E+02 -0.19820160566E+03  0.21465567401E+03  0.00000000000E+00 0.  1.
         14    1    4    4    0    0 -0.27323035021E+02  0.10743758224E+02 -0.27809307238E+03  0.27963857654E+03  0.00000000000E+00 0. -1.
         -5    1    5    5    0  502  0.14523158955E+02 -0.12670887547E+02 -0.93720866563E+02  0.95797517539E+02  0.47000000000E+01 0.  1.
         13    1    6    6    0    0  0.82284124807E+01  0.60936050012E+02 -0.16272402979E+02  0.63605817829E+02  0.00000000000E+00 0. -1.
        -14    1    6    6    0    0  0.43278251048E+02  0.63504607059E+01  0.31265441602E+02  0.53766748121E+02  0.00000000000E+00 0.  1.
</event>
<event>
12    1  0.1598254E-001  0.2089415E+03  0.7818608E-02  0.1142475E+00
         21   -1    0    0  501  502  0.00000000000E+00  0.00000000000E+00  0.38486873099E+02  0.38486873099E+02  0.00000000000E+00 0.  1.
         21   -1    0    0  502  503 -0.00000000000E+00 -0.00000000000E+00 -0.13853794348E+04  0.13853794348E+04  0.00000000000E+00 0. -1.
         -6    2    1    2    0  503  0.11812204987E+03 -0.10987720439E+02 -0.97807250237E+03  0.10001411805E+04  0.17199712907E+03 0.  0.
        -24    2    3    3    0    0  0.31942829376E+02 -0.36974762777E+02 -0.73837171182E+03  0.74405380596E+03  0.77690436511E+02 0.  0.
          6    2    1    2  501    0 -0.11812204987E+03  0.10987720439E+02 -0.36882005931E+03  0.42372512736E+03  0.17158437791E+03 0.  0.
         24    2    5    5    0    0  0.61931227608E+01  0.16665269604E+02 -0.16904731029E+03  0.18831540377E+03  0.81053144293E+02 0.  0.
          5    1    5    5  501    0 -0.12431517263E+03 -0.56775491648E+01 -0.19977274902E+03  0.23540972359E+03  0.47000000000E+01 0. -1.
        -11    1    6    6    0    0  0.38610034889E+02  0.20436653093E+02 -0.58246624229E+02  0.72808384255E+02  0.00000000000E+00 0.  1.
         12    1    6    6    0    0 -0.32416912128E+02 -0.37713834890E+01 -0.11080068606E+03  0.11550701951E+03  0.00000000000E+00 0. -1.
         -5    1    3    3    0  503  0.86179220494E+02  0.25987042338E+02 -0.23970079055E+03  0.25608737456E+03  0.47000000000E+01 0.  1.
         11    1    4    4    0    0  0.39243107453E+02  0.12354947523E+02 -0.38223799407E+03  0.38444577033E+03  0.00000000000E+00 0. -1.
        -12    1    4    4    0    0 -0.73002780770E+01 -0.49329710301E+02 -0.35613371775E+03  0.35960803564E+03  0.00000000000E+00 0.  1.
</event>
<event>
12    1  0.1598254E-001  0.2166352E+03  0.7818608E-02  0.1136752E+00
         21   -1    0    0  501  502  0.00000000000E+00  0.00000000000E+00  0.49888052059E+03  0.49888052059E+03  0.00000000000E+00 0.  1.
         21   -1    0    0  502  503 -0.00000000000E+00 -0.00000000000E+00 -0.10485851865E+03  0.10485851865E+03  0.00000000000E+00 0.  1.
         -6    2    1    2    0  503 -0.98336803219E+02  0.86392519263E+02  0.96123727215E+02  0.23539928122E+03  0.17040908548E+03 0.  0.
        -24    2    3    3    0    0 -0.93743903249E+02  0.10199880674E+02  0.17118795137E+02  0.12544346192E+03  0.80938569480E+02 0.  0.
          6    2    1    2  501    0  0.98336803219E+02 -0.86392519263E+02  0.29789827473E+03  0.36833975802E+03  0.17261807843E+03 0.  0.
         24    2    5    5    0    0 -0.36725468637E+00 -0.24655199295E+02  0.19783793341E+03  0.21475541758E+03  0.79824982032E+02 0.  0.
          5    1    5    5  501    0  0.98704057905E+02 -0.61737319967E+02  0.10006034132E+03  0.15358434044E+03  0.47000000000E+01 0. -1.
        -11    1    6    6    0    0  0.13723543413E+02 -0.91334761666E+01  0.19239063388E+03  0.19309560336E+03  0.00000000000E+00 0.  1.
         12    1    6    6    0    0 -0.14090798100E+02 -0.15521723129E+02  0.54472995257E+01  0.21659814221E+02  0.00000000000E+00 0. -1.
         -5    1    3    3    0  503 -0.45928999697E+01  0.76192638589E+02  0.79004932079E+02  0.10995581930E+03  0.47000000000E+01 0.  1.
         11    1    4    4    0    0 -0.23406314824E+02  0.21831653885E+02 -0.26768008427E+02  0.41725327561E+02  0.00000000000E+00 0. -1.
        -12    1    4    4    0    0 -0.70337588425E+02 -0.11631773211E+02  0.43886803563E+02  0.83718134359E+02  0.00000000000E+00 0.  1.
</event>
<event>
12    1  0.1598254E-001  0.1824289E+03  0.7818608E-02  0.1165581E+00
         21   -1    0    0  501  502  0.00000000000E+00  0.00000000000E+00  0.31664479009E+02  0.31664479009E+02  0.00000000000E+00 0. -1.
         21   -1    0    0  502  503 -0.00000000000E+00 -0.00000000000E+00 -0.13743533347E+04  0.13743533347E+04  0.00000000000E+00 0. -1.
         -6    2    1    2    0  503 -0.28585114851E+02  0.53274168549E+02 -0.10143417271E+04  0.10306160465E+04  0.17211929047E+03 0.  0.
        -24    2    3    3    0    0 -0.61518631348E+02  0.13538041239E+01 -0.40621156738E+03  0.41936755210E+03  0.84112611968E+02 0.  0.
          6    2    1    2  501    0  0.28585114851E+02 -0.53274168549E+02 -0.32834712850E+03  0.37540176712E+03  0.17163742055E+03 0.  0.
         24    2    5    5    0    0  0.13380689793E+02 -0.27699253233E+02 -0.47346158012E+02  0.92790928238E+02  0.73635631292E+02 0.  0.
          5    1    5    5  501    0  0.15204425058E+02 -0.25574915316E+02 -0.28100097049E+03  0.28261083888E+03  0.47000000000E+01 0. -1.
        -13    1    6    6    0    0  0.74434126127E+01  0.21052715183E+02 -0.36035503373E+02  0.42393144625E+02  0.00000000000E+00 0.  1.
         14    1    6    6    0    0  0.59372771802E+01 -0.48751968416E+02 -0.11310654639E+02  0.50397783613E+02  0.00000000000E+00 0. -1.
         -5    1    3    3    0  503  0.32933516498E+02  0.51920364426E+02 -0.60813015976E+03  0.61124849445E+03  0.47000000000E+01 0.  1.
         11    1    4    4    0    0 -0.44582182584E+02  0.40027336657E+02 -0.27801410511E+03  0.28439690807E+03  0.00000000000E+00 0. -1.
        -12    1    4    4    0    0 -0.16936448764E+02 -0.38673532533E+02 -0.12819746227E+03  0.13497064402E+03  0.00000000000E+00 0.  1.
</event>
<event>
12    1  0.1598254E-001  0.2237036E+03  0.7818608E-02  0.1132224E+00
         21   -1    0    0  501  502  0.00000000000E+00  0.00000000000E+00  0.17230497832E+03  0.17230497832E+03  0.00000000000E+00 0.  1.
         21   -1    0    0  502  503 -0.00000000000E+00 -0.00000000000E+00 -0.30709273841E+03  0.30709273841E+03  0.00000000000E+00 0.  1.
         -6    2    1    2    0  503 -0.48413855997E+02 -0.12368874745E+03 -0.10162751439E+01  0.22370594796E+03  0.18000141844E+03 0.  0.
        -24    2    3    3    0    0  0.81978911775E+01  0.10005395141E+01  0.26296454855E+02  0.83990582228E+02  0.79339195017E+02 0.  0.
          6    2    1    2  501    0  0.48413855997E+02  0.12368874745E+03 -0.13377148495E+03  0.25569176876E+03  0.17274450129E+03 0.  0.
         24    2    5    5    0    0  0.97258599029E+02  0.95372923255E+02 -0.79349054432E+02  0.17713296426E+03  0.80774903351E+02 0.  0.
          5    1    5    5  501    0 -0.48844743032E+02  0.28315824199E+02 -0.54422430517E+02  0.78558804505E+02  0.47000000000E+01 0. -1.
        -13    1    6    6    0    0  0.26516680903E+02  0.50149433019E+02 -0.73668414549E+02  0.92979219724E+02  0.00000000000E+00 0.  1.
         14    1    6    6    0    0  0.70741918126E+02  0.45223490236E+02 -0.56806398833E+01  0.84153744532E+02  0.00000000000E+00 0. -1.
         -5    1    3    3    0  503 -0.56611747174E+02 -0.12468928697E+03 -0.27312729999E+02  0.13971536574E+03  0.47000000000E+01 0.  1.
         13    1    4    4    0    0  0.70314856455E+01 -0.45015174588E+01 -0.28094907477E+02  0.29309201217E+02  0.00000000000E+00 0. -1.
        -14    1    4    4    0    0  0.11664055320E+01  0.55020569729E+01  0.54391362333E+02  0.54681381011E+02  0.00000000000E+00 0.  1.
</event>
<event>
12    1  0.1598254E-001  0.1973663E+03  0.7818608E-02  0.1152139E+00
         21   -1    0    0  503  502  0.00000000000E+00  0.00000000000E+00  0.12514778952E+03  0.12514778952E+03  0.00000000000E+00 0. -1.
         21   -1    0    0  501  503 -0.00000000000E+00 -0.00000000000E+00 -0.44403653935E+03  0.44403653935E+03  0.00000000000E+00 0.  1.
          6    2    1    2  501    0  0.69926612533E+02  0.64713105144E+02 -0.31595725841E+03  0.37253516030E+03  0.17284657764E+03 0.  0.
         24    2    3    3    0    0 -0.28856611746E+02  0.35700583155E+02 -0.12074275615E+03  0.15178497633E+03  0.79703388874E+02 0.  0.
         -6    2    1    2    0  502 -0.69926612533E+02 -0.64713105144E+02 -0.29314914175E+01  0.19664916857E+03  0.17200228120E+03 0.  0.
        -24    2    5    5    0    0 -0.13194868158E+02 -0.91019270869E+02 -0.18361304378E+02  0.13206841057E+03  0.92985565318E+02 0.  0.
          5    1    3    3  501    0  0.98783224279E+02  0.29012521989E+02 -0.19521450226E+03  0.22075018397E+03  0.47000000000E+01 0. -1.
        -11    1    4    4    0    0  0.21571020528E+02  0.30030404481E+02 -0.74316064469E+02  0.83006093500E+02  0.00000000000E+00 0.  1.
         12    1    4    4    0    0 -0.50427632275E+02  0.56701786747E+01 -0.46426691678E+02  0.68778882829E+02  0.00000000000E+00 0. -1.
         -5    1    5    5    0  502 -0.56731744375E+02  0.26306165725E+02  0.15429812960E+02  0.64580757993E+02  0.47000000000E+01 0.  1.
         11    1    6    6    0    0 -0.82970178875E+01 -0.10636248515E+03 -0.31548378836E+02  0.11125250092E+03  0.00000000000E+00 0. -1.
        -12    1    6    6    0    0 -0.48978502702E+01  0.15343214285E+02  0.13187074458E+02  0.20815909652E+02  0.00000000000E+00 0.  1.
</event>
<event>
12    1  0.1598254E-001  0.1767974E+03  0.7818608E-02  0.1170995E+00
         21   -1    0    0  501  502  0.00000000000E+00  0.00000000000E+00  0.24663452384E+03  0.24663452384E+03  0.00000000000E+00 0. -1.
         21   -1    0    0  502  503 -0.00000000000E+00 -0.00000000000E+00 -0.25178880879E+03  0.25178880879E+03  0.00000000000E+00 0. -1.
         -6    2    1    2    0  503 -0.10269901531E+02  0.17404148289E+02 -0.17832222215E+03  0.25110982146E+03  0.17563869809E+03 0.  0.
        -24    2    3    3    0    0  0.16162906623E+02  0.55401193950E+02 -0.17783706988E+03  0.20458247252E+03  0.83050784459E+02 0.  0.
          6    2    1    2  501    0  0.10269901531E+02 -0.17404148289E+02  0.17316793720E+03  0.24731351118E+03  0.17540941560E+03 0.  0.
         24    2    5    5    0    0 -0.74689268792E+01 -0.77431863950E+02  0.93548986298E+02  0.14592682554E+03  0.80571379236E+02 0.  0.
          5    1    5    5  501    0  0.17738828410E+02  0.60027715661E+02  0.79618950903E+02  0.10138668563E+03  0.47000000000E+01 0. -1.
        -13    1    6    6    0    0  0.94782455395E+01  0.15150215291E+02  0.14409450183E+02  0.22956446076E+02  0.00000000000E+00 0.  1.
         14    1    6    6    0    0 -0.16947172419E+02 -0.92582079241E+02  0.79139536115E+02  0.12297037947E+03  0.00000000000E+00 0. -1.
         -5    1    3    3    0  503 -0.26432808154E+02 -0.37997045662E+02 -0.48515226796E+00  0.46527348932E+02  0.47000000000E+01 0.  1.
         11    1    4    4    0    0 -0.30201110912E+02  0.79084110186E+01 -0.33931681194E+02  0.46108665713E+02  0.00000000000E+00 0. -1.
        -12    1    4    4    0    0  0.46364017535E+02  0.47492782932E+02 -0.14390538869E+03  0.15847380681E+03  0.00000000000E+00 0.  1.
</event>
<event>
12    1  0.1598254E-001  0.2080625E+03  0.7818608E-02  0.1144074E+00
         21   -1    0    0  503  502  0.00000000000E+00  0.00000000000E+00  0.33895495539E+02  0.33895495539E+02  0.00000000000E+00 0. -1.
         21   -1    0    0  501  503 -0.00000000000E+00 -0.00000000000E+00 -0.17783853980E+04  0.17783853980E+04  0.00000000000E+00 0. -1.
          6    2    1    2  501    0  0.73000862337E+02  0.74096649618E+02 -0.13740758161E+04  0.13897389462E+04  0.18019586814E+03 0.  0.
         24    2    3    3    0    0  0.37639695356E+02  0.11507350070E+03 -0.80394262915E+03  0.81702308709E+03  0.80896950717E+02 0.  0.
         -6    2    1    2    0  502 -0.73000862337E+02 -0.74096649618E+02 -0.37041408635E+03  0.42254194730E+03  0.17468732774E+03 0.  0.
        -24    2    5    5    0    0 -0.53928182792E+02  0.23181285334E+02 -0.13618982020E+03  0.16816061821E+03  0.79276134506E+02 0.  0.
          5    1    3    3  501    0  0.35361166981E+02 -0.40976851087E+02 -0.57013318691E+03  0.57271585911E+03  0.47000000000E+01 0. -1.
        -13    1    4    4    0    0  0.19934505779E+02  0.33759637810E+02 -0.88991511801E+02  0.97244983615E+02  0.00000000000E+00 0.  1.
         14    1    4    4    0    0  0.17705189577E+02  0.81313862895E+02 -0.71495111735E+03  0.71977810347E+03  0.00000000000E+00 0. -1.
         -5    1    5    5    0  502 -0.19072679545E+02 -0.97277934952E+02 -0.23422426615E+03  0.25438132909E+03  0.47000000000E+01 0.  1.
         11    1    6    6    0    0 -0.52352895010E+02 -0.16012369665E+02 -0.10354893041E+03  0.11713070727E+03  0.00000000000E+00 0. -1.
        -12    1    6    6    0    0 -0.15752877817E+01  0.39193654998E+02 -0.32640889791E+02  0.51029910935E+02  0.00000000000E+00 0.  1.
</event>
<event>
12    1  0.1598254E-001  0.1783238E+03  0.7818608E-02  0.1169967E+00
         21   -1    0    0  503  502  0.00000000000E+00  0.00000000000E+00  0.39308817276E+02  0.39308817276E+02  0.00000000000E+00 0. -1.
         21   -1    0    0  501  503 -0.00000000000E+00 -0.00000000000E+00 -0.11547686976E+04  0.11547686976E+04  0.00000000000E+00 0.  1.
          6    2    1    2  501    0  0.40968521733E+02 -0.27567796060E+02 -0.88667113233E+03  0.90400221302E+03  0.16910322612E+03 0.  0.
         24    2    3    3    0    0  0.48301974948E+02  0.44615568119E+02 -0.50192416375E+03  0.51244565589E+03  0.79680953690E+02 0.  0.
         -6    2    1    2    0  502 -0.40968521733E+02  0.27567796060E+02 -0.22878874804E+03  0.29007530190E+03  0.17135047823E+03 0.  0.
        -24    2    5    5    0    0 -0.79880672908E+02 -0.10172218936E+02 -0.19316279151E+03  0.22503867361E+03  0.82741432506E+02 0.  0.
          5    1    3    3  501    0 -0.73334532147E+01 -0.72183364179E+02 -0.38474696858E+03  0.39155655713E+03  0.47000000000E+01 0. -1.
        -11    1    4    4    0    0  0.46009404090E+02  0.10881020313E+02 -0.43403416756E+03  0.43660155804E+03  0.00000000000E+00 0.  1.
         12    1    4    4    0    0  0.22925708574E+01  0.33734547805E+02 -0.67889996186E+02  0.75844097852E+02  0.00000000000E+00 0. -1.
         -5    1    5    5    0  502  0.38912151174E+02  0.37740014996E+02 -0.35625956526E+02  0.65036628290E+02  0.47000000000E+01 0.  1.
         11    1    6    6    0    0  0.84796876064E+01  0.93104315435E+01 -0.99269500119E+00  0.12632287235E+02  0.00000000000E+00 0. -1.
        -12    1    6    6    0    0 -0.88360360514E+02 -0.19482650480E+02 -0.19217009651E+03  0.21240638637E+03  0.00000000000E+00 0.  1.
</event>
<event>
12    1  0.1598254E-001  0.4378521E+03  0.7818608E-02  0.1031473E+00
         21   -1    0    0  503  502  0.00000000000E+00  0.00000000000E+00  0.11303439358E+04  0.11303439358E+04  0.00000000000E+00 0.  1.
         21   -1    0    0  501  503 -0.00000000000E+00 -0.00000000000E+00 -0.17257530452E+03  0.17257530452E+03  0.00000000000E+00 0. -1.
          6    2    1    2  501    0 -0.27492564130E+03 -0.29290379487E+03  0.38845521502E+03  0.58470465543E+03  0.17206201997E+03 0.  0.
         24    2    3    3    0    0 -0.14373869508E+03 -0.20773574906E+03  0.31903292964E+03  0.41351717168E+03  0.73481202894E+02 0.  0.
         -6    2    1    2    0  502  0.27492564130E+03  0.29290379487E+03  0.56931341625E+03  0.71821458488E+03  0.17417715900E+03 0.  0.
        -24    2    5    5    0    0  0.16915909507E+03  0.18660800874E+03  0.24219071616E+03  0.35833028769E+03  0.79416016711E+02 0.  0.
          5    1    3    3  501    0 -0.13118694622E+03 -0.85168045814E+02  0.69422285375E+02  0.17118748375E+03  0.47000000000E+01 0. -1.
        -11    1    4    4    0    0 -0.57462371842E+02 -0.39387732177E+02  0.12121360226E+03  0.13980720652E+03  0.00000000000E+00 0.  1.
         12    1    4    4    0    0 -0.86276323237E+02 -0.16834801688E+03  0.19781932739E+03  0.27370996516E+03  0.00000000000E+00 0. -1.
         -5    1    5    5    0  502  0.10576654623E+03  0.10629578613E+03  0.32712270009E+03  0.35988429719E+03  0.47000000000E+01 0.  1.
         11    1    6    6    0    0  0.59819055056E+01  0.26088892193E+02  0.60271124755E+02  0.65947114938E+02  0.00000000000E+00 0. -1.
        -12    1    6    6    0    0  0.16317718956E+03  0.16051911655E+03  0.18191959140E+03  0.29238317275E+03  0.00000000000E+00 0.  1.
</event>
<event>
12    1  0.1598254E-001  0.1879006E+03  0.7818608E-02  0.1160503E+00
         21   -1    0    0  503  502  0.00000000000E+00  0.00000000000E+00  0.52255217611E+02  0.52255217611E+02  0.00000000000E+00 0.  1.
         21   -1    0    0  501  503 -0.00000000000E+00 -0.00000000000E+00 -0.67515641433E+03  0.67515641433E+03  0.00000000000E+00 0.  1.
          6    2    1    2  501    0 -0.69314407519E+02 -0.21548844723E+02 -0.32867379603E+03  0.37830361835E+03  0.17267982991E+03 0.  0.
         24    2    3    3    0    0 -0.10613095662E+03 -0.13239840368E+02 -0.30734569373E+03  0.33469770374E+03  0.78243875837E+02 0.  0.
         -6    2    1    2    0  502  0.69314407519E+02  0.21548844723E+02 -0.29422740068E+03  0.34910801359E+03  0.17331417150E+03 0.  0.
        -24    2    5    5    0    0  0.53607484729E+02  0.58636953050E+02 -0.28640689357E+03  0.30781048904E+03  0.80039576443E+02 0.  0.
          5    1    3    3  501    0  0.36816549100E+02 -0.83090043556E+01 -0.21328102298E+02  0.43605914606E+02  0.47000000000E+01 0. -1.
        -11    1    4    4    0    0 -0.16703301195E+02 -0.31150193037E+02 -0.13684927376E+03  0.14134022261E+03  0.00000000000E+00 0.  1.
         12    1    4    4    0    0 -0.89427655423E+02  0.17910352669E+02 -0.17049641997E+03  0.19335748114E+03  0.00000000000E+00 0. -1.
         -5    1    5    5    0  502  0.15706922790E+02 -0.37088108326E+02 -0.78205071174E+01  0.41297524554E+02  0.47000000000E+01 0.  1.
         11    1    6    6    0    0 -0.13546328574E+02  0.28007703964E+02 -0.14499495524E+03  0.14829521754E+03  0.00000000000E+00 0. -1.
        -12    1    6    6    0    0  0.67153813303E+02  0.30629249086E+02 -0.14141193833E+03  0.15951527150E+03  0.00000000000E+00 0.  1.
</event>
<event>
12    1  0.1598254E-001  0.1907946E+03  0.7818608E-02  0.1157875E+00
         21   -1    0    0  501  502  0.00000000000E+00  0.00000000000E+00  0.11746717398E+04  0.11746717398E+04  0.00000000000E+00 0.  1.
         21   -1    0    0  502  503 -0.00000000000E+00 -0.00000000000E+00 -0.10956979406E+03  0.10956979406E+03  0.00000000000E+00 0. -1.
         -6    2    1    2    0  503 -0.71060739091E+02 -0.46990370007E+02 -0.11330547793E+02  0.19113069650E+03  0.17071859394E+03 0.  0.
        -24    2    3    3    0    0 -0.89713519735E+02 -0.84679734178E+02 -0.18579509836E+02  0.14819991678E+03  0.79992775566E+02 0.  0.
          6    2    1    2  501    0  0.71060739091E+02  0.46990370007E+02  0.10764324936E+04  0.10931108374E+04  0.17007841159E+03 0.  0.
         24    2    5    5    0    0  0.78336928568E+02  0.67388078511E+02  0.10507148564E+04  0.10591624014E+04  0.84530796462E+02 0.  0.
          5    1    5    5  501    0 -0.72761894763E+01 -0.20397708504E+02  0.25717637182E+02  0.33948436013E+02  0.47000000000E+01 0. -1.
        -11    1    6    6    0    0  0.48019216408E+01  0.11670287430E+02  0.54214464886E+03  0.54229150311E+03  0.00000000000E+00 0.  1.
         12    1    6    6    0    0  0.73535006927E+02  0.55717791081E+02  0.50857020755E+03  0.51687089828E+03  0.00000000000E+00 0. -1.
         -5    1    3    3    0  503  0.18652780644E+02  0.37689364170E+02  0.72489620428E+01  0.42930779727E+02  0.47000000000E+01 0.  1.
         11    1    4    4    0    0 -0.43553035328E+02  0.32828370770E+01  0.10049837081E+02  0.44817888514E+02  0.00000000000E+00 0. -1.
        -12    1    4    4    0    0 -0.46160484408E+02 -0.87962571254E+02 -0.28629346917E+02  0.10338202826E+03  0.00000000000E+00 0.  1.
</event>
<event>
12    1  0.1598254E-001  0.1862664E+03  0.7818608E-02  0.1162113E+00
         21   -1    0    0  503  502  0.00000000000E+00  0.00000000000E+00  0.68157152765E+02  0.68157152765E+02  0.00000000000E+00 0.  1.
         21   -1    0    0  501  503 -0.00000000000E+00 -0.00000000000E+00 -0.54070092805E+03  0.54070092805E+03  0.00000000000E+00 0.  1.
          6    2    1    2  501    0 -0.67047666068E+02  0.21606098191E+02 -0.15877139918E+03  0.24396320112E+03  0.17131104255E+03 0.  0.
         24    2    3    3    0    0 -0.10448570050E+03  0.14917281460E+02 -0.75386457951E+02  0.15219455117E+03  0.79625853001E+02 0.  0.
         -6    2    1    2    0  502  0.67047666068E+02 -0.21606098191E+02 -0.31377237611E+03  0.36489487969E+03  0.17243246856E+03 0.  0.
        -24    2    5    5    0    0  0.62217589873E+02  0.48578711334E+02 -0.22571441923E+03  0.25208738485E+03  0.79813099586E+02 0.  0.
          5    1    3    3  501    0  0.37438034436E+02  0.66888167303E+01 -0.83384941226E+02  0.91768649957E+02  0.47000000000E+01 0. -1.
        -13    1    4    4    0    0 -0.54887323974E+02 -0.25255593147E+01 -0.82517556288E+02  0.99136995509E+02  0.00000000000E+00 0.  1.
         14    1    4    4    0    0 -0.49598376530E+02  0.17442840775E+02  0.71310983371E+01  0.53057555656E+02  0.00000000000E+00 0. -1.
         -5    1    5    5    0  502  0.48300761948E+01 -0.70184809524E+02 -0.88057956873E+02  0.11280749484E+03  0.47000000000E+01 0.  1.
         11    1    6    6    0    0  0.29566866497E+02  0.61143539200E+02 -0.19135967445E+03  0.20305481276E+03  0.00000000000E+00 0. -1.
        -12    1    6    6    0    0  0.32650723376E+02 -0.12564827866E+02 -0.34354744785E+02  0.49032572088E+02  0.00000000000E+00 0.  1.
</event>
<event>
12    1  0.1598254E-001  0.1868233E+03  0.7818608E-02  0.1161530E+00
         21   -1    0    0  503  502  0.00000000000E+00  0.00000000000E+00  0.29061652082E+03  0.29061652082E+03  0.00000000000E+00 0.  1.
         21   -1    0    0  501  503 -0.00000000000E+00 -0.00000000000E+00 -0.14852095317E+03  0.14852095317E+03  0.00000000000E+00 0. -1.
          6    2    1    2  501    0  0.75180608355E+02  0.77266006716E+01 -0.25920188764E+02  0.18787619728E+03  0.17004053954E+03 0.  0.
         24    2    3    3    0    0  0.49716272922E+02  0.63894030273E+02  0.14188082392E+02  0.11416069048E+03  0.79228824753E+02 0.  0.
         -6    2    1    2    0  502 -0.75180608355E+02 -0.77266006716E+01  0.16801575641E+03  0.25126127670E+03  0.17085406211E+03 0.  0.
        -24    2    5    5    0    0 -0.10151156295E+02 -0.37226146826E+02  0.15482731656E+03  0.17849399144E+03  0.79998594034E+02 0.  0.
          5    1    3    3  501    0  0.25464335432E+02 -0.56167429601E+02 -0.40108271156E+02  0.73715506796E+02  0.47000000000E+01 0. -1.
        -11    1    4    4    0    0  0.61388593879E+02  0.69626007520E+02 -0.26789699350E+01  0.92862894966E+02  0.00000000000E+00 0.  1.
         12    1    4    4    0    0 -0.11672320956E+02 -0.57319772473E+01  0.16867052327E+02  0.21297795517E+02  0.00000000000E+00 0. -1.
         -5    1    5    5    0  502 -0.65029452060E+02  0.29499546154E+02  0.13188439853E+02  0.72767285261E+02  0.47000000000E+01 0.  1.
         13    1    6    6    0    0 -0.32880058074E+02 -0.38846672235E+02  0.50461372551E+02  0.71669465481E+02  0.00000000000E+00 0. -1.
        -14    1    6    6    0    0  0.22728901779E+02  0.16205254087E+01  0.10436594401E+03  0.10682452596E+03  0.00000000000E+00 0.  1.
</event>
<event>
12    1  0.1598254E-001  0.2081815E+03  0.7818608E-02  0.1143169E+00
         21   -1    0    0  501  502  0.00000000000E+00  0.00000000000E+00  0.42187520049E+02  0.42187520049E+02  0.00000000000E+00 0. -1.
         21   -1    0    0  502  503 -0.00000000000E+00 -0.00000000000E+00 -0.10264582399E+04  0.10264582399E+04  0.00000000000E+00 0.  1.
         -6    2    1    2    0  503 -0.57481157515E+02 -0.10144170716E+03 -0.51984999556E+03  0.55969963369E+03  0.17153763041E+03 0.  0.
        -24    2    3    3    0    0  0.33724877184E+02 -0.44393058534E+02 -0.17208694604E+03  0.19564700331E+03  0.74536715241E+02 0.  0.
          6    2    1    2  501    0  0.57481157515E+02  0.10144170716E+03 -0.46442072433E+03  0.50894612631E+03  0.17246752410E+03 0.  0.
         24    2    5    5    0    0  0.20680382703E+02  0.71099432429E+02 -0.11966555215E+03  0.16087548777E+03  0.77963264899E+02 0.  0.
          5    1    5    5  501    0  0.36800774812E+02  0.30342274726E+02 -0.34475517218E+03  0.34807063853E+03  0.47000000000E+01 0. -1.
        -13    1    6    6    0    0 -0.25259150319E+02  0.15642059828E+02 -0.61518832739E+02  0.68317387919E+02  0.00000000000E+00 0.  1.
         14    1    6    6    0    0  0.45939533022E+02  0.55457372601E+02 -0.58146719416E+02  0.92558099856E+02  0.00000000000E+00 0. -1.
         -5    1    3    3    0  503 -0.91206034699E+02 -0.57048648621E+02 -0.34776304952E+03  0.36405263038E+03  0.47000000000E+01 0.  1.
         13    1    4    4    0    0 -0.17638524643E+02  0.60100266224E+01 -0.56453974963E+02  0.59449888652E+02  0.00000000000E+00 0. -1.
        -14    1    4    4    0    0  0.51363401827E+02 -0.50403085157E+02 -0.11563297108E+03  0.13619711466E+03  0.00000000000E+00 0.  1.
</event>
<event>
12    1  0.1598254E-001  0.1908694E+03  0.7818608E-02  0.1160744E+00
         21   -1    0    0  503  502  0.00000000000E+00  0.00000000000E+00  0.12034221143E+02  0.12034221143E+02  0.00000000000E+00 0. -1.
         21   -1    0    0  501  503 -0.00000000000E+00 -0.00000000000E+00 -0.29311061937E+04  0.29311061937E+04  0.00000000000E+00 0. -1.
          6    2    1    2  501    0 -0.30174021916E+02 -0.23576256604E+02 -0.16928591286E+04  0.17021613434E+04  0.17353644680E+03 0.  0.
         24    2    3    3    0    0  0.12597031306E+02 -0.76855240628E+02 -0.10877217330E+04  0.10931610391E+04  0.76138530146E+02 0.  0.
         -6    2    1    2    0  502  0.30174021916E+02  0.23576256604E+02 -0.12262128440E+04  0.12409790714E+04  0.18698878438E+03 0.  0.
        -24    2    5    5    0    0 -0.30086906405E+02  0.26596076546E+02 -0.31413202404E+03  0.32689263628E+03  0.81038841948E+02 0.  0.
          5    1    3    3  501    0 -0.42771053222E+02  0.53278984025E+02 -0.60513739557E+03  0.60900030431E+03  0.47000000000E+01 0. -1.
        -11    1    4    4    0    0 -0.12273841478E+02 -0.69640890013E+02 -0.97238564039E+03  0.97495350370E+03  0.00000000000E+00 0.  1.
         12    1    4    4    0    0  0.24870872784E+02 -0.72143506149E+01 -0.11533609260E+03  0.11820753540E+03  0.00000000000E+00 0. -1.
         -5    1    5    5    0  502  0.60260928321E+02 -0.30198199429E+01 -0.91208081992E+03  0.91408643512E+03  0.47000000000E+01 0.  1.
         13    1    6    6    0    0  0.11775577620E+02  0.20495915647E+01 -0.22573334772E+03  0.22604957272E+03  0.00000000000E+00 0. -1.
        -14    1    6    6    0    0 -0.41862484026E+02  0.24546484982E+02 -0.88398676314E+02  0.10084306356E+03  0.00000000000E+00 0.  1.
</event>
<event>
12    1  0.1598254E-001  0.1866286E+03  0.7818608E-02  0.1162135E+00
         21   -1    0    0  501  502  0.00000000000E+00  0.00000000000E+00  0.35223686239E+03  0.35223686239E+03  0.00000000000E+00 0.  1.
         21   -1    0    0  502  503 -0.00000000000E+00 -0.00000000000E+00 -0.88524008390E+03  0.88524008390E+03  0.00000000000E+00 0.  1.
         -6    2    1    2    0  503  0.32632249310E+02  0.57137054395E+02 -0.85036500705E+03  0.87060375207E+03  0.17464461408E+03 0.  0.
        -24    2    3    3    0    0  0.79239894885E+02  0.56125711678E+02 -0.43755476860E+03  0.45514294958E+03  0.79195154984E+02 0.  0.
          6    2    1    2  501    0 -0.32632249310E+02 -0.57137054395E+02  0.31736178554E+03  0.36687319422E+03  0.17189511637E+03 0.  0.
         24    2    5    5    0    0 -0.63052152025E+01 -0.61618844110E+02  0.32264346189E+03  0.33924738619E+03  0.84577466572E+02 0.  0.
          5    1    5    5  501    0 -0.26327034107E+02  0.44817897147E+01 -0.52816763441E+01  0.27625808023E+02  0.47000000000E+01 0. -1.
        -11    1    6    6    0    0 -0.19822885366E+02 -0.27559606464E+02  0.28389036219E+03  0.28591295255E+03  0.00000000000E+00 0.  1.
         12    1    6    6    0    0  0.13517670164E+02 -0.34059237646E+02  0.38753099699E+02  0.53334433642E+02  0.00000000000E+00 0. -1.
         -5    1    3    3    0  503 -0.46607645575E+02  0.10113427172E+01 -0.41281023845E+03  0.41546080250E+03  0.47000000000E+01 0.  1.
         13    1    4    4    0    0 -0.39406340328E+01  0.12646708641E+02 -0.80460840871E+01  0.15498622686E+02  0.00000000000E+00 0. -1.
        -14    1    4    4    0    0  0.83180528918E+02  0.43479003037E+02 -0.42950868451E+03  0.43964432689E+03  0.00000000000E+00 0.  1.
</event>
<event>
12    1  0.1598254E-001  0.1894491E+03  0.7818608E-02  0.1159055E+00
         21   -1    0    0  503  502  0.00000000000E+00  0.00000000000E+00  0.32208464844E+03  0.32208464844E+03  0.00000000000E+00 0. -1.
         21   -1    0    0  501  503 -0.00000000000E+00 -0.00000000000E+00 -0.24922068685E+03  0.24922068685E+03  0.00000000000E+00 0. -1.
          6    2    1    2  501    0  0.52145801125E+02  0.59600559946E+02 -0.17614020708E+03  0.25868190089E+03  0.17210328868E+03 0.  0.
         24    2    3    3    0    0  0.83178238782E+02  0.18152583598E+02 -0.17057616647E+03  0.20639427828E+03  0.79083714121E+02 0.  0.
         -6    2    1    2    0  502 -0.52145801125E+02 -0.59600559946E+02  0.24900416867E+03  0.31262343440E+03  0.17163602302E+03 0.  0.
        -24    2    5    5    0    0  0.19758567744E+02 -0.46117335542E+02  0.69028146708E+02  0.11828997335E+03  0.81917172314E+02 0.  0.
          5    1    3    3  501    0 -0.31032437656E+02  0.41447976348E+02 -0.55640406093E+01  0.52287622609E+02  0.47000000000E+01 0. -1.
        -11    1    4    4    0    0  0.88751890718E+01 -0.67739578036E+01  0.63800971772E+01  0.12859281682E+02  0.00000000000E+00 0.  1.
         12    1    4    4    0    0  0.74303049710E+02  0.24926541401E+02 -0.17695626365E+03  0.19353499660E+03  0.00000000000E+00 0. -1.
         -5    1    5    5    0  502 -0.71904368869E+02 -0.13483224404E+02  0.17997602196E+03  0.19433346105E+03  0.47000000000E+01 0.  1.
         11    1    6    6    0    0 -0.69673711846E+00  0.82466223047E+00  0.67037416325E+02  0.67046108746E+02  0.00000000000E+00 0. -1.
        -12    1    6    6    0    0  0.20455304862E+02 -0.46941997773E+02  0.19907303827E+01  0.51243864602E+02  0.00000000000E+00 0.  1.
</event>
<event>
12    1  0.1598254E-001  0.2269440E+03  0.7818608E-02  0.1128924E+00
         21   -1    0    0  501  502  0.00000000000E+00  0.00000000000E+00  0.68559091371E+02  0.68559091371E+02  0.00000000000E+00 0.  1.
         21   -1    0    0  502  503 -0.00000000000E+00 -0.00000000000E+00 -0.84769605976E+03  0.84769605976E+03  0.00000000000E+00 0. -1.
         -6    2    1    2    0  503  0.36499844566E+02  0.14271414054E+03 -0.54629121495E+03  0.59155528054E+03  0.17263833248E+03 0.  0.
        -24    2    3    3    0    0 -0.44337211855E+02  0.63490294223E+02 -0.31272147323E+03  0.33196336664E+03  0.80050928509E+02 0.  0.
          6    2    1    2  501    0 -0.36499844566E+02 -0.14271414054E+03 -0.23284575344E+03  0.32469987059E+03  0.17179434363E+03 0.  0.
         24    2    5    5    0    0 -0.81099985120E+02 -0.55486025782E+02 -0.14246984370E+03  0.19132891572E+03  0.81567094984E+02 0.  0.
          5    1    5    5  501    0  0.44600140554E+02 -0.87228114758E+02 -0.90375909739E+02  0.13337095487E+03  0.47000000000E+01 0. -1.
        -13    1    6    6    0    0  0.18828283256E+01  0.17249429551E+02 -0.18650255168E+02  0.25473905867E+02  0.00000000000E+00 0.  1.
         14    1    6    6    0    0 -0.82982813445E+02 -0.72735455332E+02 -0.12381958853E+03  0.16585500986E+03  0.00000000000E+00 0. -1.
         -5    1    3    3    0  503  0.80837056421E+02  0.79223846317E+02 -0.23356974172E+03  0.25959191390E+03  0.47000000000E+01 0.  1.
         13    1    4    4    0    0 -0.31596935523E+02  0.71888843807E+02 -0.30483423492E+03  0.31478609083E+03  0.00000000000E+00 0. -1.
        -14    1    4    4    0    0 -0.12740276332E+02 -0.83985495843E+01 -0.78872383079E+01  0.17177275810E+02  0.00000000000E+00 0.  1.
</event>
<event>
12    1  0.1598254E-001  0.2694617E+03  0.7818608E-02  0.1101696E+00
         21   -1    0    0  501  502  0.00000000000E+00  0.00000000000E+00  0.14563971612E+03  0.14563971612E+03  0.00000000000E+00 0. -1.
         21   -1    0    0  502  503 -0.00000000000E+00 -0.00000000000E+00 -0.77389705372E+03  0.77389705372E+03  0.00000000000E+00 0. -1.
         -6    2    1    2    0  503 -0.11057766003E+02 -0.20616752435E+03 -0.58934577390E+03  0.64802625860E+03  0.17315388628E+03 0.  0.
        -24    2    3    3    0    0 -0.39268092151E+02 -0.21981032556E+03 -0.52343313811E+03  0.57489272263E+03  0.81613909224E+02 0.  0.
          6    2    1    2  501    0  0.11057766003E+02  0.20616752435E+03 -0.38911563704E+02  0.27151051124E+03  0.17197827083E+03 0.  0.
         24    2    5    5    0    0  0.40958309764E+02  0.94605619608E+02 -0.82923572241E+02  0.14782038228E+03  0.65929812557E+02 0.  0.
          5    1    5    5  501    0 -0.29900543760E+02  0.11156190474E+03  0.44012008537E+02  0.12369012896E+03  0.47000000000E+01 0. -1.
        -13    1    6    6    0    0  0.50901714076E+01  0.10883884306E+02 -0.49280296599E+02  0.50723923502E+02  0.00000000000E+00 0.  1.
         14    1    6    6    0    0  0.35868138356E+02  0.83721735302E+02 -0.33643275642E+02  0.97096458777E+02  0.00000000000E+00 0. -1.
         -5    1    3    3    0  503  0.28210326148E+02  0.13642801209E+02 -0.65912635793E+02  0.73133535970E+02  0.47000000000E+01 0.  1.
         13    1    4    4    0    0 -0.14866860043E+02 -0.61731958809E+02 -0.25163255088E+03  0.25952032470E+03  0.00000000000E+00 0. -1.
        -14    1    4    4    0    0 -0.24401232109E+02 -0.15807836675E+03 -0.27180058722E+03  0.31537239793E+03  0.00000000000E+00 0.  1.
</event>
<event>
12    1  0.1598254E-001  0.1789573E+03  0.7818608E-02  0.1170506E+00
         21   -1    0    0  501  502  0.00000000000E+00  0.00000000000E+00  0.36212230372E+02  0.36212230372E+02  0.00000000000E+00 0.  1.
         21   -1    0    0  502  503 -0.00000000000E+00 -0.00000000000E+00 -0.13280840495E+04  0.13280840495E+04  0.00000000000E+00 0.  1.
         -6    2    1    2    0  503  0.39523808828E+01  0.31870933942E+02 -0.10626742185E+04  0.10776373343E+04  0.17605212782E+03 0.  0.
        -24    2    3    3    0    0 -0.52648297739E+02  0.50120614246E+02 -0.84301338679E+03  0.85001998287E+03  0.81107840210E+02 0.  0.
          6    2    1    2  501    0 -0.39523808828E+01 -0.31870933942E+02 -0.22919760063E+03  0.28665894564E+03  0.16914618896E+03 0.  0.
         24    2    5    5    0    0  0.33805992692E+02  0.23231055214E+02 -0.18837391859E+03  0.20823326746E+03  0.78700911062E+02 0.  0.
          5    1    5    5  501    0 -0.37758373575E+02 -0.55101989157E+02 -0.40823682033E+02  0.78425678185E+02  0.47000000000E+01 0. -1.
        -11    1    6    6    0    0  0.18907531506E+02 -0.60811646912E+01 -0.31454197216E+01  0.20108927790E+02  0.00000000000E+00 0.  1.
         12    1    6    6    0    0  0.14898461187E+02  0.29312219906E+02 -0.18522849887E+03  0.18812433967E+03  0.00000000000E+00 0. -1.
         -5    1    3    3    0  503  0.56600678622E+02 -0.18249680304E+02 -0.21966083176E+03  0.22761735141E+03  0.47000000000E+01 0.  1.
         11    1    4    4    0    0 -0.45508796788E+02 -0.56116931996E+01 -0.23611485714E+03  0.24052602239E+03  0.00000000000E+00 0. -1.
        -12    1    4    4    0    0 -0.71395009510E+01  0.55732307446E+02 -0.60689852965E+03  0.60949396048E+03  0.00000000000E+00 0.  1.
</event>
<event>
12    1  0.1598254E-001  0.1926359E+03  0.7818608E-02  0.1156483E+00
         21   -1    0    0  503  502  0.00000000000E+00  0.00000000000E+00  0.10641715724E+03  0.10641715724E+03  0.00000000000E+00 0.  1.
         21   -1    0    0  501  503 -0.00000000000E+00 -0.00000000000E+00 -0.55475066961E+03  0.55475066961E+03  0.00000000000E+00 0. -1.
          6    2    1    2  501    0 -0.15482316737E+02 -0.84909977840E+02 -0.42774835460E+03  0.46912390361E+03  0.17221839510E+03 0.  0.
         24    2    3    3    0    0 -0.41542496787E+02 -0.17705329999E+02 -0.11599583948E+03  0.14911246888E+03  0.82098939395E+02 0.  0.
         -6    2    1    2    0  502  0.15482316737E+02  0.84909977840E+02 -0.20585157767E+02  0.19204392324E+03  0.17031650907E+03 0.  0.
        -24    2    5    5    0    0  0.69579507100E+02  0.55662725465E+02  0.14864930843E+02  0.12090528002E+03  0.80358408102E+02 0.  0.
          5    1    3    3  501    0  0.26060180050E+02 -0.67204647841E+02 -0.31175251512E+03  0.32001143474E+03  0.47000000000E+01 0. -1.
        -13    1    4    4    0    0 -0.89893759882E+01  0.19916119698E+02  0.11079208692E+01  0.21878944059E+02  0.00000000000E+00 0.  1.
         14    1    4    4    0    0 -0.32553120799E+02 -0.37621449697E+02 -0.11710376035E+03  0.12723352482E+03  0.00000000000E+00 0. -1.
         -5    1    5    5    0  502 -0.54097190363E+02  0.29247252375E+02 -0.35450088610E+02  0.71138643219E+02  0.47000000000E+01 0.  1.
         11    1    6    6    0    0  0.56087739933E+02 -0.51701748688E+00 -0.11726222035E+02  0.57302758756E+02  0.00000000000E+00 0. -1.
        -12    1    6    6    0    0  0.13491767166E+02  0.56179742952E+02  0.26591152877E+02  0.63602521261E+02  0.00000000000E+00 0.  1.
</event>
<event>
12    1  0.1598254E-001  0.2263728E+03  0.7818608E-02  0.1129236E+00
         21   -1    0    0  501  502  0.00000000000E+00  0.00000000000E+00  0.65082166627E+03  0.65082166627E+03  0.00000000000E+00 0.  1.
         21   -1    0    0  502  503 -0.00000000000E+00 -0.00000000000E+00 -0.78845909669E+02  0.78845909669E+02  0.00000000000E+00 0.  1.
         -6    2    1    2    0  503 -0.98244706317E+02  0.10876380686E+03  0.27065601688E+03  0.35284463574E+03  0.17251976553E+03 0.  0.
        -24    2    3    3    0    0 -0.57067459057E+02  0.11670379385E+02  0.20798873037E+03  0.23007665070E+03  0.79265759331E+02 0.  0.
          6    2    1    2  501    0  0.98244706317E+02 -0.10876380686E+03  0.30131973972E+03  0.37682294020E+03  0.17239592428E+03 0.  0.
         24    2    5    5    0    0  0.11708976590E+03 -0.87072443836E+02  0.15370493153E+03  0.22636406509E+03  0.79522702620E+02 0.  0.
          5    1    5    5  501    0 -0.18845059587E+02 -0.21691363026E+02  0.14761480819E+03  0.15045887511E+03  0.47000000000E+01 0. -1.
        -11    1    6    6    0    0  0.68358872923E+02 -0.92777386304E+02  0.12265999270E+03  0.16830345429E+03  0.00000000000E+00 0.  1.
         12    1    6    6    0    0  0.48730892982E+02  0.57049424681E+01  0.31044938825E+02  0.58060610796E+02  0.00000000000E+00 0. -1.
         -5    1    3    3    0  503 -0.41177247261E+02  0.97093427477E+02  0.62667286513E+02  0.12276798504E+03  0.47000000000E+01 0.  1.
         11    1    4    4    0    0 -0.38342265988E+02  0.17820701024E+00  0.24998280384E+02  0.45771990792E+02  0.00000000000E+00 0. -1.
        -12    1    4    4    0    0 -0.18725193068E+02  0.11492172375E+02  0.18299044998E+03  0.18430465991E+03  0.00000000000E+00 0.  1.
</event>
<event>
12    1  0.1598254E-001  0.2019166E+03  0.7818608E-02  0.1149314E+00
         21   -1    0    0  501  502  0.00000000000E+00  0.00000000000E+00  0.53716347009E+03  0.53716347009E+03  0.00000000000E+00 0.  1.
         21   -1    0    0  502  503 -0.00000000000E+00 -0.00000000000E+00 -0.67725403457E+03  0.67725403457E+03  0.00000000000E+00 0. -1.
         -6    2    1    2    0  503 -0.10541913417E+03 -0.55585600549E+01 -0.64309685451E+03  0.67239755008E+03  0.16553189914E+03 0.  0.
        -24    2    3    3    0    0 -0.34421541327E+02  0.52562100688E+02 -0.44507058443E+03  0.45409692471E+03  0.64564502410E+02 0.  0.
          6    2    1    2  501    0  0.10541913417E+03  0.55585600549E+01  0.50300629003E+03  0.54201995459E+03  0.17212266534E+03 0.  0.
         24    2    5    5    0    0  0.26365805651E+02  0.28976158894E+02  0.38863329317E+03  0.40094874883E+03  0.90494691184E+02 0.  0.
          5    1    5    5  501    0  0.79053328515E+02 -0.23417598839E+02  0.11437299686E+03  0.14107120576E+03  0.47000000000E+01 0. -1.
        -11    1    6    6    0    0  0.58047127477E+02  0.51842091828E+01  0.25443456608E+03  0.26102354961E+03  0.00000000000E+00 0.  1.
         12    1    6    6    0    0 -0.31681321826E+02  0.23791949711E+02  0.13419872709E+03  0.13992519922E+03  0.00000000000E+00 0. -1.
         -5    1    3    3    0  503 -0.70997592840E+02 -0.58120660742E+02 -0.19802627008E+03  0.21830062537E+03  0.47000000000E+01 0.  1.
         13    1    4    4    0    0 -0.52020823072E+02  0.25836809515E+02 -0.28960587415E+03  0.29537310152E+03  0.00000000000E+00 0. -1.
        -14    1    4    4    0    0  0.17599281746E+02  0.26725291172E+02 -0.15546471028E+03  0.15872382319E+03  0.00000000000E+00 0.  1.
</event>
<event>
12    1  0.1598254E-001  0.2193851E+03  0.7818608E-02  0.1135005E+00
         21   -1    0    0  501  502  0.00000000000E+00  0.00000000000E+00  0.14082991245E+04  0.14082991245E+04  0.00000000000E+00 0. -1.
         21   -1    0    0  502  503 -0.00000000000E+00 -0.00000000000E+00 -0.35198207054E+02  0.35198207054E+02  0.00000000000E+00 0. -1.
         -6    2    1    2    0  503 -0.90112940087E+02 -0.99721340019E+02  0.53954159859E+03  0.58243880510E+03  0.17339301442E+03 0.  0.
        -24    2    3    3    0    0  0.12767981658E+02 -0.42686509597E+02  0.32247733888E+03  0.33550472729E+03  0.81158046337E+02 0.  0.
          6    2    1    2  501    0  0.90112940087E+02  0.99721340019E+02  0.83355931890E+03  0.86105852650E+03  0.16892590182E+03 0.  0.
         24    2    5    5    0    0  0.40026792681E+02  0.26613186515E+02  0.65503743393E+03  0.66169559693E+03  0.80353079142E+02 0.  0.
          5    1    5    5  501    0  0.50086147406E+02  0.73108153503E+02  0.17852188498E+03  0.19936292957E+03  0.47000000000E+01 0. -1.
        -11    1    6    6    0    0  0.48111273894E+02  0.30492748370E+02  0.24400059156E+03  0.25056095278E+03  0.00000000000E+00 0.  1.
         12    1    6    6    0    0 -0.80844812124E+01 -0.38795618550E+01  0.41103684237E+03  0.41113464415E+03  0.00000000000E+00 0. -1.
         -5    1    3    3    0  503 -0.10288092175E+03 -0.57034830422E+02  0.21706425971E+03  0.24693407781E+03  0.47000000000E+01 0.  1.
         11    1    4    4    0    0 -0.25558217108E+02 -0.42982398855E+02  0.13080780038E+03  0.14004067164E+03  0.00000000000E+00 0. -1.
        -12    1    4    4    0    0  0.38326198766E+02  0.29588925803E+00  0.19166953849E+03  0.19546405564E+03  0.00000000000E+00 0.  1.
</event>
<event>
12    1  0.1598254E-001  0.2252693E+03  0.7818608E-02  0.1130617E+00
         21   -1    0    0  501  502  0.00000000000E+00  0.00000000000E+00  0.10950530920E+04  0.10950530920E+04  0.00000000000E+00 0.  1.
         21   -1    0    0  502  503 -0.00000000000E+00 -0.00000000000E+00 -0.46764335720E+02  0.46764335720E+02  0.00000000000E+00 0.  1.
         -6    2    1    2    0  503 -0.66246671497E+02 -0.12618849619E+03  0.43277244067E+03  0.48637361417E+03  0.17016212594E+03 0.  0.
        -24    2    3    3    0    0  0.25962102381E+01 -0.91683869804E+02  0.14760289636E+03  0.19095243922E+03  0.79142572238E+02 0.  0.
          6    2    1    2  501    0  0.66246671497E+02  0.12618849619E+03  0.61551631556E+03  0.65544381350E+03  0.17445371843E+03 0.  0.
         24    2    5    5    0    0  0.35490187854E+01  0.81199485531E+02  0.17740221710E+03  0.21056061533E+03  0.79109254288E+02 0.  0.
          5    1    5    5  501    0  0.62697652712E+02  0.44989010663E+02  0.43811409846E+03  0.44488319816E+03  0.47000000000E+01 0. -1.
        -11    1    6    6    0    0  0.93896483861E+01 -0.61283436246E+00  0.90785320823E+02  0.91271657921E+02  0.00000000000E+00 0.  1.
         12    1    6    6    0    0 -0.58406296007E+01  0.81812319893E+02  0.86616896275E+02  0.11928895741E+03  0.00000000000E+00 0. -1.
         -5    1    3    3    0  503 -0.68842881735E+02 -0.34504626390E+02  0.28516954432E+03  0.29542117496E+03  0.47000000000E+01 0.  1.
         13    1    4    4    0    0  0.37137061170E+02 -0.51528798865E+02  0.10611215108E+03  0.12366958814E+03  0.00000000000E+00 0. -1.
        -14    1    4    4    0    0 -0.34540850932E+02 -0.40155070939E+02  0.41490745281E+02  0.67282851078E+02  0.00000000000E+00 0.  1.
</event>
<event>
12    1  0.1598254E-001  0.2315319E+03  0.7818608E-02  0.1125575E+00
         21   -1    0    0  501  502  0.00000000000E+00  0.00000000000E+00  0.10197469409E+03  0.10197469409E+03  0.00000000000E+00 0.  1.
         21   -1    0    0  502  503 -0.00000000000E+00 -0.00000000000E+00 -0.65145573757E+03  0.65145573757E+03  0.00000000000E+00 0.  1.
         -6    2    1    2    0  503  0.12741337438E+03 -0.87495110524E+02 -0.44031096502E+03  0.49745162985E+03  0.17232183780E+03 0.  0.
        -24    2    3    3    0    0  0.14404864876E+03 -0.29171005651E+02 -0.35890652796E+03  0.39582876856E+03  0.79155274171E+02 0.  0.
          6    2    1    2  501    0 -0.12741337438E+03  0.87495110524E+02 -0.10917007846E+03  0.25597880181E+03  0.17238758252E+03 0.  0.
         24    2    5    5    0    0 -0.15366829198E+03  0.98117690598E+02 -0.11120954451E+03  0.22719670100E+03  0.77522596604E+02 0.  0.
          5    1    5    5  501    0  0.26254917596E+02 -0.10622580074E+02  0.20394660529E+01  0.28782100813E+02  0.47000000000E+01 0. -1.
        -13    1    6    6    0    0 -0.10599899496E+03  0.75671541264E+02 -0.35558305794E+02  0.13500504509E+03  0.00000000000E+00 0.  1.
         14    1    6    6    0    0 -0.47669297023E+02  0.22446149335E+02 -0.75651238721E+02  0.92191655906E+02  0.00000000000E+00 0. -1.
         -5    1    3    3    0  503 -0.16635274374E+02 -0.58324104873E+02 -0.81404437060E+02  0.10162286129E+03  0.47000000000E+01 0.  1.
         11    1    4    4    0    0  0.21189546922E+02  0.16500760824E+02 -0.23374857503E+02  0.35604156637E+02  0.00000000000E+00 0. -1.
        -12    1    4    4    0    0  0.12285910184E+03 -0.45671766475E+02 -0.33553167046E+03  0.36022461193E+03  0.00000000000E+00 0.  1.
</event>
<event>
12    1  0.1598254E-001  0.1797675E+03  0.7818608E-02  0.1168196E+00
         21   -1    0    0  503  502  0.00000000000E+00  0.00000000000E+00  0.19407674936E+03  0.19407674936E+03  0.00000000000E+00 0.  1.
         21   -1    0    0  501  503 -0.00000000000E+00 -0.00000000000E+00 -0.31124083815E+03  0.31124083815E+03  0.00000000000E+00 0.  1.
          6    2    1    2  501    0 -0.31692859277E+02 -0.42447632340E+02 -0.23131164743E+03  0.29295293101E+03  0.17178504804E+03 0.  0.
         24    2    3    3    0    0 -0.64668013933E+02 -0.57214626337E+02 -0.89107160678E+02  0.14615500531E+03  0.77238164150E+02 0.  0.
         -6    2    1    2    0  502  0.31692859277E+02  0.42447632340E+02  0.11414755863E+03  0.21236465650E+03  0.17106385758E+03 0.  0.
        -24    2    5    5    0    0  0.29575451262E+02 -0.13408849237E+02  0.12741275192E+03  0.15472365284E+03  0.81553018580E+02 0.  0.
          5    1    3    3  501    0  0.32975154656E+02  0.14766993998E+02 -0.14220448675E+03  0.14679792569E+03  0.47000000000E+01 0. -1.
        -11    1    4    4    0    0 -0.15992795927E+02 -0.14462530918E+02 -0.77366849582E+02  0.80315401614E+02  0.00000000000E+00 0.  1.
         12    1    4    4    0    0 -0.48675218006E+02 -0.42752095420E+02 -0.11740311096E+02  0.65839603700E+02  0.00000000000E+00 0. -1.
         -5    1    5    5    0  502  0.21174080149E+01  0.55856481577E+02 -0.13265193290E+02  0.57641003668E+02  0.47000000000E+01 0.  1.
         13    1    6    6    0    0 -0.26696247266E+02  0.62119879737E+01  0.31001966399E+02  0.41381159158E+02  0.00000000000E+00 0. -1.
        -14    1    6    6    0    0  0.56271698528E+02 -0.19620837211E+02  0.96410785523E+02  0.11334249368E+03  0.00000000000E+00 0.  1.
</event>
<event>
12    1  0.1598254E-001  0.2699884E+03  0.7818608E-02  0.1101337E+00
         21   -1    0    0  501  502  0.00000000000E+00  0.00000000000E+00  0.10995980620E+04  0.10995980620E+04  0.00000000000E+00 0.  1.
         21   -1    0    0  502  503 -0.00000000000E+00 -0.00000000000E+00 -0.66584557178E+02  0.66584557178E+02  0.00000000000E+00 0.  1.
         -6    2    1    2    0  503  0.17613754703E+03  0.11056698500E+03  0.56027579575E+03  0.62177958891E+03  0.17161409100E+03 0.  0.
        -24    2    3    3    0    0  0.96389121991E+02  0.47195113415E+01  0.36381450419E+03  0.38475083948E+03  0.79743829792E+02 0.  0.
          6    2    1    2  501    0 -0.17613754703E+03 -0.11056698500E+03  0.47273770903E+03  0.54440303022E+03  0.17217498116E+03 0.  0.
         24    2    5    5    0    0 -0.14479860496E+03 -0.11670480970E+02  0.28454816370E+03  0.32946107813E+03  0.80461844454E+02 0.  0.
          5    1    5    5  501    0 -0.31338942065E+02 -0.98896504034E+02  0.18818954533E+03  0.21494195210E+03  0.47000000000E+01 0. -1.
        -11    1    6    6    0    0 -0.37860231830E+02 -0.28684347187E+02  0.14652128783E+03  0.15402816858E+03  0.00000000000E+00 0.  1.
         12    1    6    6    0    0 -0.10693837313E+03  0.17013866217E+02  0.13802687586E+03  0.17543290955E+03  0.00000000000E+00 0. -1.
         -5    1    3    3    0  503  0.79748425037E+02  0.10584747366E+03  0.19646129156E+03  0.23702874943E+03  0.47000000000E+01 0.  1.
         13    1    4    4    0    0 -0.10981276282E+02 -0.52906651169E+01  0.83937464324E+02  0.84817907799E+02  0.00000000000E+00 0. -1.
        -14    1    4    4    0    0  0.10737039827E+03  0.10010176458E+02  0.27987703987E+03  0.29993293168E+03  0.00000000000E+00 0.  1.
</event>
<event>
12    1  0.1598254E-001  0.2007413E+03  0.7818608E-02  0.1151950E+00
         21   -1    0    0  501  502  0.00000000000E+00  0.00000000000E+00  0.12885828716E+04  0.12885828716E+04  0.00000000000E+00 0.  1.
         21   -1    0    0  502  503 -0.00000000000E+00 -0.00000000000E+00 -0.34729178654E+02  0.34729178654E+02  0.00000000000E+00 0.  1.
         -6    2    1    2    0  503 -0.31118759850E+02 -0.75028565255E+02  0.87127016346E+03  0.89126200724E+03  0.16922944483E+03 0.  0.
        -24    2    3    3    0    0 -0.57355863947E+02  0.90279304725E+01  0.46191007613E+03  0.47251190132E+03  0.80841695970E+02 0.  0.
          6    2    1    2  501    0  0.31118759850E+02  0.75028565255E+02  0.38258352946E+03  0.43205004299E+03  0.18357401726E+03 0.  0.
         24    2    5    5    0    0 -0.48222542403E+02  0.60874014132E+02  0.27671278979E+03  0.29891065333E+03  0.82137393717E+02 0.  0.
          5    1    5    5  501    0  0.79341302253E+02  0.14154551123E+02  0.10587073967E+03  0.13313938966E+03  0.47000000000E+01 0. -1.
        -11    1    6    6    0    0 -0.30591393493E+02  0.26096487755E+01  0.24000482101E+02  0.38970075233E+02  0.00000000000E+00 0.  1.
         12    1    6    6    0    0 -0.17631148910E+02  0.58264365356E+02  0.25271230769E+03  0.25994057810E+03  0.00000000000E+00 0. -1.
         -5    1    3    3    0  503  0.26237104097E+02 -0.84056495727E+02  0.40936008733E+03  0.41875010592E+03  0.47000000000E+01 0.  1.
         11    1    4    4    0    0 -0.16305367598E+02 -0.12936534596E+02  0.22532738906E+02  0.30674798491E+02  0.00000000000E+00 0. -1.
        -12    1    4    4    0    0 -0.41050496349E+02  0.21964465069E+02  0.43937733722E+03  0.44183710283E+03  0.00000000000E+00 0.  1.
</event>
<event>
12    1  0.1598254E-001  0.2459976E+03  0.7818608E-02  0.1115968E+00
         21   -1    0    0  503  502  0.00000000000E+00  0.00000000000E+00  0.57584024910E+02  0.57584024910E+02  0.00000000000E+00 0.  1.
         21   -1    0    0  501  503 -0.00000000000E+00 -0.00000000000E+00 -0.15774237569E+04  0.15774237569E+04  0.00000000000E+00 0. -1.
          6    2    1    2  501    0 -0.66764524070E+02  0.16097550418E+03 -0.12328152804E+04  0.12569894581E+04  0.17267995700E+03 0.  0.
         24    2    3    3    0    0 -0.79445138911E+02  0.60348365127E+02 -0.48367690778E+03  0.50100201743E+03  0.84298369383E+02 0.  0.
         -6    2    1    2    0  502  0.66764524070E+02 -0.16097550418E+03 -0.28702445158E+03  0.37801832371E+03  0.17362085887E+03 0.  0.
        -24    2    5    5    0    0  0.16788079994E-01 -0.35160819185E+02 -0.17980041550E+03  0.19968246323E+03  0.79426778976E+02 0.  0.
          5    1    3    3  501    0  0.12680614841E+02  0.10062713905E+03 -0.74913837264E+03  0.75598744068E+03  0.47000000000E+01 0. -1.
        -13    1    4    4    0    0  0.10106456816E+02  0.10887108779E+02 -0.17885505149E+03  0.17947088636E+03  0.00000000000E+00 0.  1.
         14    1    4    4    0    0 -0.89551595727E+02  0.49461256348E+02 -0.30482185629E+03  0.32153113107E+03  0.00000000000E+00 0. -1.
         -5    1    5    5    0  502  0.66747735990E+02 -0.12581468499E+03 -0.10722403608E+03  0.17833586048E+03  0.47000000000E+01 0.  1.
         13    1    6    6    0    0  0.35086944223E+02 -0.35240195746E+02 -0.12602773790E+03  0.13548415321E+03  0.00000000000E+00 0. -1.
        -14    1    6    6    0    0 -0.35070156143E+02  0.79376561169E-01 -0.53772677596E+02  0.64198310012E+02  0.00000000000E+00 0.  1.
</event>
<event>
12    1  0.1598254E-001  0.2010225E+03  0.7818608E-02  0.1149138E+00
         21   -1    0    0  503  502  0.00000000000E+00  0.00000000000E+00  0.26233406268E+03  0.26233406268E+03  0.00000000000E+00 0. -1.
         21   -1    0    0  501  503 -0.00000000000E+00 -0.00000000000E+00 -0.41148725120E+03  0.41148725120E+03  0.00000000000E+00 0. -1.
          6    2    1    2  501    0  0.15976423899E+02 -0.99048995231E+02 -0.34163902580E+03  0.39639283372E+03  0.17419559437E+03 0.  0.
         24    2    3    3    0    0 -0.57425897824E+02 -0.75298468329E+02 -0.18521181699E+03  0.22191203243E+03  0.77291266716E+02 0.  0.
         -6    2    1    2    0  502 -0.15976423899E+02  0.99048995231E+02  0.19248583728E+03  0.27742848016E+03  0.17277098852E+03 0.  0.
        -24    2    5    5    0    0 -0.28875470639E+02 -0.38687173494E+01  0.42177293355E+02  0.94745176750E+02  0.79680390712E+02 0.  0.
          5    1    3    3  501    0  0.73402321723E+02 -0.23750526902E+02 -0.15642720881E+03  0.17448080129E+03  0.47000000000E+01 0. -1.
        -13    1    4    4    0    0 -0.25687054683E+02 -0.62945322698E+02 -0.17274909391E+03  0.18564532817E+03  0.00000000000E+00 0.  1.
         14    1    4    4    0    0 -0.31738843141E+02 -0.12353145632E+02 -0.12462723087E+02  0.36266704257E+02  0.00000000000E+00 0. -1.
         -5    1    5    5    0  502  0.12899046740E+02  0.10291771258E+03  0.15030854392E+03  0.18268330341E+03  0.47000000000E+01 0.  1.
         13    1    6    6    0    0 -0.55133535993E+02 -0.12293619623E+02  0.34216918004E+02  0.66042693405E+02  0.00000000000E+00 0. -1.
        -14    1    6    6    0    0  0.26258065353E+02  0.84249022738E+01  0.79603753510E+01  0.28702483345E+02  0.00000000000E+00 0.  1.
</event>
<event>
12    1  0.1598254E-001  0.2519003E+03  0.7818608E-02  0.1112154E+00
         21   -1    0    0  503  502  0.00000000000E+00  0.00000000000E+00  0.48112731011E+03  0.48112731011E+03  0.00000000000E+00 0. -1.
         21   -1    0    0  501  503 -0.00000000000E+00 -0.00000000000E+00 -0.13185114877E+03  0.13185114877E+03  0.00000000000E+00 0.  1.
          6    2    1    2  501    0 -0.52591691617E+02  0.17591030710E+03  0.18352184554E+03  0.31143536369E+03  0.17205056173E+03 0.  0.
         24    2    3    3    0    0 -0.15107497590E+02  0.47930626112E+02  0.14568128806E+03  0.17273474603E+03  0.78029951879E+02 0.  0.
         -6    2    1    2    0  502  0.52591691617E+02 -0.17591030710E+03  0.16575431580E+03  0.30154309519E+03  0.17246281593E+03 0.  0.
        -24    2    5    5    0    0  0.43051242241E+02 -0.17495135468E+03  0.19167431700E+03  0.27350961117E+03  0.74880422297E+02 0.  0.
          5    1    3    3  501    0 -0.37484194028E+02  0.12797968099E+03  0.37840557474E+02  0.13870061766E+03  0.47000000000E+01 0. -1.
        -11    1    4    4    0    0 -0.42693817210E+02  0.45667595976E+02  0.11828845312E+03  0.13379256142E+03  0.00000000000E+00 0.  1.
         12    1    4    4    0    0  0.27586319620E+02  0.22630301357E+01  0.27392834941E+02  0.38942184603E+02  0.00000000000E+00 0. -1.
         -5    1    5    5    0  502  0.95404493762E+01 -0.95895242318E+00 -0.25920001199E+02  0.28033484018E+02  0.47000000000E+01 0.  1.
         13    1    6    6    0    0 -0.17527899698E+02 -0.67694844126E+02  0.88746723476E+02  0.11298584034E+03  0.00000000000E+00 0. -1.
        -14    1    6    6    0    0  0.60579141939E+02 -0.10725651056E+03  0.10292759352E+03  0.16052377083E+03  0.00000000000E+00 0.  1.
</event>
<event>
12    1  0.1598254E-001  0.2616267E+03  0.7818608E-02  0.1106217E+00
         21   -1    0    0  501  502  0.00000000000E+00  0.00000000000E+00  0.63966471477E+03  0.63966471477E+03  0.00000000000E+00 0. -1.
         21   -1    0    0  502  503 -0.00000000000E+00 -0.00000000000E+00 -0.11376664370E+03  0.11376664370E+03  0.00000000000E+00 0. -1.
         -6    2    1    2    0  503 -0.45519824233E+02 -0.19271023508E+03  0.35580976894E+03  0.44164363752E+03  0.17099480048E+03 0.  0.
        -24    2    3    3    0    0  0.36588027258E+02 -0.12127087819E+03  0.17423845896E+03  0.22989966099E+03  0.80308803431E+02 0.  0.
          6    2    1    2  501    0  0.45519824233E+02  0.19271023508E+03  0.17008830213E+03  0.31178772094E+03  0.17050590402E+03 0.  0.
         24    2    5    5    0    0 -0.39771365929E+02  0.93447601090E+02  0.89376933704E+02  0.15795640872E+03  0.81533889153E+02 0.  0.
          5    1    5    5  501    0  0.85291190161E+02  0.99262633989E+02  0.80711368429E+02  0.15383131222E+03  0.47000000000E+01 0. -1.
        -11    1    6    6    0    0 -0.14107461471E+02  0.22433467894E+02 -0.13974696081E+02  0.29959524053E+02  0.00000000000E+00 0.  1.
         12    1    6    6    0    0 -0.25663904458E+02  0.71014133196E+02  0.10335162978E+03  0.12799688467E+03  0.00000000000E+00 0. -1.
         -5    1    3    3    0  503 -0.82107851491E+02 -0.71439356890E+02  0.18157130998E+03  0.21174397653E+03  0.47000000000E+01 0.  1.
         13    1    4    4    0    0  0.17010074110E+02 -0.12561243622E+03  0.13126936211E+03  0.18248142969E+03  0.00000000000E+00 0. -1.
        -14    1    4    4    0    0  0.19577953148E+02  0.43415580281E+01  0.42969096853E+02  0.47418231303E+02  0.00000000000E+00 0.  1.
</event>
<event>
12    1  0.1598254E-001  0.2208875E+03  0.7818608E-02  0.1133260E+00
         21   -1    0    0  501  502  0.00000000000E+00  0.00000000000E+00  0.13554315979E+04  0.13554315979E+04  0.00000000000E+00 0. -1.
         21   -1    0    0  502  503 -0.00000000000E+00 -0.00000000000E+00 -0.36350339399E+02  0.36350339399E+02  0.00000000000E+00 0.  1.
         -6    2    1    2    0  503 -0.13109139537E+03  0.47328261728E+02  0.58755735090E+03  0.62763633132E+03  0.17111050666E+03 0.  0.
        -24    2    3    3    0    0 -0.69867443777E+02 -0.39120836694E+02  0.34505357590E+03  0.36296296704E+03  0.79172252948E+02 0.  0.
          6    2    1    2  501    0  0.13109139537E+03 -0.47328261728E+02  0.73152390757E+03  0.76414560595E+03  0.17136616193E+03 0.  0.
         24    2    5    5    0    0  0.55928728530E+02 -0.54588038608E+02  0.21409015868E+03  0.24120975393E+03  0.78991598992E+02 0.  0.
          5    1    5    5  501    0  0.75162666844E+02  0.72597768799E+01  0.51743374888E+03  0.52293585202E+03  0.47000000000E+01 0. -1.
        -11    1    6    6    0    0  0.37322241329E+02 -0.53497072021E+02  0.21274776913E+03  0.22252303181E+03  0.00000000000E+00 0.  1.
         12    1    6    6    0    0  0.18606487200E+02 -0.10909665866E+01  0.13423895507E+01  0.18686722124E+02  0.00000000000E+00 0. -1.
         -5    1    3    3    0  503 -0.61223951597E+02  0.86449098422E+02  0.24250377500E+03  0.26467336427E+03  0.47000000000E+01 0.  1.
         11    1    4    4    0    0 -0.71050220196E+02 -0.48998709712E+02  0.34175073207E+03  0.35248059552E+03  0.00000000000E+00 0. -1.
        -12    1    4    4    0    0  0.11827764196E+01  0.98778730185E+01  0.33028438304E+01  0.10482371525E+02  0.00000000000E+00 0.  1.
</event>
<event>
12    1  0.1598254E-001  0.1862561E+03  0.7818608E-02  0.1162101E+00
         21   -1    0    0  501  502  0.00000000000E+00  0.00000000000E+00  0.14366787006E+03  0.14366787006E+03  0.00000000000E+00 0. -1.
         21   -1    0    0  502  503 -0.00000000000E+00 -0.00000000000E+00 -0.40044728064E+03  0.40044728064E+03  0.00000000000E+00 0. -1.
         -6    2    1    2    0  503  0.14286024104E+02  0.69835813732E+02 -0.30026889353E+03  0.35284915369E+03  0.17105550407E+03 0.  0.
        -24    2    3    3    0    0 -0.18020418734E+02  0.10739761407E+03 -0.20302826810E+03  0.24361351698E+03  0.79171238522E+02 0.  0.
          6    2    1    2  501    0 -0.14286024104E+02 -0.69835813732E+02  0.43489482948E+02  0.19126599701E+03  0.17207618987E+03 0.  0.
         24    2    5    5    0    0  0.38473442401E+02  0.82416692222E+01  0.33018656948E+02  0.96337693286E+02  0.81502077024E+02 0.  0.
          5    1    5    5  501    0 -0.52759466505E+02 -0.78077482954E+02  0.10470826000E+02  0.94928303721E+02  0.47000000000E+01 0. -1.
        -13    1    6    6    0    0  0.29190916339E+01  0.13267393594E+02  0.53364432462E+02  0.55066391572E+02  0.00000000000E+00 0.  1.
         14    1    6    6    0    0  0.35554350767E+02 -0.50257243719E+01 -0.20345775514E+02  0.41271301714E+02  0.00000000000E+00 0. -1.
         -5    1    3    3    0  503  0.32306442838E+02 -0.37561800337E+02 -0.97240625432E+02  0.10923563671E+03  0.47000000000E+01 0.  1.
         11    1    4    4    0    0  0.20362703274E+02  0.38244854677E+02 -0.28116234213E+02  0.51651052460E+02  0.00000000000E+00 0. -1.
        -12    1    4    4    0    0 -0.38383122007E+02  0.69152759392E+02 -0.17491203389E+03  0.19196246452E+03  0.00000000000E+00 0.  1.
</event>
<event>
12    1  0.1598254E-001  0.1980512E+03  0.7818608E-02  0.1152512E+00
         21   -1    0    0  501  502  0.00000000000E+00  0.00000000000E+00  0.10764439719E+03  0.10764439719E+03  0.00000000000E+00 0.  1.
         21   -1    0    0  502  503 -0.00000000000E+00 -0.00000000000E+00 -0.52349072165E+03  0.52349072165E+03  0.00000000000E+00 0. -1.
         -6    2    1    2    0  503 -0.62330733401E+02  0.72953708769E+02 -0.38510705963E+03  0.43071262682E+03  0.16732768921E+03 0.  0.
        -24    2    3    3    0    0 -0.36737252204E+02  0.11382880069E+03 -0.28962936185E+03  0.32364311579E+03  0.80951081427E+02 0.  0.
          6    2    1    2  501    0  0.62330733401E+02 -0.72953708769E+02 -0.30739264839E+02  0.20042249202E+03  0.17325388583E+03 0.  0.
         24    2    5    5    0    0  0.30264237389E+02 -0.28007401464E+02  0.50010411670E+02  0.10248868293E+03  0.79388602780E+02 0.  0.
          5    1    5    5  501    0  0.32066496012E+02 -0.44946307304E+02 -0.80749676509E+02  0.97933809091E+02  0.47000000000E+01 0. -1.
        -13    1    6    6    0    0  0.57070370645E+02 -0.21896999475E+02  0.27833277571E+02  0.67165445966E+02  0.00000000000E+00 0.  1.
         14    1    6    6    0    0 -0.26806133256E+02 -0.61104019899E+01  0.22177134100E+02  0.35323236962E+02  0.00000000000E+00 0. -1.
         -5    1    3    3    0  503 -0.25593481197E+02 -0.40875091923E+02 -0.95477697778E+02  0.10706951103E+03  0.47000000000E+01 0.  1.
         13    1    4    4    0    0  0.11746134384E+02  0.74147544818E+02 -0.20524255645E+03  0.21854138522E+03  0.00000000000E+00 0. -1.
        -14    1    4    4    0    0 -0.48483386588E+02  0.39681255874E+02 -0.84386805402E+02  0.10510173057E+03  0.00000000000E+00 0.  1.
</event>
<event>
12    1  0.1598254E-001  0.2154929E+03  0.7818608E-02  0.1137296E+00
         21   -1    0    0  503  502  0.00000000000E+00  0.00000000000E+00  0.18397761111E+03  0.18397761111E+03  0.00000000000E+00 0. -1.
         21   -1    0    0  501  503 -0.00000000000E+00 -0.00000000000E+00 -0.29807454149E+03  0.29807454149E+03  0.00000000000E+00 0. -1.
          6    2    1    2  501    0 -0.11336450689E+02 -0.12888938340E+03 -0.15144042610E+03  0.26338449609E+03  0.17232585951E+03 0.  0.
         24    2    3    3    0    0  0.31979871915E+02 -0.65185240438E+02 -0.20297766100E+02  0.11121679615E+03  0.81763981421E+02 0.  0.
         -6    2    1    2    0  502  0.11336450689E+02  0.12888938340E+03  0.37343495720E+02  0.21866765650E+03  0.17227889905E+03 0.  0.
        -24    2    5    5    0    0  0.17598581929E+02  0.14214559704E+03 -0.13127218136E+02  0.16590095824E+03  0.82678432782E+02 0.  0.
          5    1    3    3  501    0 -0.43316322604E+02 -0.63704142966E+02 -0.13114266000E+03  0.15216769995E+03  0.47000000000E+01 0. -1.
        -11    1    4    4    0    0 -0.63833226196E+01  0.17167935284E+02 -0.58300524887E+01  0.19221714846E+02  0.00000000000E+00 0.  1.
         12    1    4    4    0    0  0.38363194535E+02 -0.82353175722E+02 -0.14467713612E+02  0.91995081301E+02  0.00000000000E+00 0. -1.
         -5    1    5    5    0  502 -0.62621312397E+01 -0.13256213634E+02  0.50470713857E+02  0.52766698255E+02  0.47000000000E+01 0.  1.
         13    1    6    6    0    0 -0.20989370351E+02  0.11747381135E+03 -0.13525731048E+02  0.12009827401E+03  0.00000000000E+00 0. -1.
        -14    1    6    6    0    0  0.38587952280E+02  0.24671785689E+02  0.39851291121E+00  0.45802684231E+02  0.00000000000E+00 0.  1.
</event>
<event>
12    1  0.1598254E-001  0.1805621E+03  0.7818608E-02  0.1167340E+00
         21   -1    0    0  503  502  0.00000000000E+00  0.00000000000E+00  0.27633586977E+03  0.27633586977E+03  0.00000000000E+00 0. -1.
         21   -1    0    0  501  503 -0.00000000000E+00 -0.00000000000E+00 -0.18483666939E+03  0.18483666939E+03  0.00000000000E+00 0.  1.
          6    2    1    2  501    0  0.19195236830E+02 -0.52423526548E+02 -0.93126079978E+02  0.20316287916E+03  0.17171489581E+03 0.  0.
         24    2    3    3    0    0  0.23131627574E+02 -0.14352558640E+02  0.17092085102E+02  0.86393757883E+02  0.80191482680E+02 0.  0.
         -6    2    1    2    0  502 -0.19195236830E+02  0.52423526548E+02  0.18462528036E+03  0.25800966001E+03  0.17136454492E+03 0.  0.
        -24    2    5    5    0    0 -0.22213582099E+02 -0.23243367776E+01  0.18262757844E+02  0.82781186737E+02  0.77590919458E+02 0.  0.
          5    1    3    3  501    0 -0.39363907441E+01 -0.38070967908E+02 -0.11021816508E+03  0.11676912127E+03  0.47000000000E+01 0. -1.
        -11    1    4    4    0    0 -0.23744367517E+02  0.94874931372E+01 -0.97304786465E+01  0.27358540339E+02  0.00000000000E+00 0.  1.
         12    1    4    4    0    0  0.46875995091E+02 -0.23840051777E+02  0.26822563748E+02  0.59035217544E+02  0.00000000000E+00 0. -1.
         -5    1    5    5    0  502  0.30183452691E+01  0.54747863326E+02  0.16636252252E+03  0.17522847327E+03  0.47000000000E+01 0.  1.
         11    1    6    6    0    0 -0.34757378272E+01 -0.33815880822E+02  0.28905949120E+02  0.44622286402E+02  0.00000000000E+00 0. -1.
        -12    1    6    6    0    0 -0.18737844272E+02  0.31491544044E+02 -0.10643191276E+02  0.38158900335E+02  0.00000000000E+00 0.  1.
</event>
<event>
12    1  0.1598254E-001  0.2051430E+03  0.7818608E-02  0.1145512E+00
         21   -1    0    0  503  502  0.00000000000E+00  0.00000000000E+00  0.79564692504E+02  0.79564692504E+02  0.00000000000E+00 0. -1.
         21   -1    0    0  501  503 -0.00000000000E+00 -0.00000000000E+00 -0.52885162444E+03  0.52885162444E+03  0.00000000000E+00 0.  1.
          6    2    1    2  501    0 -0.39029862123E+01  0.11133923841E+03 -0.23336292454E+03  0.31057940656E+03  0.17201643504E+03 0.  0.
         24    2    3    3    0    0  0.56528768164E+02  0.98829458070E+02 -0.18835448600E+03  0.23405267215E+03  0.79627115547E+02 0.  0.
         -6    2    1    2    0  502  0.39029862123E+01 -0.11133923841E+03 -0.21592400740E+03  0.29783691038E+03  0.17225559179E+03 0.  0.
        -24    2    5    5    0    0 -0.33691395712E+02 -0.12325966935E+03 -0.11181071228E+03  0.18640485733E+03  0.76922553417E+02 0.  0.
          5    1    3    3  501    0 -0.60431754376E+02  0.12509780337E+02 -0.45008438537E+02  0.76526734418E+02  0.47000000000E+01 0. -1.
        -13    1    4    4    0    0  0.24261656036E+01 -0.13784995585E+02 -0.18529823925E+02  0.23222117851E+02  0.00000000000E+00 0.  1.
         14    1    4    4    0    0  0.54102602560E+02  0.11261445366E+03 -0.16982466207E+03  0.21083055429E+03  0.00000000000E+00 0. -1.
         -5    1    5    5    0  502  0.37594381925E+02  0.11920430940E+02 -0.10411329512E+03  0.11143205305E+03  0.47000000000E+01 0.  1.
         11    1    6    6    0    0  0.22354083369E+02 -0.40722115934E+02 -0.19155803906E+02  0.50248786977E+02  0.00000000000E+00 0. -1.
        -12    1    6    6    0    0 -0.56045479081E+02 -0.82537553412E+02 -0.92654908377E+02  0.13615607036E+03  0.00000000000E+00 0.  1.
</event>
<event>
12    1  0.1598254E-001  0.3223854E+03  0.7818608E-02  0.1074559E+00
         21   -1    0    0  503  502  0.00000000000E+00  0.00000000000E+00  0.11422119774E+03  0.11422119774E+03  0.00000000000E+00 0. -1.
         21   -1    0    0  501  503 -0.00000000000E+00 -0.00000000000E+00 -0.93367262110E+03  0.93367262110E+03  0.00000000000E+00 0. -1.
          6    2    1    2  501    0  0.27187310514E+03  0.18162490544E+02 -0.32604562823E+03  0.45850294121E+03  0.17226239882E+03 0.  0.
         24    2    3    3    0    0  0.27960101943E+03  0.37528115557E+02 -0.27373879382E+03  0.40199769351E+03  0.84167266900E+02 0.  0.
         -6    2    1    2    0  502 -0.27187310514E+03 -0.18162490544E+02 -0.49340579513E+03  0.58939087763E+03  0.17230051252E+03 0.  0.
        -24    2    5    5    0    0 -0.11292849136E+03  0.22088624580E+02 -0.32703913758E+03  0.35575976399E+03  0.79810153937E+02 0.  0.
          5    1    3    3  501    0 -0.77279142961E+01 -0.19365625013E+02 -0.52306834411E+02  0.56505247700E+02  0.47000000000E+01 0. -1.
        -11    1    4    4    0    0  0.68792291966E+02 -0.21919453885E+02 -0.43859008367E+02  0.84477538479E+02  0.00000000000E+00 0.  1.
         12    1    4    4    0    0  0.21080872746E+03  0.59447569442E+02 -0.22987978546E+03  0.31752015503E+03  0.00000000000E+00 0. -1.
         -5    1    5    5    0  502 -0.15894461378E+03 -0.40251115124E+02 -0.16636665755E+03  0.23363111364E+03  0.47000000000E+01 0.  1.
         13    1    6    6    0    0 -0.11573775395E+03  0.52978958581E+01 -0.23326875631E+03  0.26045653775E+03  0.00000000000E+00 0. -1.
        -14    1    6    6    0    0  0.28092625946E+01  0.16790728722E+02 -0.93770381272E+02  0.95303226237E+02  0.00000000000E+00 0.  1.
</event>
<event>
12    1  0.1598254E-001  0.2442917E+03  0.7818608E-02  0.1117191E+00
         21   -1    0    0  501  502  0.00000000000E+00  0.00000000000E+00  0.82300574481E+02  0.82300574481E+02  0.00000000000E+00 0.  1.
         21   -1    0    0  502  503 -0.00000000000E+00 -0.00000000000E+00 -0.73668389220E+03  0.73668389220E+03  0.00000000000E+00 0.  1.
         -6    2    1    2    0  503  0.14005970386E+03  0.10055350670E+03 -0.26843614908E+03  0.36295510662E+03  0.17306274855E+03 0.  0.
        -24    2    3    3    0    0  0.94348557618E+02  0.21575192129E+02 -0.23399884445E+03  0.26530726479E+03  0.79153940569E+02 0.  0.
          6    2    1    2  501    0 -0.14005970386E+03 -0.10055350670E+03 -0.38594716864E+03  0.45602936006E+03  0.17111350588E+03 0.  0.
         24    2    5    5    0    0 -0.36460836590E+02 -0.44643510744E+02 -0.28874767268E+03  0.30329270773E+03  0.72724221741E+02 0.  0.
          5    1    5    5  501    0 -0.10359886727E+03 -0.55909995959E+02 -0.97199495956E+02  0.15273665232E+03  0.47000000000E+01 0. -1.
        -13    1    6    6    0    0 -0.14415766776E+02  0.18138728757E+02 -0.11343447610E+03  0.11577654418E+03  0.00000000000E+00 0.  1.
         14    1    6    6    0    0 -0.22045069814E+02 -0.62782239502E+02 -0.17531319658E+03  0.18751616356E+03  0.00000000000E+00 0. -1.
         -5    1    3    3    0  503  0.45711146247E+02  0.78978314575E+02 -0.34437304630E+02  0.97647841832E+02  0.47000000000E+01 0.  1.
         11    1    4    4    0    0  0.52363834050E+02 -0.11312036378E+01 -0.41060402925E+02  0.66552290918E+02  0.00000000000E+00 0. -1.
        -12    1    4    4    0    0  0.41984723568E+02  0.22706395766E+02 -0.19293844152E+03  0.19875497387E+03  0.00000000000E+00 0.  1.
</event>
<event>
12    1  0.1598254E-001  0.2555216E+03  0.7818608E-02  0.1110153E+00
         21   -1    0    0  503  502  0.00000000000E+00  0.00000000000E+00  0.32066598686E+02  0.32066598686E+02  0.00000000000E+00 0.  1.
         21   -1    0    0  501  503 -0.00000000000E+00 -0.00000000000E+00 -0.22167598458E+04  0.22167598458E+04  0.00000000000E+00 0. -1.
          6    2    1    2  501    0 -0.15547543303E+03 -0.11124750358E+03 -0.75473800458E+03  0.79622075685E+03  0.16670159194E+03 0.  0.
         24    2    3    3    0    0 -0.95876585585E+02 -0.21046383426E+02 -0.55368838370E+03  0.56789794864E+03  0.79385035779E+02 0.  0.
         -6    2    1    2    0  502  0.15547543303E+03  0.11124750358E+03 -0.14299552426E+04  0.14526056877E+04  0.16953663550E+03 0.  0.
        -24    2    5    5    0    0  0.88497230293E+02  0.54727482994E+02 -0.11859723203E+04  0.11933175300E+04  0.81544623556E+02 0.  0.
          5    1    3    3  501    0 -0.59598847441E+02 -0.90201120154E+02 -0.20104962088E+03  0.22832280821E+03  0.47000000000E+01 0. -1.
        -11    1    4    4    0    0 -0.93431248956E+02 -0.43492866655E+02 -0.43108937933E+03  0.44323704798E+03  0.00000000000E+00 0.  1.
         12    1    4    4    0    0 -0.24453366292E+01  0.22446483228E+02 -0.12259900437E+03  0.12466090066E+03  0.00000000000E+00 0. -1.
         -5    1    5    5    0  502  0.66978202733E+02  0.56520020586E+02 -0.24398292223E+03  0.25928815767E+03  0.47000000000E+01 0.  1.
         13    1    6    6    0    0  0.61480202390E+02  0.75347508036E+02 -0.81152295936E+03  0.81732892755E+03  0.00000000000E+00 0. -1.
        -14    1    6    6    0    0  0.27017027903E+02 -0.20620025042E+02 -0.37444936098E+03  0.37598860244E+03  0.00000000000E+00 0.  1.
</event>
<event>
12    1  0.1598254E-001  0.3967903E+03  0.7818608E-02  0.1044993E+00
         21   -1    0    0  501  502  0.00000000000E+00  0.00000000000E+00  0.17618158481E+04  0.17618158481E+04  0.00000000000E+00 0. -1.
         21   -1    0    0  502  503 -0.00000000000E+00 -0.00000000000E+00 -0.89757332043E+02  0.89757332043E+02  0.00000000000E+00 0.  1.
         -6    2    1    2    0  503  0.33935244790E+03 -0.10861893771E+03  0.91538461256E+03  0.99768307361E+03  0.17459773462E+03 0.  0.
        -24    2    3    3    0    0  0.18949286622E+03 -0.13153810455E+03  0.60186210719E+03  0.64939923275E+03  0.79193106580E+02 0.  0.
          6    2    1    2  501    0 -0.33935244790E+03  0.10861893771E+03  0.75667390349E+03  0.85389010653E+03  0.17208939618E+03 0.  0.
         24    2    5    5    0    0 -0.20549393670E+03  0.30757263066E+02  0.31272379134E+03  0.38368341424E+03  0.79012818188E+02 0.  0.
          5    1    5    5  501    0 -0.13385851120E+03  0.77861674641E+02  0.44395011215E+03  0.47020669229E+03  0.47000000000E+01 0. -1.
        -13    1    6    6    0    0 -0.90287102328E+02 -0.24253927717E+01  0.19854037276E+03  0.21811905692E+03  0.00000000000E+00 0.  1.
         14    1    6    6    0    0 -0.11520683437E+03  0.33182655838E+02  0.11418341858E+03  0.16556435731E+03  0.00000000000E+00 0. -1.
         -5    1    3    3    0  503  0.14985958168E+03  0.22919166847E+02  0.31352250538E+03  0.34828384087E+03  0.47000000000E+01 0.  1.
         11    1    4    4    0    0  0.18021966212E+03 -0.11923900488E+03  0.59403955958E+03  0.63212345728E+03  0.00000000000E+00 0. -1.
        -12    1    4    4    0    0  0.92732041027E+01 -0.12299099670E+02  0.78225476117E+01  0.17275775472E+02  0.00000000000E+00 0.  1.
</event>
<event>
12    1  0.1598254E-001  0.2184966E+03  0.7818608E-02  0.1135222E+00
         21   -1    0    0  503  502  0.00000000000E+00  0.00000000000E+00  0.13056161292E+03  0.13056161292E+03  0.00000000000E+00 0.  1.
         21   -1    0    0  501  503 -0.00000000000E+00 -0.00000000000E+00 -0.37939698391E+03  0.37939698391E+03  0.00000000000E+00 0. -1.
          6    2    1    2  501    0  0.13579272444E+03  0.36465653013E+01 -0.17585796600E+03  0.27959700855E+03  0.16969237324E+03 0.  0.
         24    2    3    3    0    0  0.11185666782E+03 -0.49645565244E+02 -0.80177777260E+02  0.16739284418E+03  0.81334445549E+02 0.  0.
         -6    2    1    2    0  502 -0.13579272444E+03 -0.36465653013E+01 -0.72977404978E+02  0.23036158828E+03  0.17113678234E+03 0.  0.
        -24    2    5    5    0    0 -0.86923030265E+02  0.42088215646E+02  0.54908087730E+01  0.12711785837E+03  0.82472843093E+02 0.  0.
          5    1    3    3  501    0  0.23936056617E+02  0.53292130546E+02 -0.95680188744E+02  0.11220416437E+03  0.47000000000E+01 0. -1.
        -13    1    4    4    0    0  0.12186642144E+03 -0.31692290989E+02 -0.73389211537E+02  0.14574567696E+03  0.00000000000E+00 0.  1.
         14    1    4    4    0    0 -0.10009753622E+02 -0.17953274255E+02 -0.67885657230E+01  0.21647167220E+02  0.00000000000E+00 0. -1.
         -5    1    5    5    0  502 -0.48869694171E+02 -0.45734780948E+02 -0.78468213751E+02  0.10324372991E+03  0.47000000000E+01 0.  1.
         11    1    6    6    0    0  0.10508770351E+02 -0.59032877422E+01 -0.12115528258E+02  0.17090028830E+02  0.00000000000E+00 0. -1.
        -12    1    6    6    0    0 -0.97431800616E+02  0.47991503388E+02  0.17606337031E+02  0.11002782954E+03  0.00000000000E+00 0.  1.
</event>
<event>
12    1  0.1598254E-001  0.2378425E+03  0.7818608E-02  0.1121338E+00
         21   -1    0    0  501  502  0.00000000000E+00  0.00000000000E+00  0.17065728549E+03  0.17065728549E+03  0.00000000000E+00 0.  1.
         21   -1    0    0  502  503 -0.00000000000E+00 -0.00000000000E+00 -0.34273233410E+03  0.34273233410E+03  0.00000000000E+00 0.  1.
         -6    2    1    2    0  503  0.83358491698E+02  0.14179204634E+03 -0.13412221175E+03  0.27253805624E+03  0.17098129100E+03 0.  0.
        -24    2    3    3    0    0  0.70204799057E+02  0.81642077787E+02 -0.11461136191E+02  0.13521046322E+03  0.80971408816E+02 0.  0.
          6    2    1    2  501    0 -0.83358491698E+02 -0.14179204634E+03 -0.37952836856E+02  0.24085156334E+03  0.17180056809E+03 0.  0.
         24    2    5    5    0    0 -0.10658329928E+03 -0.16070049015E+03 -0.33608950713E+02  0.21022673222E+03  0.76688135648E+02 0.  0.
          5    1    5    5  501    0  0.23224807584E+02  0.18908443811E+02 -0.43438861432E+01  0.30624831126E+02  0.47000000000E+01 0. -1.
        -13    1    6    6    0    0 -0.72753847321E+01 -0.58529234762E+02  0.12847410566E+02  0.60362724451E+02  0.00000000000E+00 0.  1.
         14    1    6    6    0    0 -0.99307914550E+02 -0.10217125539E+03 -0.46456361279E+02  0.14986400777E+03  0.00000000000E+00 0. -1.
         -5    1    3    3    0  503  0.13153692642E+02  0.60149968554E+02 -0.12266107556E+03  0.13732759302E+03  0.47000000000E+01 0.  1.
         11    1    4    4    0    0  0.53884383763E+02  0.27547606907E+02 -0.39363857087E+02  0.72193564150E+02  0.00000000000E+00 0. -1.
        -12    1    4    4    0    0  0.16320415294E+02  0.54094470880E+02  0.27902720896E+02  0.63016899071E+02  0.00000000000E+00 0.  1.
</event>
<event>
12    1  0.1598254E-001  0.1820319E+03  0.7818608E-02  0.1166253E+00
         21   -1    0    0  501  502  0.00000000000E+00  0.00000000000E+00  0.18034654387E+03  0.18034654387E+03  0.00000000000E+00 0.  1.
         21   -1    0    0  502  503 -0.00000000000E+00 -0.00000000000E+00 -0.50067104908E+03  0.50067104908E+03  0.00000000000E+00 0.  1.
         -6    2    1    2    0  503  0.57719320301E+01 -0.57105526128E+02 -0.43153160291E+03  0.46770409908E+03  0.17097731917E+03 0.  0.
        -24    2    3    3    0    0 -0.46087332893E+02  0.13674178319E+02 -0.25449402589E+03  0.27005910522E+03  0.76509383042E+02 0.  0.
          6    2    1    2  501    0 -0.57719320301E+01  0.57105526128E+02  0.11120709771E+03  0.21331349387E+03  0.17274626413E+03 0.  0.
         24    2    5    5    0    0 -0.69394901544E+02  0.34982696534E+02  0.86206313361E+02  0.14131050048E+03  0.80608235714E+02 0.  0.
          5    1    5    5  501    0  0.63622969514E+02  0.22122829594E+02  0.25000784348E+02  0.72002993389E+02  0.47000000000E+01 0. -1.
        -11    1    6    6    0    0 -0.62704826593E+02 -0.12163009300E+02  0.55784929538E+02  0.84804436422E+02  0.00000000000E+00 0.  1.
         12    1    6    6    0    0 -0.66900749507E+01  0.47145705833E+02  0.30421383824E+02  0.56506064056E+02  0.00000000000E+00 0. -1.
         -5    1    3    3    0  503  0.51859264924E+02 -0.70779704447E+02 -0.17703757703E+03  0.19764499386E+03  0.47000000000E+01 0.  1.
         13    1    4    4    0    0 -0.80107842814E+01  0.28779010173E+02 -0.31807091385E+02  0.43635938786E+02  0.00000000000E+00 0. -1.
        -14    1    4    4    0    0 -0.38076548612E+02 -0.15104831854E+02 -0.22268693450E+03  0.22642316643E+03  0.00000000000E+00 0.  1.
</event>
<event>
12    1  0.1598254E-001  0.2067666E+03  0.7818608E-02  0.1145407E+00
         21   -1    0    0  501  502  0.00000000000E+00  0.00000000000E+00  0.30472273926E+03  0.30472273926E+03  0.00000000000E+00 0. -1.
         21   -1    0    0  502  503 -0.00000000000E+00 -0.00000000000E+00 -0.54349416250E+03  0.54349416250E+03  0.00000000000E+00 0. -1.
         -6    2    1    2    0  503 -0.67828914954E+02 -0.94779772303E+02 -0.48697255557E+03  0.52905075288E+03  0.17078776978E+03 0.  0.
        -24    2    3    3    0    0  0.24335196634E+02 -0.33396390338E+02 -0.31639345591E+03  0.32562641244E+03  0.64963226897E+02 0.  0.
          6    2    1    2  501    0  0.67828914954E+02  0.94779772303E+02  0.24820113233E+03  0.31916614888E+03  0.16333787546E+03 0.  0.
         24    2    5    5    0    0  0.41475068073E+02  0.42123657597E+02  0.49689670792E+02  0.11205245541E+03  0.81191782703E+02 0.  0.
          5    1    5    5  501    0  0.26353846881E+02  0.52656114706E+02  0.19851146154E+03  0.20711369347E+03  0.47000000000E+01 0. -1.
        -13    1    6    6    0    0 -0.16848897045E+02 -0.38427883218E+01 -0.69812072900E+01  0.18638390728E+02  0.00000000000E+00 0.  1.
         14    1    6    6    0    0  0.58323965118E+02  0.45966445919E+02  0.56670878082E+02  0.93414064680E+02  0.00000000000E+00 0. -1.
         -5    1    3    3    0  503 -0.92164111589E+02 -0.61383381964E+02 -0.17057909966E+03  0.20342434045E+03  0.47000000000E+01 0.  1.
         13    1    4    4    0    0 -0.12204494172E+02 -0.10283817636E+02 -0.21246082914E+03  0.21305940604E+03  0.00000000000E+00 0. -1.
        -14    1    4    4    0    0  0.36539690807E+02 -0.23112572702E+02 -0.10393262677E+03  0.11256700640E+03  0.00000000000E+00 0.  1.
</event>
<event>
12    1  0.1598254E-001  0.1919915E+03  0.7818608E-02  0.1156740E+00
         21   -1    0    0  501  502  0.00000000000E+00  0.00000000000E+00  0.10126366627E+03  0.10126366627E+03  0.00000000000E+00 0.  1.
         21   -1    0    0  502  503 -0.00000000000E+00 -0.00000000000E+00 -0.54109873167E+03  0.54109873167E+03  0.00000000000E+00 0.  1.
         -6    2    1    2    0  503  0.31549972890E+02  0.77803718109E+02 -0.40382856019E+03  0.44702373987E+03  0.17234819015E+03 0.  0.
        -24    2    3    3    0    0  0.31466928195E+02  0.48681188373E+02 -0.40539174600E+03  0.41748288368E+03  0.81175518316E+02 0.  0.
          6    2    1    2  501    0 -0.31549972890E+02 -0.77803718109E+02 -0.36006505212E+02  0.19533865807E+03  0.17266123937E+03 0.  0.
         24    2    5    5    0    0  0.16260570980E+02  0.16094340610E+02 -0.27437360697E+01  0.84743923357E+02  0.81551029975E+02 0.  0.
          5    1    5    5  501    0 -0.47810543869E+02 -0.93898058719E+02 -0.33262769142E+02  0.11059473472E+03  0.47000000000E+01 0. -1.
        -13    1    6    6    0    0  0.12370923896E+02 -0.25731876061E+02  0.21952871968E+02  0.36015243875E+02  0.00000000000E+00 0.  1.
         14    1    6    6    0    0  0.38896470834E+01  0.41826216672E+02 -0.24696608038E+02  0.48728679482E+02  0.00000000000E+00 0. -1.
         -5    1    3    3    0  503  0.83044694136E-01  0.29122529735E+02  0.15631858097E+01  0.29540856191E+02  0.47000000000E+01 0.  1.
         13    1    4    4    0    0  0.47661539484E+02  0.24926383323E+02 -0.13132994059E+03  0.14191723020E+03  0.00000000000E+00 0. -1.
        -14    1    4    4    0    0 -0.16194611289E+02  0.23754805050E+02 -0.27406180540E+03  0.27556565348E+03  0.00000000000E+00 0.  1.
</event>
<event>
12    1  0.1598254E-001  0.1722455E+03  0.7818608E-02  0.1175919E+00
         21   -1    0    0  503  502  0.00000000000E+00  0.00000000000E+00  0.44139144800E+03  0.44139144800E+03  0.00000000000E+00 0.  1.
         21   -1    0    0  501  503 -0.00000000000E+00 -0.00000000000E+00 -0.66719280099E+02  0.66719280099E+02  0.00000000000E+00 0.  1.
          6    2    1    2  501    0  0.22363002512E+02  0.94229002626E+00  0.17681543261E+03  0.24578305698E+03  0.16924722183E+03 0.  0.
         24    2    3    3    0    0  0.25847051389E+02  0.60033360677E+02  0.15361815623E+03  0.18203278750E+03  0.72562547787E+02 0.  0.
         -6    2    1    2    0  502 -0.22363002512E+02 -0.94229002626E+00  0.19785673530E+03  0.26232767113E+03  0.17078503313E+03 0.  0.
        -24    2    5    5    0    0  0.33517629830E+02  0.34162690855E+02  0.65492650345E+02  0.11435015344E+03  0.80598693457E+02 0.  0.
          5    1    3    3  501    0 -0.34840488768E+01 -0.59091070651E+02  0.23197276371E+02  0.63750269476E+02  0.47000000000E+01 0. -1.
        -13    1    4    4    0    0  0.44692383486E+02  0.62469943856E+02  0.13561364143E+03  0.15585558305E+03  0.00000000000E+00 0.  1.
         14    1    4    4    0    0 -0.18845332097E+02 -0.24365831791E+01  0.18004514806E+02  0.26177204451E+02  0.00000000000E+00 0. -1.
         -5    1    5    5    0  502 -0.55880632343E+02 -0.35104980882E+02  0.13236408496E+03  0.14797751768E+03  0.47000000000E+01 0.  1.
         13    1    6    6    0    0 -0.25022012242E+02  0.14735743033E+02  0.82167948287E+01  0.30178782889E+02  0.00000000000E+00 0. -1.
        -14    1    6    6    0    0  0.58539642073E+02  0.19426947822E+02  0.57275855516E+02  0.84171370553E+02  0.00000000000E+00 0.  1.
</event>
<event>
12    1  0.1598254E-001  0.1770555E+03  0.7818608E-02  0.1170866E+00
         21   -1    0    0  503  502  0.00000000000E+00  0.00000000000E+00  0.80029966046E+03  0.80029966046E+03  0.00000000000E+00 0. -1.
         21   -1    0    0  501  503 -0.00000000000E+00 -0.00000000000E+00 -0.43120883696E+02  0.43120883696E+02  0.00000000000E+00 0. -1.
          6    2    1    2  501    0  0.23920379752E+02 -0.32194409148E+02  0.50953786252E+03  0.53942330015E+03  0.17245288882E+03 0.  0.
         24    2    3    3    0    0 -0.13512315035E+02 -0.17521683790E+02  0.48497859290E+03  0.49207624922E+03  0.80282049111E+02 0.  0.
         -6    2    1    2    0  502 -0.23920379752E+02  0.32194409148E+02  0.24764091424E+03  0.30399724400E+03  0.17169635233E+03 0.  0.
        -24    2    5    5    0    0 -0.58287909808E+01 -0.47240713059E+02  0.11878970915E+03  0.15147849998E+03  0.81049868478E+02 0.  0.
          5    1    3    3  501    0  0.37432694787E+02 -0.14672725358E+02  0.24559269616E+02  0.47347050938E+02  0.47000000000E+01 0. -1.
        -11    1    4    4    0    0 -0.32475719364E+02 -0.30512034488E+01  0.79980493329E+02  0.86376278595E+02  0.00000000000E+00 0.  1.
         12    1    4    4    0    0  0.18963404329E+02 -0.14470480341E+02  0.40499809957E+03  0.40569997062E+03  0.00000000000E+00 0. -1.
         -5    1    5    5    0  502 -0.18091588771E+02  0.79435122207E+02  0.12885120509E+03  0.15251874402E+03  0.47000000000E+01 0.  1.
         13    1    6    6    0    0 -0.64509023377E+00  0.13821969736E+02 -0.38648564408E+01  0.14366631620E+02  0.00000000000E+00 0. -1.
        -14    1    6    6    0    0 -0.51837007470E+01 -0.61062682795E+02  0.12265456559E+03  0.13711186836E+03  0.00000000000E+00 0.  1.
</event>
<event>
12    1  0.1598254E-001  0.2170568E+03  0.7818608E-02  0.1136240E+00
         21   -1    0    0  503  502  0.00000000000E+00  0.00000000000E+00  0.88244049688E+02  0.88244049688E+02  0.00000000000E+00 0.  1.
         21   -1    0    0  501  503 -0.00000000000E+00 -0.00000000000E+00 -0.53536723665E+03  0.53536723665E+03  0.00000000000E+00 0.  1.
          6    2    1    2  501    0 -0.41637288914E+02 -0.12537273591E+03 -0.24851745870E+03  0.32996149554E+03  0.17222565002E+03 0.  0.
         24    2    3    3    0    0 -0.92303044977E+02 -0.11096039962E+03 -0.16776260502E+03  0.23343082338E+03  0.74253587559E+02 0.  0.
         -6    2    1    2    0  502  0.41637288914E+02  0.12537273591E+03 -0.19860572826E+03  0.29364979080E+03  0.17127164856E+03 0.  0.
        -24    2    5    5    0    0  0.32207465545E+02  0.11104323749E+03 -0.22250164983E+03  0.26386118289E+03  0.82145104727E+02 0.  0.
          5    1    3    3  501    0  0.50665756063E+02 -0.14412336287E+02 -0.80754853672E+02  0.96530672153E+02  0.47000000000E+01 0. -1.
        -11    1    4    4    0    0 -0.50474215641E+02 -0.10196355946E+03 -0.91563152936E+02  0.14604117528E+03  0.00000000000E+00 0.  1.
         12    1    4    4    0    0 -0.41828829336E+02 -0.89968401576E+01 -0.76199452088E+02  0.87389648100E+02  0.00000000000E+00 0. -1.
         -5    1    5    5    0  502  0.94298233690E+01  0.14329498417E+02  0.23895921565E+02  0.29788607908E+02  0.47000000000E+01 0.  1.
         11    1    6    6    0    0 -0.77116369948E+00  0.49012631287E+02 -0.26658389467E+02  0.55798767442E+02  0.00000000000E+00 0. -1.
        -12    1    6    6    0    0  0.32978629244E+02  0.62030606203E+02 -0.19584326036E+03  0.20806241545E+03  0.00000000000E+00 0.  1.
</event>
<event>
12    1  0.1598254E-001  0.2982450E+03  0.7818608E-02  0.1086126E+00
         21   -1    0    0  501  502  0.00000000000E+00  0.00000000000E+00  0.27537238843E+02  0.27537238843E+02  0.00000000000E+00 0.  1.
         21   -1    0    0  502  503 -0.00000000000E+00 -0.00000000000E+00 -0.32400789598E+04  0.32400789598E+04  0.00000000000E+00 0. -1.
         -6    2    1    2    0  503 -0.24354002927E+03 -0.74818731509E+01 -0.16985310959E+04  0.17245095019E+04  0.17192269811E+03 0.  0.
        -24    2    3    3    0    0 -0.63260963729E+02  0.31895358672E+02 -0.81115336269E+03  0.81813626793E+03  0.79736514010E+02 0.  0.
          6    2    1    2  501    0  0.24354002927E+03  0.74818731509E+01 -0.15140106250E+04  0.15431066967E+04  0.17199529196E+03 0.  0.
         24    2    5    5    0    0  0.26372952077E+03  0.12269348597E+02 -0.13756700071E+04  0.14031397290E+04  0.81420719483E+02 0.  0.
          5    1    5    5  501    0 -0.20189491497E+02 -0.47874754457E+01 -0.13834061790E+03  0.13996696771E+03  0.47000000000E+01 0. -1.
        -11    1    6    6    0    0  0.21142690497E+03 -0.22235266030E+02 -0.11106173916E+04  0.11307814704E+04  0.00000000000E+00 0.  1.
         12    1    6    6    0    0  0.52302615801E+02  0.34504614627E+02 -0.26505261546E+03  0.27235825857E+03  0.00000000000E+00 0. -1.
         -5    1    3    3    0  503 -0.18027906554E+03 -0.39377231823E+02 -0.88737773324E+03  0.90637323400E+03  0.47000000000E+01 0.  1.
         13    1    4    4    0    0 -0.68053085683E+02 -0.61363451171E+01 -0.51709366366E+03  0.52158866379E+03  0.00000000000E+00 0. -1.
        -14    1    4    4    0    0  0.47921219545E+01  0.38031703789E+02 -0.29405969903E+03  0.29654760413E+03  0.00000000000E+00 0.  1.
</event>
<event>
12    1  0.1598254E-001  0.2102754E+03  0.7818608E-02  0.1142079E+00
         21   -1    0    0  501  502  0.00000000000E+00  0.00000000000E+00  0.60005448072E+02  0.60005448072E+02  0.00000000000E+00 0.  1.
         21   -1    0    0  502  503 -0.00000000000E+00 -0.00000000000E+00 -0.99948894311E+03  0.99948894311E+03  0.00000000000E+00 0.  1.
         -6    2    1    2    0  503  0.11141721317E+03 -0.21436725715E+02 -0.74482507047E+03  0.77295008122E+03  0.17266763986E+03 0.  0.
        -24    2    3    3    0    0  0.14719427591E+03 -0.66344339870E+01 -0.62355120317E+03  0.64555876696E+03  0.78866013281E+02 0.  0.
          6    2    1    2  501    0 -0.11141721317E+03  0.21436725715E+02 -0.19465842457E+03  0.28654430996E+03  0.17703787933E+03 0.  0.
         24    2    5    5    0    0 -0.26267720961E+02  0.11240696213E+02 -0.12589496865E+02  0.85234649301E+02  0.79310173334E+02 0.  0.
          5    1    5    5  501    0 -0.85149492209E+02  0.10196029502E+02 -0.18206892770E+03  0.20130966066E+03  0.47000000000E+01 0. -1.
        -11    1    6    6    0    0  0.19289379326E+02  0.27876210853E+02 -0.14092767576E+02  0.36711978757E+02  0.00000000000E+00 0.  1.
         12    1    6    6    0    0 -0.45557100287E+02 -0.16635514640E+02  0.15032707110E+01  0.48522670544E+02  0.00000000000E+00 0. -1.
         -5    1    3    3    0  503 -0.35777062737E+02 -0.14802291728E+02 -0.12127386730E+03  0.12739131426E+03  0.47000000000E+01 0.  1.
         13    1    4    4    0    0  0.17130484998E+02  0.11826707621E+02 -0.23934769761E+02  0.31720619996E+02  0.00000000000E+00 0. -1.
        -14    1    4    4    0    0  0.13006379091E+03 -0.18461141608E+02 -0.59961643341E+03  0.61383814697E+03  0.00000000000E+00 0.  1.
</event>
<event>
12    1  0.1598254E-001  0.1727829E+03  0.7818608E-02  0.1175899E+00
         21   -1    0    0  501  502  0.00000000000E+00  0.00000000000E+00  0.16428632368E+04  0.16428632368E+04  0.00000000000E+00 0. -1.
         21   -1    0    0  502  503 -0.00000000000E+00 -0.00000000000E+00 -0.18599416587E+02  0.18599416587E+02  0.00000000000E+00 0. -1.
         -6    2    1    2    0  503 -0.80023762712E+01 -0.85717497560E+01  0.97644117945E+03  0.99099407086E+03  0.16880272101E+03 0.  0.
        -24    2    3    3    0    0 -0.59925159244E+01 -0.80540185793E+01  0.20718132203E+03  0.22171705585E+03  0.78317144941E+02 0.  0.
          6    2    1    2  501    0  0.80023762712E+01  0.85717497560E+01  0.64782264076E+03  0.67046858253E+03  0.17238455082E+03 0.  0.
         24    2    5    5    0    0  0.69667418688E+02 -0.39855750479E+01  0.45127854617E+03  0.46404199757E+03  0.82542202754E+02 0.  0.
          5    1    5    5  501    0 -0.61665042417E+02  0.12557324804E+02  0.19654409458E+03  0.20642658496E+03  0.47000000000E+01 0. -1.
        -13    1    6    6    0    0  0.16559368355E+02  0.12526380973E+02  0.18824849628E+02  0.28026734810E+02  0.00000000000E+00 0.  1.
         14    1    6    6    0    0  0.53108050333E+02 -0.16511956021E+02  0.43245369654E+03  0.43601526276E+03  0.00000000000E+00 0. -1.
         -5    1    3    3    0  503 -0.20098603468E+01 -0.51773117662E+00  0.76925985742E+03  0.76927701501E+03  0.47000000000E+01 0.  1.
         13    1    4    4    0    0 -0.10035823541E+02  0.33363534341E+02  0.12257550624E+03  0.12743075731E+03  0.00000000000E+00 0. -1.
        -14    1    4    4    0    0  0.40433076170E+01 -0.41417552920E+02  0.84605815795E+02  0.94286298542E+02  0.00000000000E+00 0.  1.
</event>
<event>
12    1  0.1598254E-001  0.2001525E+03  0.7818608E-02  0.1150073E+00
         21   -1    0    0  501  502  0.00000000000E+00  0.00000000000E+00  0.64318684305E+03  0.64318684305E+03  0.00000000000E+00 0.  1.
         21   -1    0    0  502  503 -0.00000000000E+00 -0.00000000000E+00 -0.81931901325E+02  0.81931901325E+02  0.00000000000E+00 0.  1.
         -6    2    1    2    0  503  0.84352988988E+02 -0.47815982933E+02  0.98897931609E+02  0.22129829886E+03  0.17259878687E+03 0.  0.
        -24    2    3    3    0    0  0.15270449909E+02  0.16770749810E+02 -0.16182855517E+01  0.83206144256E+02  0.80038733775E+02 0.  0.
          6    2    1    2  501    0 -0.84352988988E+02  0.47815982933E+02  0.46235701012E+03  0.50382044551E+03  0.17509780563E+03 0.  0.
         24    2    5    5    0    0 -0.10799565088E+03  0.66406214830E+02  0.27131911397E+03  0.31037241645E+03  0.81511528695E+02 0.  0.
          5    1    5    5  501    0  0.23642661893E+02 -0.18590231897E+02  0.19103789615E+03  0.19344802907E+03  0.47000000000E+01 0. -1.
        -11    1    6    6    0    0 -0.38562713681E+02  0.59000958637E+01  0.22452256980E+02  0.45011085980E+02  0.00000000000E+00 0.  1.
         12    1    6    6    0    0 -0.69432937200E+02  0.60506118966E+02  0.24886685699E+03  0.26536133047E+03  0.00000000000E+00 0. -1.
         -5    1    3    3    0  503  0.69082539079E+02 -0.64586732743E+02  0.10051621716E+03  0.13809215461E+03  0.47000000000E+01 0.  1.
         13    1    4    4    0    0 -0.29382141316E+02 -0.17003909288E+01  0.13769409325E+02  0.32493048345E+02  0.00000000000E+00 0. -1.
        -14    1    4    4    0    0  0.44652591225E+02  0.18471140739E+02 -0.15387694876E+02  0.50713095911E+02  0.00000000000E+00 0.  1.
</event>
<event>
12    1  0.1598254E-001  0.2162487E+03  0.7818608E-02  0.1136815E+00
         21   -1    0    0  503  502  0.00000000000E+00  0.00000000000E+00  0.50875767207E+03  0.50875767207E+03  0.00000000000E+00 0.  1.
         21   -1    0    0  501  503 -0.00000000000E+00 -0.00000000000E+00 -0.91757039828E+02  0.91757039828E+02  0.00000000000E+00 0. -1.
          6    2    1    2  501    0 -0.12939948897E+03 -0.91144006271E+01  0.19990263229E+03  0.29409175722E+03  0.17234151915E+03 0.  0.
         24    2    3    3    0    0 -0.12534605360E+03  0.49856402656E+02  0.13722752840E+03  0.20781172114E+03  0.78466699013E+02 0.  0.
         -6    2    1    2    0  502  0.12939948897E+03  0.91144006271E+01  0.21709799995E+03  0.30642295467E+03  0.17302076617E+03 0.  0.
        -24    2    5    5    0    0  0.72409774239E+01  0.18512510992E+02  0.13998948137E+03  0.16158221434E+03  0.78208773682E+02 0.  0.
          5    1    3    3  501    0 -0.40534353764E+01 -0.58970803283E+02  0.62675103889E+02  0.86280036079E+02  0.47000000000E+01 0. -1.
        -13    1    4    4    0    0 -0.93472882731E+02  0.56503380838E+02  0.13705319869E+03  0.17525236410E+03  0.00000000000E+00 0.  1.
         14    1    4    4    0    0 -0.31873170866E+02 -0.66469781820E+01  0.17432971359E+00  0.32559357040E+02  0.00000000000E+00 0. -1.
         -5    1    5    5    0  502  0.12215851155E+03 -0.93981103654E+01  0.77108518579E+02  0.14484074033E+03  0.47000000000E+01 0.  1.
         11    1    6    6    0    0 -0.27235141324E+02  0.41628238023E+01  0.15499556207E+02  0.31611995627E+02  0.00000000000E+00 0. -1.
        -12    1    6    6    0    0  0.34476118747E+02  0.14349687190E+02  0.12448992516E+03  0.12997021872E+03  0.00000000000E+00 0.  1.
</event>
<event>
12    1  0.1598254E-001  0.1944428E+03  0.7818608E-02  0.1154664E+00
         21   -1    0    0  501  502  0.00000000000E+00  0.00000000000E+00  0.91911219996E+03  0.91911219996E+03  0.00000000000E+00 0. -1.
         21   -1    0    0  502  503 -0.00000000000E+00 -0.00000000000E+00 -0.41928964296E+02  0.41928964296E+02  0.00000000000E+00 0. -1.
         -6    2    1    2    0  503  0.43688157705E+02 -0.78734490710E+02  0.50969695076E+03  0.54528379729E+03  0.17156824539E+03 0.  0.
        -24    2    3    3    0    0  0.84152824003E+02 -0.92649326144E+02  0.38148621536E+03  0.41003922426E+03  0.83275671700E+02 0.  0.
          6    2    1    2  501    0 -0.43688157705E+02  0.78734490710E+02  0.36748628491E+03  0.41575736697E+03  0.17233758569E+03 0.  0.
         24    2    5    5    0    0  0.15629359869E+02  0.55413698057E+02  0.33252689276E+03  0.34291042907E+03  0.60815073265E+02 0.  0.
          5    1    5    5  501    0 -0.59317517574E+02  0.23320792653E+02  0.34959392149E+02  0.72846937894E+02  0.47000000000E+01 0. -1.
        -13    1    6    6    0    0  0.24552885681E+02 -0.15623875637E+01  0.13118179365E+03  0.13346890363E+03  0.00000000000E+00 0.  1.
         14    1    6    6    0    0 -0.89235258120E+01  0.56976085620E+02  0.20134509911E+03  0.20944152544E+03  0.00000000000E+00 0. -1.
         -5    1    3    3    0  503 -0.40464666299E+02  0.13914835434E+02  0.12821073540E+03  0.13524457303E+03  0.47000000000E+01 0.  1.
         11    1    4    4    0    0  0.54628197097E+02 -0.29215602308E+02  0.27999954462E+03  0.28677087775E+03  0.00000000000E+00 0. -1.
        -12    1    4    4    0    0  0.29524626907E+02 -0.63433723836E+02  0.10148667074E+03  0.12326834651E+03  0.00000000000E+00 0.  1.
</event>
<event>
12    1  0.1598254E-001  0.4108541E+03  0.7818608E-02  0.1040102E+00
         21   -1    0    0  501  502  0.00000000000E+00  0.00000000000E+00  0.31383050356E+03  0.31383050356E+03  0.00000000000E+00 0.  1.
         21   -1    0    0  502  503 -0.00000000000E+00 -0.00000000000E+00 -0.74288310375E+03  0.74288310375E+03  0.00000000000E+00 0. -1.
         -6    2    1    2    0  503  0.29219514952E+03  0.23191618801E+03 -0.49222870620E+03  0.64103061581E+03  0.17166253968E+03 0.  0.
        -24    2    3    3    0    0  0.27573207577E+03  0.24228709515E+03 -0.49465198644E+03  0.62086751090E+03  0.77875954681E+02 0.  0.
          6    2    1    2  501    0 -0.29219514952E+03 -0.23191618801E+03  0.63176106011E+02  0.41568299150E+03  0.17215692082E+03 0.  0.
         24    2    5    5    0    0 -0.24175267745E+03 -0.20806757370E+03 -0.33445722961E+01  0.32873306317E+03  0.79484390802E+02 0.  0.
          5    1    5    5  501    0 -0.50442472075E+02 -0.23848614307E+02  0.66520678307E+02  0.86949928326E+02  0.47000000000E+01 0. -1.
        -11    1    6    6    0    0 -0.51981154069E+02 -0.34939902439E+02  0.30448528236E+02  0.69641582640E+02  0.00000000000E+00 0.  1.
         12    1    6    6    0    0 -0.18977152338E+03 -0.17312767126E+03 -0.33793100532E+02  0.25909148053E+03  0.00000000000E+00 0. -1.
         -5    1    3    3    0  503  0.16463073757E+02 -0.10370907145E+02  0.24232802372E+01  0.20163104911E+02  0.47000000000E+01 0.  1.
         13    1    4    4    0    0  0.16717223394E+03  0.11646266752E+03 -0.32347996839E+03  0.38229491061E+03  0.00000000000E+00 0. -1.
        -14    1    4    4    0    0  0.10855984182E+03  0.12582442764E+03 -0.17117201805E+03  0.23857260029E+03  0.00000000000E+00 0.  1.
</event>
<event>
12    1  0.1598254E-001  0.2270275E+03  0.7818608E-02  0.1129349E+00
         21   -1    0    0  501  502  0.00000000000E+00  0.00000000000E+00  0.74641671405E+02  0.74641671405E+02  0.00000000000E+00 0.  1.
         21   -1    0    0  502  503 -0.00000000000E+00 -0.00000000000E+00 -0.68892540717E+03  0.68892540717E+03  0.00000000000E+00 0. -1.
         -6    2    1    2    0  503 -0.13527520358E+03 -0.49566925027E+02 -0.34725544421E+03  0.41307370608E+03  0.17113527505E+03 0.  0.
        -24    2    3    3    0    0 -0.16342950059E+03 -0.48884218370E+02 -0.33037927071E+03  0.37990706982E+03  0.77974679991E+02 0.  0.
          6    2    1    2  501    0  0.13527520358E+03  0.49566925027E+02 -0.26702829156E+03  0.35049337249E+03  0.17545721675E+03 0.  0.
         24    2    5    5    0    0  0.16672568026E+03  0.62326966092E+02 -0.21481188999E+03  0.28803863909E+03  0.71693837724E+02 0.  0.
          5    1    5    5  501    0 -0.31450476684E+02 -0.12760041065E+02 -0.52216401573E+02  0.62454733406E+02  0.47000000000E+01 0. -1.
        -11    1    6    6    0    0  0.61795441924E+02  0.30714030812E+02 -0.34783447944E+02  0.77278176623E+02  0.00000000000E+00 0.  1.
         12    1    6    6    0    0  0.10493023834E+03  0.31612935280E+02 -0.18002844204E+03  0.21076046246E+03  0.00000000000E+00 0. -1.
         -5    1    3    3    0  503  0.28154297015E+02 -0.68270665708E+00 -0.16876173502E+02  0.33166636260E+02  0.47000000000E+01 0.  1.
         13    1    4    4    0    0 -0.13833639268E+03 -0.36714361176E+02 -0.19617917293E+03  0.24283980264E+03  0.00000000000E+00 0. -1.
        -14    1    4    4    0    0 -0.25093107912E+02 -0.12169857194E+02 -0.13420009778E+03  0.13706726718E+03  0.00000000000E+00 0.  1.
</event>
<event>
12    1  0.1598254E-001  0.1790427E+03  0.7818608E-02  0.1169054E+00
         21   -1    0    0  501  502  0.00000000000E+00  0.00000000000E+00  0.14201393919E+04  0.14201393919E+04  0.00000000000E+00 0. -1.
         21   -1    0    0  502  503 -0.00000000000E+00 -0.00000000000E+00 -0.25339021761E+02  0.25339021761E+02  0.00000000000E+00 0. -1.
         -6    2    1    2    0  503 -0.41700239158E+02  0.23992435922E+02  0.45383181958E+03  0.48787251709E+03  0.17245789498E+03 0.  0.
        -24    2    3    3    0    0 -0.57838343505E+02 -0.37291650959E+02  0.19486628784E+03  0.22122403248E+03  0.78938337952E+02 0.  0.
          6    2    1    2  501    0  0.41700239158E+02 -0.23992435922E+02  0.94096855056E+03  0.95760589657E+03  0.17109264473E+03 0.  0.
         24    2    5    5    0    0  0.42219383234E+01  0.35778883289E+02  0.30024066580E+03  0.31298853259E+03  0.80742868926E+02 0.  0.
          5    1    5    5  501    0  0.37478300835E+02 -0.59771319211E+02  0.64072788476E+03  0.64461736398E+03  0.47000000000E+01 0. -1.
        -13    1    6    6    0    0  0.27588546207E+02 -0.33432270382E+01  0.39504268020E+02  0.48300023195E+02  0.00000000000E+00 0.  1.
         14    1    6    6    0    0 -0.23366607883E+02  0.39122110327E+02  0.26073639778E+03  0.26468850940E+03  0.00000000000E+00 0. -1.
         -5    1    3    3    0  503  0.16138104347E+02  0.61284086881E+02  0.25896553173E+03  0.26664848461E+03  0.47000000000E+01 0.  1.
         11    1    4    4    0    0 -0.79086922976E+00  0.18645363153E+02  0.13480541768E+02  0.23021729900E+02  0.00000000000E+00 0. -1.
        -12    1    4    4    0    0 -0.57047474275E+02 -0.55937014112E+02  0.18138574608E+03  0.19820230258E+03  0.00000000000E+00 0.  1.
</event>
<event>
12    1  0.1598254E-001  0.2200073E+03  0.7818608E-02  0.1134171E+00
         21   -1    0    0  503  502  0.00000000000E+00  0.00000000000E+00  0.10957354278E+03  0.10957354278E+03  0.00000000000E+00 0. -1.
         21   -1    0    0  501  503 -0.00000000000E+00 -0.00000000000E+00 -0.55441623801E+03  0.55441623801E+03  0.00000000000E+00 0. -1.
          6    2    1    2  501    0  0.13475771856E+03 -0.20892523188E+02 -0.37479055148E+03  0.43459312942E+03  0.17264730065E+03 0.  0.
         24    2    3    3    0    0  0.37297289677E+01 -0.23024188568E+02 -0.20323726478E+03  0.21866374690E+03  0.77229685211E+02 0.  0.
         -6    2    1    2    0  502 -0.13475771856E+03  0.20892523188E+02 -0.70052143752E+02  0.22939665137E+03  0.17064401711E+03 0.  0.
        -24    2    5    5    0    0 -0.16613298674E+03  0.14922434269E+02 -0.78761892646E+02  0.19596015722E+03  0.66136972682E+02 0.  0.
          5    1    3    3  501    0  0.13102798959E+03  0.21316653804E+01 -0.17155328670E+03  0.21592938251E+03  0.47000000000E+01 0. -1.
        -11    1    4    4    0    0 -0.20964479030E+02  0.20596811051E+02 -0.58023406764E+02  0.65041938309E+02  0.00000000000E+00 0.  1.
         12    1    4    4    0    0  0.24694207998E+02 -0.43620999619E+02 -0.14521385802E+03  0.15362180860E+03  0.00000000000E+00 0. -1.
         -5    1    5    5    0  502  0.31375268180E+02  0.59700889190E+01  0.87097488938E+01  0.33436494148E+02  0.47000000000E+01 0.  1.
         13    1    6    6    0    0 -0.18128887993E+02 -0.11493993724E+02  0.73661380543E+01  0.22694238507E+02  0.00000000000E+00 0. -1.
        -14    1    6    6    0    0 -0.14800409875E+03  0.26416427993E+02 -0.86128030700E+02  0.17326591871E+03  0.00000000000E+00 0.  1.
</event>
<event>
12    1  0.1598254E-001  0.1761500E+03  0.7818608E-02  0.1171733E+00
         21   -1    0    0  501  502  0.00000000000E+00  0.00000000000E+00  0.35353079505E+02  0.35353079505E+02  0.00000000000E+00 0.  1.
         21   -1    0    0  502  503 -0.00000000000E+00 -0.00000000000E+00 -0.92034271049E+03  0.92034271049E+03  0.00000000000E+00 0.  1.
         -6    2    1    2    0  503 -0.31528417375E+02 -0.22023194658E+02 -0.54821930510E+03  0.57563910395E+03  0.17128020701E+03 0.  0.
        -24    2    3    3    0    0  0.44729571824E+02  0.75937967330E+01 -0.33229506138E+03  0.34468929097E+03  0.79575744682E+02 0.  0.
          6    2    1    2  501    0  0.31528417375E+02  0.22023194658E+02 -0.33677032589E+03  0.38005668605E+03  0.17190046539E+03 0.  0.
         24    2    5    5    0    0  0.73282577862E+02  0.50866172080E+02 -0.19973933366E+03  0.23385507833E+03  0.82672199517E+02 0.  0.
          5    1    5    5  501    0 -0.41754160487E+02 -0.28842977423E+02 -0.13703099223E+03  0.14620160771E+03  0.47000000000E+01 0. -1.
        -13    1    6    6    0    0  0.66058370638E+02  0.28036730545E+02 -0.19710895610E+03  0.20976583889E+03  0.00000000000E+00 0.  1.
         14    1    6    6    0    0  0.72242072237E+01  0.22829441535E+02 -0.26303775557E+01  0.24089239442E+02  0.00000000000E+00 0. -1.
         -5    1    3    3    0  503 -0.76257989199E+02 -0.29616991391E+02 -0.21592424371E+03  0.23094981299E+03  0.47000000000E+01 0.  1.
         11    1    4    4    0    0  0.25750520745E+02 -0.22626116354E+02 -0.27542720398E+03  0.27755211250E+03  0.00000000000E+00 0. -1.
        -12    1    4    4    0    0  0.18979051079E+02  0.30219913087E+02 -0.56867857403E+02  0.67137178467E+02  0.00000000000E+00 0.  1.
</event>
<event>
12    1  0.1598254E-001  0.2619298E+03  0.7818608E-02  0.1106162E+00
         21   -1    0    0  503  502  0.00000000000E+00  0.00000000000E+00  0.20905828702E+03  0.20905828702E+03  0.00000000000E+00 0.  1.
         21   -1    0    0  501  503 -0.00000000000E+00 -0.00000000000E+00 -0.33998567470E+03  0.33998567470E+03  0.00000000000E+00 0.  1.
          6    2    1    2  501    0 -0.72396023300E+02 -0.18206535045E+03 -0.11378913867E+02  0.26217689607E+03  0.17383402754E+03 0.  0.
         24    2    3    3    0    0 -0.61834569862E+02 -0.74158246413E+02 -0.64508333260E+02  0.14134514278E+03  0.80586380893E+02 0.  0.
         -6    2    1    2    0  502  0.72396023300E+02  0.18206535045E+03 -0.11954847382E+03  0.28686706564E+03  0.17208108477E+03 0.  0.
        -24    2    5    5    0    0  0.10767103545E+03  0.86625903252E+02 -0.79103167545E+02  0.17727268913E+03  0.77917881165E+02 0.  0.
          5    1    3    3  501    0 -0.10561453438E+02 -0.10790710404E+03  0.53129419392E+02  0.12083175330E+03  0.47000000000E+01 0. -1.
        -13    1    4    4    0    0 -0.25988466646E+01 -0.43694925644E+02  0.61932778427E+01  0.44208112620E+02  0.00000000000E+00 0.  1.
         14    1    4    4    0    0 -0.59235723198E+02 -0.30463320769E+02 -0.70701611102E+02  0.97137030156E+02  0.00000000000E+00 0. -1.
         -5    1    5    5    0  502 -0.35275012155E+02  0.95439447196E+02 -0.40445306273E+02  0.10959437651E+03  0.47000000000E+01 0.  1.
         11    1    6    6    0    0  0.15971013859E+01  0.23774562066E+02 -0.42387359552E+02  0.48625803686E+02  0.00000000000E+00 0. -1.
        -12    1    6    6    0    0  0.10607393407E+03  0.62851341186E+02 -0.36715807993E+02  0.12864688544E+03  0.00000000000E+00 0.  1.
</event>
<event>
12    1  0.1598254E-001  0.2183739E+03  0.7818608E-02  0.1135556E+00
         21   -1    0    0  503  502  0.00000000000E+00  0.00000000000E+00  0.35895325279E+03  0.35895325279E+03  0.00000000000E+00 0.  1.
         21   -1    0    0  501  503 -0.00000000000E+00 -0.00000000000E+00 -0.14013930828E+03  0.14013930828E+03  0.00000000000E+00 0.  1.
          6    2    1    2  501    0 -0.87130944657E+02  0.96915468597E+02  0.46495349743E+02  0.22091843332E+03  0.17221709284E+03 0.  0.
         24    2    3    3    0    0 -0.12416486527E+03  0.50965169927E+02  0.25716154408E+02  0.15817446005E+03  0.79645947175E+02 0.  0.
         -6    2    1    2    0  502  0.87130944657E+02 -0.96915468597E+02  0.17231859477E+03  0.27817412774E+03  0.17522196686E+03 0.  0.
        -24    2    5    5    0    0  0.72015865370E+02 -0.29617295165E+02  0.21313508725E+02  0.11209542417E+03  0.77766634407E+02 0.  0.
          5    1    3    3  501    0  0.37033920611E+02  0.45950298670E+02  0.20779195335E+02  0.62743973276E+02  0.47000000000E+01 0. -1.
        -11    1    4    4    0    0 -0.56661977059E+02  0.64767463043E+02  0.48783736781E+01  0.86192821296E+02  0.00000000000E+00 0.  1.
         12    1    4    4    0    0 -0.67502888208E+02 -0.13802293115E+02  0.20837780730E+02  0.71981638752E+02  0.00000000000E+00 0. -1.
         -5    1    5    5    0  502  0.15115079286E+02 -0.67298173432E+02  0.15100508605E+03  0.16607870358E+03  0.47000000000E+01 0.  1.
         11    1    6    6    0    0  0.11859471651E+02 -0.46161501043E+02  0.91966187073E+01  0.48539767635E+02  0.00000000000E+00 0. -1.
        -12    1    6    6    0    0  0.60156393720E+02  0.16544205878E+02  0.12116890018E+02  0.63555656532E+02  0.00000000000E+00 0.  1.
</event>
<event>
12    1  0.1598254E-001  0.1746666E+03  0.7818608E-02  0.1173081E+00
         21   -1    0    0  501  502  0.00000000000E+00  0.00000000000E+00  0.96966558749E+02  0.96966558749E+02  0.00000000000E+00 0.  1.
         21   -1    0    0  502  503 -0.00000000000E+00 -0.00000000000E+00 -0.71451293238E+03  0.71451293238E+03  0.00000000000E+00 0.  1.
         -6    2    1    2    0  503 -0.25516584209E+02  0.47931491730E+01 -0.52208770791E+01  0.17474461992E+03  0.17272624087E+03 0.  0.
        -24    2    3    3    0    0  0.48347216500E+02 -0.11761202240E+02  0.15910114480E+02  0.96013962545E+02  0.80559108978E+02 0.  0.
          6    2    1    2  501    0  0.25516584209E+02 -0.47931491730E+01 -0.61232549656E+03  0.63673487122E+03  0.17266937233E+03 0.  0.
         24    2    5    5    0    0 -0.69943202403E+01  0.40838345474E+02 -0.18945957448E+03  0.21014740039E+03  0.80933976499E+02 0.  0.
          5    1    5    5  501    0  0.32510904450E+02 -0.45631494647E+02 -0.42286592208E+03  0.42658747083E+03  0.47000000000E+01 0. -1.
        -13    1    6    6    0    0  0.20743603635E+02 -0.45997126398E+01 -0.12383872373E+03  0.12564825484E+03  0.00000000000E+00 0.  1.
         14    1    6    6    0    0 -0.27737923875E+02  0.45438058114E+02 -0.65620850741E+02  0.84499145547E+02  0.00000000000E+00 0. -1.
         -5    1    3    3    0  503 -0.73863800709E+02  0.16554351413E+02 -0.21130991559E+02  0.78730657372E+02  0.47000000000E+01 0.  1.
         13    1    4    4    0    0  0.83566908462E+01  0.24123521454E+02  0.31043540090E+02  0.40193033608E+02  0.00000000000E+00 0. -1.
        -14    1    4    4    0    0  0.39990525653E+02 -0.35884723695E+02 -0.15133425610E+02  0.55820928937E+02  0.00000000000E+00 0.  1.
</event>
<event>
12    1  0.1598254E-001  0.2008439E+03  0.7818608E-02  0.1149181E+00
         21   -1    0    0  503  502  0.00000000000E+00  0.00000000000E+00  0.12939760878E+03  0.12939760878E+03  0.00000000000E+00 0.  1.
         21   -1    0    0  501  503 -0.00000000000E+00 -0.00000000000E+00 -0.38490998440E+03  0.38490998440E+03  0.00000000000E+00 0. -1.
          6    2    1    2  501    0 -0.82036235348E+02 -0.60051574454E+02 -0.24092070472E+03  0.31365755686E+03  0.17321126266E+03 0.  0.
         24    2    3    3    0    0 -0.14666038846E+02 -0.87064227557E+02 -0.10433619356E+03  0.15891310464E+03  0.81068249800E+02 0.  0.
         -6    2    1    2    0  502  0.82036235348E+02  0.60051574454E+02 -0.14591670901E+02  0.20065003631E+03  0.17236990662E+03 0.  0.
        -24    2    5    5    0    0  0.44680106879E+02  0.10466671429E+03  0.14811389685E+01  0.14009909698E+03  0.81695349760E+02 0.  0.
          5    1    3    3  501    0 -0.67370196503E+02  0.27012653103E+02 -0.13658451116E+03  0.15474445222E+03  0.47000000000E+01 0. -1.
        -11    1    4    4    0    0 -0.48213718910E+02 -0.58086698843E+02 -0.63631273049E+02  0.98729763412E+02  0.00000000000E+00 0.  1.
         12    1    4    4    0    0  0.33547680065E+02 -0.28977528714E+02 -0.40704920508E+02  0.60183341230E+02  0.00000000000E+00 0. -1.
         -5    1    5    5    0  502  0.37356128469E+02 -0.44615139835E+02 -0.16072809869E+02  0.60550939330E+02  0.47000000000E+01 0.  1.
         13    1    6    6    0    0  0.12540316624E+02  0.83844481210E+02 -0.30611461007E+02  0.90134444667E+02  0.00000000000E+00 0. -1.
        -14    1    6    6    0    0  0.32139790255E+02  0.20822233079E+02  0.32092599975E+02  0.49964652317E+02  0.00000000000E+00 0.  1.
</event>
<event>
12    1  0.1598254E-001  0.2228704E+03  0.7818608E-02  0.1131865E+00
         21   -1    0    0  503  502  0.00000000000E+00  0.00000000000E+00  0.17799620466E+03  0.17799620466E+03  0.00000000000E+00 0. -1.
         21   -1    0    0  501  503 -0.00000000000E+00 -0.00000000000E+00 -0.28750143811E+03  0.28750143811E+03  0.00000000000E+00 0. -1.
          6    2    1    2  501    0 -0.14148678239E+02  0.13991053269E+03 -0.96342573129E+02  0.24280261746E+03  0.17290482178E+03 0.  0.
         24    2    3    3    0    0 -0.10653401505E+02  0.72644155818E+02 -0.12894813354E+03  0.16782131988E+03  0.78394552909E+02 0.  0.
         -6    2    1    2    0  502  0.14148678239E+02 -0.13991053269E+03 -0.13162660318E+02  0.22269502532E+03  0.17217629460E+03 0.  0.
        -24    2    5    5    0    0 -0.55948630681E+02 -0.61126745783E+02  0.14560063013E+02  0.11355677727E+03  0.76265443713E+02 0.  0.
          5    1    3    3  501    0 -0.34952767337E+01  0.67266376873E+02  0.32605560406E+02  0.74981297578E+02  0.47000000000E+01 0. -1.
        -13    1    4    4    0    0  0.49824220974E+01 -0.11649454140E+02  0.35922998583E+00  0.12675305041E+02  0.00000000000E+00 0.  1.
         14    1    4    4    0    0 -0.15635823602E+02  0.84293609958E+02 -0.12930736352E+03  0.15514601484E+03  0.00000000000E+00 0. -1.
         -5    1    5    5    0  502  0.70097308920E+02 -0.78783786909E+02 -0.27722723331E+02  0.10913824805E+03  0.47000000000E+01 0.  1.
         13    1    6    6    0    0 -0.70334370447E+02 -0.64140277959E+02  0.36618122691E+01  0.95259161197E+02  0.00000000000E+00 0. -1.
        -14    1    6    6    0    0  0.14385739766E+02  0.30135321769E+01  0.10898250744E+02  0.18297616076E+02  0.00000000000E+00 0.  1.
</event>
<event>
12    1  0.1598254E-001  0.3130960E+03  0.7818608E-02  0.1078996E+00
         21   -1    0    0  501  502  0.00000000000E+00  0.00000000000E+00  0.67208601214E+03  0.67208601214E+03  0.00000000000E+00 0. -1.
         21   -1    0    0  502  503 -0.00000000000E+00 -0.00000000000E+00 -0.38127005108E+03  0.38127005108E+03  0.00000000000E+00 0.  1.
         -6    2    1    2    0  503  0.74995282265E+02  0.25005391525E+03 -0.26896456848E+03  0.41196435012E+03  0.17094277925E+03 0.  0.
        -24    2    3    3    0    0 -0.11900040707E+02  0.68225257784E+02 -0.12422255472E+03  0.16380150363E+03  0.81261262126E+02 0.  0.
          6    2    1    2  501    0 -0.74995282265E+02 -0.25005391525E+03  0.55978052954E+03  0.64139171309E+03  0.17285206242E+03 0.  0.
         24    2    5    5    0    0 -0.84224027509E+02 -0.11736028232E+03  0.39680329293E+03  0.43097203813E+03  0.86121551858E+02 0.  0.
          5    1    5    5  501    0  0.92287452442E+01 -0.13269363293E+03  0.16297723661E+03  0.21041967497E+03  0.47000000000E+01 0. -1.
        -13    1    6    6    0    0 -0.39985936695E+02 -0.10567564930E+03  0.20803674070E+03  0.23673931543E+03  0.00000000000E+00 0.  1.
         14    1    6    6    0    0 -0.44238090814E+02 -0.11684633018E+02  0.18876655222E+03  0.19423272269E+03  0.00000000000E+00 0. -1.
         -5    1    3    3    0  503  0.86895322971E+02  0.18182865747E+03 -0.14474201377E+03  0.24816284649E+03  0.47000000000E+01 0.  1.
         11    1    4    4    0    0  0.99027561851E+01 -0.15508726277E+02 -0.11498930704E+02  0.21698169926E+02  0.00000000000E+00 0. -1.
        -12    1    4    4    0    0 -0.21802796892E+02  0.83733984061E+02 -0.11272362401E+03  0.14210333370E+03  0.00000000000E+00 0.  1.
</event>
<event>
12    1  0.1598254E-001  0.2188577E+03  0.7818608E-02  0.1136422E+00
         21   -1    0    0  503  502  0.00000000000E+00  0.00000000000E+00  0.35870156838E+03  0.35870156838E+03  0.00000000000E+00 0. -1.
         21   -1    0    0  501  503 -0.00000000000E+00 -0.00000000000E+00 -0.16718213804E+03  0.16718213804E+03  0.00000000000E+00 0.  1.
          6    2    1    2  501    0 -0.11973728418E+03 -0.19883206089E+02 -0.32643529620E+02  0.21259835883E+03  0.17146458248E+03 0.  0.
         24    2    3    3    0    0 -0.67070824732E+01  0.15788030179E+02 -0.44768975237E+02  0.93361703283E+02  0.80111794662E+02 0.  0.
         -6    2    1    2    0  502  0.11973728418E+03  0.19883206089E+02  0.22416295996E+03  0.31328534759E+03  0.18211621917E+03 0.  0.
        -24    2    5    5    0    0  0.13639802739E+03 -0.30026976926E+02  0.13774859072E+03  0.21200287159E+03  0.80402127456E+02 0.  0.
          5    1    3    3  501    0 -0.11303020171E+03 -0.35671236268E+02  0.12125445618E+02  0.11923665555E+03  0.47000000000E+01 0. -1.
        -13    1    4    4    0    0 -0.21673329749E+02 -0.27185352204E+02 -0.28765690806E+02  0.45124733400E+02  0.00000000000E+00 0.  1.
         14    1    4    4    0    0  0.14966247275E+02  0.42973382383E+02 -0.16003284431E+02  0.48236969883E+02  0.00000000000E+00 0. -1.
         -5    1    5    5    0  502 -0.16660743201E+02  0.49910183015E+02  0.86414369238E+02  0.10128247599E+03  0.47000000000E+01 0.  1.
         11    1    6    6    0    0  0.76001216651E+01 -0.30463198465E+02  0.36689436455E+02  0.48289575039E+02  0.00000000000E+00 0. -1.
        -12    1    6    6    0    0  0.12879790572E+03  0.43622153985E+00  0.10105915427E+03  0.16371329655E+03  0.00000000000E+00 0.  1.
</event>
<event>
12    1  0.1598254E-001  0.2129071E+03  0.7818608E-02  0.1139725E+00
         21   -1    0    0  503  502  0.00000000000E+00  0.00000000000E+00  0.16521904670E+04  0.16521904670E+04  0.00000000000E+00 0. -1.
         21   -1    0    0  501  503 -0.00000000000E+00 -0.00000000000E+00 -0.29874069962E+02  0.29874069962E+02  0.00000000000E+00 0.  1.
          6    2    1    2  501    0  0.77437660874E+02 -0.99312035168E+02  0.55311476070E+03  0.59187116325E+03  0.16886700012E+03 0.  0.
         24    2    3    3    0    0  0.50989927075E+02 -0.58127801016E+02  0.52182992607E+03  0.53359205341E+03  0.80219659736E+02 0.  0.
         -6    2    1    2    0  502 -0.77437660874E+02  0.99312035168E+02  0.10692016363E+04  0.10901933737E+04  0.17166823029E+03 0.  0.
        -24    2    5    5    0    0 -0.53939047301E+02  0.81258370436E+02  0.10423901390E+04  0.10499557540E+04  0.79482953574E+02 0.  0.
          5    1    3    3  501    0  0.26447733799E+02 -0.41184234152E+02  0.31284834637E+02  0.58279109843E+02  0.47000000000E+01 0. -1.
        -13    1    4    4    0    0  0.43087367244E+02  0.86226845615E+01  0.18872945902E+03  0.19377739963E+03  0.00000000000E+00 0.  1.
         14    1    4    4    0    0  0.79025598315E+01 -0.66750485577E+02  0.33310046705E+03  0.33981465378E+03  0.00000000000E+00 0. -1.
         -5    1    5    5    0  502 -0.23498613573E+02  0.18053664732E+02  0.26811497353E+02  0.40237619716E+02  0.47000000000E+01 0.  1.
         11    1    6    6    0    0 -0.12816876901E+02  0.58857378908E+02  0.29429435535E+03  0.30039579054E+03  0.00000000000E+00 0. -1.
        -12    1    6    6    0    0 -0.41122170400E+02  0.22400991528E+02  0.74809578364E+03  0.74955996346E+03  0.00000000000E+00 0.  1.
</event>
<event>
12    1  0.1598254E-001  0.1750173E+03  0.7818608E-02  0.1173631E+00
         21   -1    0    0  501  502  0.00000000000E+00  0.00000000000E+00  0.78423712988E+02  0.78423712988E+02  0.00000000000E+00 0.  1.
         21   -1    0    0  502  503 -0.00000000000E+00 -0.00000000000E+00 -0.46727053686E+03  0.46727053686E+03  0.00000000000E+00 0.  1.
         -6    2    1    2    0  503  0.18629835063E+02  0.69330409290E+01 -0.31224400662E+03  0.35794886153E+03  0.17388481818E+03 0.  0.
        -24    2    3    3    0    0  0.37573216175E+02  0.67379916062E+02 -0.19010512571E+03  0.22028015546E+03  0.80197184533E+02 0.  0.
          6    2    1    2  501    0 -0.18629835063E+02 -0.69330409290E+01 -0.76602817254E+02  0.18774538832E+03  0.17025040796E+03 0.  0.
         24    2    5    5    0    0 -0.34196873114E+02  0.38003002559E+02 -0.97230714860E+02  0.13569559641E+03  0.79660709502E+02 0.  0.
          5    1    5    5  501    0  0.15567038051E+02 -0.44936043488E+02  0.20627897606E+02  0.52049791908E+02  0.47000000000E+01 0. -1.
        -13    1    6    6    0    0 -0.24890895341E+02  0.14130742099E+02  0.60750257265E+01  0.29259878344E+02  0.00000000000E+00 0.  1.
         14    1    6    6    0    0 -0.93059777727E+01  0.23872260460E+02 -0.10330574059E+03  0.10643571806E+03  0.00000000000E+00 0. -1.
         -5    1    3    3    0  503 -0.18943381113E+02 -0.60446875133E+02 -0.12213888091E+03  0.13766870607E+03  0.47000000000E+01 0.  1.
         11    1    4    4    0    0  0.18550934094E+02  0.37455209771E+02 -0.17795440481E+03  0.18279715558E+03  0.00000000000E+00 0. -1.
        -12    1    4    4    0    0  0.19022282081E+02  0.29924706291E+02 -0.12150720899E+02  0.37482999887E+02  0.00000000000E+00 0.  1.
</event>
<event>
12    1  0.1598254E-001  0.2045215E+03  0.7818608E-02  0.1146352E+00
         21   -1    0    0  501  502  0.00000000000E+00  0.00000000000E+00  0.26301250746E+03  0.26301250746E+03  0.00000000000E+00 0.  1.
         21   -1    0    0  502  503 -0.00000000000E+00 -0.00000000000E+00 -0.15811530140E+03  0.15811530140E+03  0.00000000000E+00 0.  1.
         -6    2    1    2    0  503  0.18758726974E+01  0.10952762516E+03  0.40584996500E+02  0.20673306193E+03  0.17056259080E+03 0.  0.
        -24    2    3    3    0    0  0.31255617303E+02  0.36689404408E+00  0.29255589930E+02  0.93024310885E+02  0.82586830967E+02 0.  0.
          6    2    1    2  501    0 -0.18758726974E+01 -0.10952762516E+03  0.64312209561E+02  0.21439474694E+03  0.17271139987E+03 0.  0.
         24    2    5    5    0    0 -0.61421297463E+02 -0.30403812635E+02  0.39696395156E+02  0.11224650350E+03  0.79539337157E+02 0.  0.
          5    1    5    5  501    0  0.59545424766E+02 -0.79123812522E+02  0.24615814405E+02  0.10214824344E+03  0.47000000000E+01 0. -1.
        -13    1    6    6    0    0  0.17426126530E+02 -0.18161513323E+02  0.83618801893E+01  0.26522282940E+02  0.00000000000E+00 0.  1.
         14    1    6    6    0    0 -0.78847423994E+02 -0.12242299312E+02  0.31334514967E+02  0.85724220563E+02  0.00000000000E+00 0. -1.
         -5    1    3    3    0  503 -0.29379744605E+02  0.10916073111E+03  0.11329406570E+02  0.11370875104E+03  0.47000000000E+01 0.  1.
         11    1    4    4    0    0  0.22506457784E+02 -0.24536789469E+02 -0.18770763257E+02  0.38222195550E+02  0.00000000000E+00 0. -1.
        -12    1    4    4    0    0  0.87491595187E+01  0.24903683513E+02  0.48026353186E+02  0.54802115335E+02  0.00000000000E+00 0.  1.
</event>
<event>
12    1  0.1598254E-001  0.1779560E+03  0.7818608E-02  0.1169883E+00
         21   -1    0    0  501  502  0.00000000000E+00  0.00000000000E+00  0.56589554388E+02  0.56589554388E+02  0.00000000000E+00 0. -1.
         21   -1    0    0  502  503 -0.00000000000E+00 -0.00000000000E+00 -0.56574993488E+03  0.56574993488E+03  0.00000000000E+00 0.  1.
         -6    2    1    2    0  503  0.19036918288E+02  0.37754833288E+02 -0.28954928267E+03  0.33967822637E+03  0.17249544541E+03 0.  0.
        -24    2    3    3    0    0 -0.22120957105E+02  0.80744349504E+02 -0.20858813028E+03  0.23908564510E+03  0.81510434184E+02 0.  0.
          6    2    1    2  501    0 -0.19036918288E+02 -0.37754833288E+02 -0.21961109783E+03  0.28266126290E+03  0.17285983790E+03 0.  0.
         24    2    5    5    0    0  0.26753931551E+02 -0.38108297756E+02 -0.21797700112E+03  0.23659948766E+03  0.79355713931E+02 0.  0.
          5    1    5    5  501    0 -0.45790849839E+02  0.35346446795E+00 -0.16340967144E+01  0.46061775239E+02  0.47000000000E+01 0. -1.
        -11    1    6    6    0    0  0.34918676921E+02  0.74681252703E+01 -0.15107458667E+03  0.15523729459E+03  0.00000000000E+00 0.  1.
         12    1    6    6    0    0 -0.81647453699E+01 -0.45576423026E+02 -0.66902414446E+02  0.81362193073E+02  0.00000000000E+00 0. -1.
         -5    1    3    3    0  503  0.41157875392E+02 -0.42989516216E+02 -0.80961152389E+02  0.10059258127E+03  0.47000000000E+01 0.  1.
         11    1    4    4    0    0 -0.23625479308E+02 -0.53529993869E+01 -0.18758239102E+02  0.30638038599E+02  0.00000000000E+00 0. -1.
        -12    1    4    4    0    0  0.15045222031E+01  0.86097348891E+02 -0.18982989117E+03  0.20844760650E+03  0.00000000000E+00 0.  1.
</event>
<event>
12    1  0.1598254E-001  0.2061570E+03  0.7818608E-02  0.1145464E+00
         21   -1    0    0  503  502  0.00000000000E+00  0.00000000000E+00  0.16050644298E+03  0.16050644298E+03  0.00000000000E+00 0. -1.
         21   -1    0    0  501  503 -0.00000000000E+00 -0.00000000000E+00 -0.37518848302E+03  0.37518848302E+03  0.00000000000E+00 0. -1.
          6    2    1    2  501    0 -0.90737312064E+02 -0.53029126306E+02 -0.25667574100E+03  0.32921595708E+03  0.17735659656E+03 0.  0.
         24    2    3    3    0    0  0.38191170404E+01 -0.49913419268E+02 -0.19178611702E+03  0.21439705961E+03  0.81720556851E+02 0.  0.
         -6    2    1    2    0  502  0.90737312064E+02  0.53029126306E+02  0.41993700950E+02  0.20647896892E+03  0.17269842399E+03 0.  0.
        -24    2    5    5    0    0  0.75124312303E+02 -0.33629640646E+02  0.68408347344E+01  0.11155098751E+03  0.74981402796E+02 0.  0.
          5    1    3    3  501    0 -0.94556429105E+02 -0.31157070378E+01 -0.64889623979E+02  0.11481889747E+03  0.47000000000E+01 0. -1.
        -11    1    4    4    0    0  0.13359973680E+02  0.16292373712E+02 -0.91188255429E+02  0.93590748827E+02  0.00000000000E+00 0.  1.
         12    1    4    4    0    0 -0.95408566393E+01 -0.66205792980E+02 -0.10059786159E+03  0.12080631079E+03  0.00000000000E+00 0. -1.
         -5    1    5    5    0  502  0.15612999761E+02  0.86658766952E+02  0.35152866216E+02  0.94927981409E+02  0.47000000000E+01 0.  1.
         13    1    6    6    0    0  0.25702799401E+02 -0.15174954887E+01 -0.31919720618E+02  0.41009818994E+02  0.00000000000E+00 0. -1.
        -14    1    6    6    0    0  0.49421512902E+02 -0.32112145157E+02  0.38760555353E+02  0.70541168514E+02  0.00000000000E+00 0.  1.
</event>
<event>
12    1  0.1598254E-001  0.2269906E+03  0.7818608E-02  0.1128875E+00
         21   -1    0    0  503  502  0.00000000000E+00  0.00000000000E+00  0.11345972175E+03  0.11345972175E+03  0.00000000000E+00 0. -1.
         21   -1    0    0  501  503 -0.00000000000E+00 -0.00000000000E+00 -0.47717690680E+03  0.47717690680E+03  0.00000000000E+00 0. -1.
          6    2    1    2  501    0  0.32280043553E+01  0.14762521030E+03 -0.11519900271E+03  0.25405671260E+03  0.17166939233E+03 0.  0.
         24    2    3    3    0    0  0.61733282578E+02  0.53194548381E+02 -0.74336895645E+02  0.13560073223E+03  0.78872849399E+02 0.  0.
         -6    2    1    2    0  502 -0.32280043553E+01 -0.14762521030E+03 -0.24851818234E+03  0.33657991595E+03  0.17239817326E+03 0.  0.
        -24    2    5    5    0    0  0.60563834646E+02 -0.69400614622E+02 -0.16178702193E+03  0.20341509223E+03  0.81964845536E+02 0.  0.
          5    1    3    3  501    0 -0.58505278223E+02  0.94430661921E+02 -0.40862107069E+02  0.11845598037E+03  0.47000000000E+01 0. -1.
        -11    1    4    4    0    0 -0.10825238712E+01 -0.18244601117E+02 -0.12402024376E+02  0.22087270915E+02  0.00000000000E+00 0.  1.
         12    1    4    4    0    0  0.62815806449E+02  0.71439149499E+02 -0.61934871269E+02  0.11351346132E+03  0.00000000000E+00 0. -1.
         -5    1    5    5    0  502 -0.63791839001E+02 -0.78224595681E+02 -0.86731160407E+02  0.13316482373E+03  0.47000000000E+01 0.  1.
         13    1    6    6    0    0 -0.60992517346E+01 -0.54692610293E+02 -0.72633791778E+02  0.91127110128E+02  0.00000000000E+00 0. -1.
        -14    1    6    6    0    0  0.66663086381E+02 -0.14708004329E+02 -0.89153230152E+02  0.11228798210E+03  0.00000000000E+00 0.  1.
</event>
<event>
12    1  0.1598254E-001  0.2342151E+03  0.7818608E-02  0.1123782E+00
         21   -1    0    0  503  502  0.00000000000E+00  0.00000000000E+00  0.57391922419E+03  0.57391922419E+03  0.00000000000E+00 0.  1.
         21   -1    0    0  501  503 -0.00000000000E+00 -0.00000000000E+00 -0.31533348054E+03  0.31533348054E+03  0.00000000000E+00 0.  1.
          6    2    1    2  501    0 -0.14865664306E+03  0.54084032100E+02 -0.24206389046E+03  0.33652604292E+03  0.17213648784E+03 0.  0.
         24    2    3    3    0    0 -0.13373431261E+03  0.36331571661E+01 -0.24173969485E+03  0.28370406047E+03  0.64434832661E+02 0.  0.
         -6    2    1    2    0  502  0.14865664306E+03 -0.54084032100E+02  0.50064963410E+03  0.55272666180E+03  0.17272181821E+03 0.  0.
        -24    2    5    5    0    0  0.17636084534E+01 -0.21326158665E+02  0.15870001782E+03  0.17909278758E+03  0.80191118895E+02 0.  0.
          5    1    3    3  501    0 -0.14922330452E+02  0.50450874934E+02 -0.32419561174E+00  0.52821982455E+02  0.47000000000E+01 0. -1.
        -13    1    4    4    0    0 -0.18626292960E+02 -0.23364993413E+02 -0.57284059142E+02  0.64609017470E+02  0.00000000000E+00 0.  1.
         14    1    4    4    0    0 -0.11510801965E+03  0.26998150579E+02 -0.18445563571E+03  0.21909504300E+03  0.00000000000E+00 0. -1.
         -5    1    5    5    0  502  0.14689303461E+03 -0.32757873435E+02  0.34194961629E+03  0.37363387423E+03  0.47000000000E+01 0.  1.
         13    1    6    6    0    0 -0.14478172649E+02  0.15164757748E+02  0.12525366196E+03  0.12699632749E+03  0.00000000000E+00 0. -1.
        -14    1    6    6    0    0  0.16241781102E+02 -0.36490916412E+02  0.33446355855E+02  0.52096460090E+02  0.00000000000E+00 0.  1.
</event>
<event>
12    1  0.1598254E-001  0.2059967E+03  0.7818608E-02  0.1144967E+00
         21   -1    0    0  501  502  0.00000000000E+00  0.00000000000E+00  0.14148192462E+03  0.14148192462E+03  0.00000000000E+00 0. -1.
         21   -1    0    0  502  503 -0.00000000000E+00 -0.00000000000E+00 -0.56641214997E+03  0.56641214997E+03  0.00000000000E+00 0. -1.
         -6    2    1    2    0  503 -0.11044676712E+03  0.15445225486E+02 -0.45560720080E+03  0.49962568951E+03  0.17207807776E+03 0.  0.
        -24    2    3    3    0    0 -0.13328987173E+03 -0.15064622935E+02 -0.28833819289E+03  0.32800497606E+03  0.80344371759E+02 0.  0.
          6    2    1    2  501    0  0.11044676712E+03 -0.15445225486E+02  0.30676975437E+02  0.20826838508E+03  0.17319815254E+03 0.  0.
         24    2    5    5    0    0  0.59983633513E+02  0.28060000619E+02 -0.39406317168E+02  0.11145417923E+03  0.80521899576E+02 0.  0.
          5    1    5    5  501    0  0.50463133603E+02 -0.43505226105E+02  0.70083292605E+02  0.96814205847E+02  0.47000000000E+01 0. -1.
        -11    1    6    6    0    0  0.29924013772E+00  0.33253253402E+02  0.89790343305E+01  0.34445485393E+02  0.00000000000E+00 0.  1.
         12    1    6    6    0    0  0.59684393376E+02 -0.51932527825E+01 -0.48385351498E+02  0.77008693838E+02  0.00000000000E+00 0. -1.
         -5    1    3    3    0  503  0.22843104609E+02  0.30509848421E+02 -0.16726900790E+03  0.17162071345E+03  0.47000000000E+01 0.  1.
         11    1    4    4    0    0 -0.83386253056E+02  0.12748044209E+02 -0.23562933579E+03  0.25027377752E+03  0.00000000000E+00 0. -1.
        -12    1    4    4    0    0 -0.49903618669E+02 -0.27812667144E+02 -0.52708857106E+02  0.77731198546E+02  0.00000000000E+00 0.  1.
</event>
<event>
12    1  0.1598254E-001  0.6452343E+03  0.7818608E-02  0.9816100E-01
         21   -1    0    0  503  502  0.00000000000E+00  0.00000000000E+00  0.10112214202E+04  0.10112214202E+04  0.00000000000E+00 0.  1.
         21   -1    0    0  501  503 -0.00000000000E+00 -0.00000000000E+00 -0.68572690450E+03  0.68572690450E+03  0.00000000000E+00 0. -1.
          6    2    1    2  501    0  0.38654292801E+03 -0.48561592668E+03 -0.37410678227E+03  0.74522924059E+03  0.17370225404E+03 0.  0.
         24    2    3    3    0    0  0.25428975077E+03 -0.41423803675E+03 -0.31543049725E+03  0.58382694048E+03  0.71421771140E+02 0.  0.
         -6    2    1    2    0  502 -0.38654292801E+03  0.48561592668E+03  0.69960129794E+03  0.95171908407E+03  0.17632066093E+03 0.  0.
        -24    2    5    5    0    0 -0.16957985098E+03  0.19096777172E+03  0.20485953972E+03  0.33634764393E+03  0.77047328761E+02 0.  0.
          5    1    3    3  501    0  0.13225317723E+03 -0.71377889931E+02 -0.58676285022E+02  0.16140230012E+03  0.47000000000E+01 0. -1.
        -13    1    4    4    0    0  0.90520646603E+02 -0.20170737515E+03 -0.11718649727E+03  0.25022495438E+03  0.00000000000E+00 0.  1.
         14    1    4    4    0    0  0.16376910417E+03 -0.21253066160E+03 -0.19824399998E+03  0.33360198610E+03  0.00000000000E+00 0. -1.
         -5    1    5    5    0  502 -0.21696307702E+03  0.29464815496E+03  0.49474175822E+03  0.61537144014E+03  0.47000000000E+01 0.  1.
         13    1    6    6    0    0 -0.13904476521E+03  0.18818846721E+03  0.16618974656E+03  0.28699717383E+03  0.00000000000E+00 0. -1.
        -14    1    6    6    0    0 -0.30535085777E+02  0.27793045141E+01  0.38669793158E+02  0.49350470108E+02  0.00000000000E+00 0.  1.
</event>
<event>
12    1  0.1598254E-001  0.1983395E+03  0.7818608E-02  0.1151197E+00
         21   -1    0    0  503  502  0.00000000000E+00  0.00000000000E+00  0.55799133817E+03  0.55799133817E+03  0.00000000000E+00 0.  1.
         21   -1    0    0  501  503 -0.00000000000E+00 -0.00000000000E+00 -0.15835026977E+03  0.15835026977E+03  0.00000000000E+00 0.  1.
          6    2    1    2  501    0  0.99055309782E+02 -0.13464104940E+02 -0.67135777542E+02  0.20917381156E+03  0.17103576906E+03 0.  0.
         24    2    3    3    0    0  0.13655876767E+03 -0.14248263614E+02 -0.44053856116E+02  0.16487946254E+03  0.79957394193E+02 0.  0.
         -6    2    1    2    0  502 -0.99055309782E+02  0.13464104940E+02  0.46677684595E+03  0.50716779638E+03  0.17130473799E+03 0.  0.
        -24    2    5    5    0    0 -0.37572502121E+02  0.69404821869E+02  0.30670575685E+03  0.32673957516E+03  0.80384118314E+02 0.  0.
          5    1    3    3  501    0 -0.37503457885E+02  0.78415867419E+00 -0.23081921426E+02  0.44294349017E+02  0.47000000000E+01 0. -1.
        -11    1    4    4    0    0  0.95126522976E+01 -0.10048313653E+02 -0.34773845479E+02  0.37425652838E+02  0.00000000000E+00 0.  1.
         12    1    4    4    0    0  0.12704611537E+03 -0.41999499607E+01 -0.92800106378E+01  0.12745380970E+03  0.00000000000E+00 0. -1.
         -5    1    5    5    0  502 -0.61482807661E+02 -0.55940716929E+02  0.16007108910E+03  0.18042822123E+03  0.47000000000E+01 0.  1.
         11    1    6    6    0    0  0.13648630372E+02  0.56924178057E+02  0.13558709354E+03  0.14768380782E+03  0.00000000000E+00 0. -1.
        -12    1    6    6    0    0 -0.51221132494E+02  0.12480643812E+02  0.17111866331E+03  0.17905576734E+03  0.00000000000E+00 0.  1.
</event>
<event>
12    1  0.1598254E-001  0.2046190E+03  0.7818608E-02  0.1146776E+00
         21   -1    0    0  501  502  0.00000000000E+00  0.00000000000E+00  0.20208995455E+02  0.20208995455E+02  0.00000000000E+00 0.  1.
         21   -1    0    0  502  503 -0.00000000000E+00 -0.00000000000E+00 -0.21520753571E+04  0.21520753571E+04  0.00000000000E+00 0.  1.
         -6    2    1    2    0  503 -0.49085034805E+02 -0.81558367650E+02 -0.13360203220E+04  0.13515987668E+04  0.18112928445E+03 0.  0.
        -24    2    3    3    0    0 -0.53558907278E+02 -0.10538800724E+02 -0.32933824041E+03  0.34239378377E+03  0.76093387982E+02 0.  0.
          6    2    1    2  501    0  0.49085034805E+02  0.81558367650E+02 -0.79584603967E+03  0.82068558577E+03  0.17633151689E+03 0.  0.
         24    2    5    5    0    0  0.64613953843E+01  0.85966730577E+02 -0.28444588400E+03  0.30747177309E+03  0.78723579222E+02 0.  0.
          5    1    5    5  501    0  0.42623639421E+02 -0.44083629272E+01 -0.51140015567E+03  0.51321381268E+03  0.47000000000E+01 0. -1.
        -11    1    6    6    0    0 -0.22739727414E+01  0.20343633896E+02 -0.19562658792E+03  0.19669467785E+03  0.00000000000E+00 0.  1.
         12    1    6    6    0    0  0.87353681257E+01  0.65623096680E+02 -0.88819296083E+02  0.11077709524E+03  0.00000000000E+00 0. -1.
         -5    1    3    3    0  503  0.44738724730E+01 -0.71019566925E+02 -0.10066820816E+04  0.10092049830E+04  0.47000000000E+01 0.  1.
         13    1    4    4    0    0 -0.32267292446E+01  0.13599688690E+02 -0.21193756339E+03  0.21239796159E+03  0.00000000000E+00 0. -1.
        -14    1    4    4    0    0 -0.50332178033E+02 -0.24138489414E+02 -0.11740067702E+03  0.12999582217E+03  0.00000000000E+00 0.  1.
</event>
<event>
12    1  0.1598254E-001  0.1762382E+03  0.7818608E-02  0.1171839E+00
         21   -1    0    0  501  502  0.00000000000E+00  0.00000000000E+00  0.49051552472E+02  0.49051552472E+02  0.00000000000E+00 0. -1.
         21   -1    0    0  502  503 -0.00000000000E+00 -0.00000000000E+00 -0.68303287160E+03  0.68303287160E+03  0.00000000000E+00 0. -1.
         -6    2    1    2    0  503 -0.32261970269E+02 -0.11771370560E+02 -0.21448514445E+03  0.27760366962E+03  0.17285982850E+03 0.  0.
        -24    2    3    3    0    0 -0.59270466774E+02 -0.58608224869E+02 -0.10814358136E+03  0.15821452504E+03  0.79930529143E+02 0.  0.
          6    2    1    2  501    0  0.32261970269E+02  0.11771370560E+02 -0.41949617468E+03  0.45448075445E+03  0.17145353803E+03 0.  0.
         24    2    5    5    0    0  0.36680262475E+02  0.38965241908E+02 -0.41452581013E+03  0.42609374212E+03  0.82828123745E+02 0.  0.
          5    1    5    5  501    0 -0.44182922062E+01 -0.27193871348E+02 -0.49703645496E+01  0.28387012323E+02  0.47000000000E+01 0. -1.
        -13    1    6    6    0    0  0.19231016199E+02  0.59546206713E+02 -0.35836772554E+03  0.36378978742E+03  0.00000000000E+00 0.  1.
         14    1    6    6    0    0  0.17449246276E+02 -0.20580964805E+02 -0.56158084583E+02  0.62303954705E+02  0.00000000000E+00 0. -1.
         -5    1    3    3    0  503  0.27008496505E+02  0.46836854309E+02 -0.10634156309E+03  0.11938914459E+03  0.47000000000E+01 0.  1.
         13    1    4    4    0    0 -0.31404566822E+02 -0.12220771310E+01 -0.84541738369E+02  0.90194488835E+02  0.00000000000E+00 0. -1.
        -14    1    4    4    0    0 -0.27865899951E+02 -0.57386147738E+02 -0.23601842995E+02  0.68020036203E+02  0.00000000000E+00 0.  1.
</event>
<event>
12    1  0.1598254E-001  0.3289514E+03  0.7818608E-02  0.1072811E+00
         21   -1    0    0  503  502  0.00000000000E+00  0.00000000000E+00  0.67277474372E+03  0.67277474372E+03  0.00000000000E+00 0. -1.
         21   -1    0    0  501  503 -0.00000000000E+00 -0.00000000000E+00 -0.17846330110E+03  0.17846330110E+03  0.00000000000E+00 0.  1.
          6    2    1    2  501    0  0.85161229341E+02 -0.26603867238E+03  0.39574431810E+03  0.50783664828E+03  0.15249749454E+03 0.  0.
         24    2    3    3    0    0  0.30393129358E+02 -0.21380009043E+03  0.22889396465E+03  0.32456214196E+03  0.79460153283E+02 0.  0.
         -6    2    1    2    0  502 -0.85161229341E+02  0.26603867238E+03  0.98567124516E+02  0.34340139654E+03  0.17372400792E+03 0.  0.
        -24    2    5    5    0    0 -0.92940424543E+02  0.27553939378E+03  0.67533938716E+02  0.30969786251E+03  0.82413913424E+02 0.  0.
          5    1    3    3  501    0  0.54768099983E+02 -0.52238581948E+02  0.16685035345E+03  0.18327450631E+03  0.47000000000E+01 0. -1.
        -13    1    4    4    0    0  0.56157132356E+02 -0.11490687464E+03  0.12907731070E+03  0.18170901324E+03  0.00000000000E+00 0.  1.
         14    1    4    4    0    0 -0.25764002998E+02 -0.98893215794E+02  0.99816653952E+02  0.14285312873E+03  0.00000000000E+00 0. -1.
         -5    1    5    5    0  502  0.77791952019E+01 -0.95007214052E+01  0.31033185801E+02  0.33703534031E+02  0.47000000000E+01 0.  1.
         13    1    6    6    0    0 -0.18842342404E+02  0.18171464816E+03  0.40851862479E+02  0.18720075291E+03  0.00000000000E+00 0. -1.
        -14    1    6    6    0    0 -0.74098082139E+02  0.93824745623E+02  0.26682076237E+02  0.12249710960E+03  0.00000000000E+00 0.  1.
</event>
<event>
12    1  0.1598254E-001  0.1876935E+03  0.7818608E-02  0.1160720E+00
         21   -1    0    0  503  502  0.00000000000E+00  0.00000000000E+00  0.46003517848E+03  0.46003517848E+03  0.00000000000E+00 0. -1.
         21   -1    0    0  501  503 -0.00000000000E+00 -0.00000000000E+00 -0.97300752594E+02  0.97300752594E+02  0.00000000000E+00 0. -1.
          6    2    1    2  501    0 -0.65754583116E+02 -0.37514178148E+02  0.52143286755E+02  0.19480192008E+03  0.17174948893E+03 0.  0.
         24    2    3    3    0    0 -0.65579355623E+01 -0.44551998289E+02 -0.27537652311E+02  0.95178047213E+02  0.79200071377E+02 0.  0.
         -6    2    1    2    0  502  0.65754583116E+02  0.37514178148E+02  0.31059113913E+03  0.36253401100E+03  0.17097682492E+03 0.  0.
        -24    2    5    5    0    0  0.95089686360E+02  0.55213750973E+02  0.16756036572E+03  0.21538199673E+03  0.78881693732E+02 0.  0.
          5    1    3    3  501    0 -0.59196647553E+02  0.70378201416E+01  0.79680939066E+02  0.99623872864E+02  0.47000000000E+01 0. -1.
        -13    1    4    4    0    0  0.94881677520E+01 -0.42176697984E+01 -0.46618320543E+02  0.47760672902E+02  0.00000000000E+00 0.  1.
         14    1    4    4    0    0 -0.16046103314E+02 -0.40334328491E+02  0.19080668232E+02  0.47417374311E+02  0.00000000000E+00 0. -1.
         -5    1    5    5    0  502 -0.29335103244E+02 -0.17699572825E+02  0.14303077341E+03  0.14715201427E+03  0.47000000000E+01 0.  1.
         13    1    6    6    0    0  0.26119471230E+02 -0.11661835124E+02  0.89968439698E+01  0.29986136417E+02  0.00000000000E+00 0. -1.
        -14    1    6    6    0    0  0.68970215130E+02  0.66875586096E+02  0.15856352175E+03  0.18539586031E+03  0.00000000000E+00 0.  1.
</event>
<event>
12    1  0.1598254E-001  0.2973644E+03  0.7818608E-02  0.1086652E+00
         21   -1    0    0  503  502  0.00000000000E+00  0.00000000000E+00  0.25952897611E+03  0.25952897611E+03  0.00000000000E+00 0.  1.
         21   -1    0    0  501  503 -0.00000000000E+00 -0.00000000000E+00 -0.34399999478E+03  0.34399999478E+03  0.00000000000E+00 0. -1.
          6    2    1    2  501    0  0.30664501095E+02  0.24078678427E+03 -0.74978258993E+02  0.30601313998E+03  0.17059811080E+03 0.  0.
         24    2    3    3    0    0 -0.45770718957E+02  0.16449393189E+03 -0.60869868352E+02  0.19699901760E+03  0.77137926616E+02 0.  0.
         -6    2    1    2    0  502 -0.30664501095E+02 -0.24078678427E+03 -0.94927596722E+01  0.29751583091E+03  0.17177592977E+03 0.  0.
        -24    2    5    5    0    0 -0.11239977944E+02 -0.36761962476E+02 -0.24627701334E+02  0.91956602297E+02  0.79823017005E+02 0.  0.
          5    1    3    3  501    0  0.76435220051E+02  0.76292852388E+02 -0.14108390641E+02  0.10901412237E+03  0.47000000000E+01 0. -1.
        -11    1    4    4    0    0  0.71214043550E-01  0.10401220082E+03 -0.76231185972E+01  0.10429120254E+03  0.00000000000E+00 0.  1.
         12    1    4    4    0    0 -0.45841933000E+02  0.60481731068E+02 -0.53246749754E+02  0.92707815062E+02  0.00000000000E+00 0. -1.
         -5    1    5    5    0  502 -0.19424523151E+02 -0.20402482180E+03  0.15134941662E+02  0.20555922861E+03  0.47000000000E+01 0.  1.
         11    1    6    6    0    0 -0.34909699931E+02 -0.51158856567E+01 -0.36428203954E+02  0.50713641939E+02  0.00000000000E+00 0. -1.
        -12    1    6    6    0    0  0.23669721987E+02 -0.31646076819E+02  0.11800502621E+02  0.41242960358E+02  0.00000000000E+00 0.  1.
</event>
<event>
12    1  0.1598254E-001  0.1727142E+03  0.7818608E-02  0.1175079E+00
         21   -1    0    0  503  502  0.00000000000E+00  0.00000000000E+00  0.44878102714E+03  0.44878102714E+03  0.00000000000E+00 0.  1.
         21   -1    0    0  501  503 -0.00000000000E+00 -0.00000000000E+00 -0.10907718598E+03  0.10907718598E+03  0.00000000000E+00 0.  1.
          6    2    1    2  501    0 -0.83320085020E+01 -0.91451856212E+01 -0.45397286114E+01  0.17277385689E+03  0.17227054218E+03 0.  0.
         24    2    3    3    0    0 -0.44812135764E+02  0.33124592795E+02 -0.51104623668E+02  0.99918429475E+02  0.65319551659E+02 0.  0.
         -6    2    1    2    0  502  0.83320085020E+01  0.91451856212E+01  0.34424356977E+03  0.38508435623E+03  0.17214316513E+03 0.  0.
        -24    2    5    5    0    0 -0.58060696274E+01 -0.32454889626E+02  0.32634573670E+03  0.33740968851E+03  0.79099479990E+02 0.  0.
          5    1    3    3  501    0  0.36480127263E+02 -0.42269778416E+02  0.46564895056E+02  0.72855427416E+02  0.47000000000E+01 0. -1.
        -13    1    4    4    0    0 -0.72407283896E+01  0.16654726168E+02 -0.55750119935E+02  0.58633471023E+02  0.00000000000E+00 0.  1.
         14    1    4    4    0    0 -0.37571407375E+02  0.16469866627E+02  0.46454962677E+01  0.41284958452E+02  0.00000000000E+00 0. -1.
         -5    1    5    5    0  502  0.14138078129E+02  0.41600075247E+02  0.17897833076E+02  0.47674667724E+02  0.47000000000E+01 0.  1.
         13    1    6    6    0    0 -0.17858876043E+02  0.85130481662E+00  0.13092379855E+02  0.22160202700E+02  0.00000000000E+00 0. -1.
        -14    1    6    6    0    0  0.12052806416E+02 -0.33306194442E+02  0.31325335684E+03  0.31524948581E+03  0.00000000000E+00 0.  1.
</event>
<event>
12    1  0.1598254E-001  0.1949095E+03  0.7818608E-02  0.1156312E+00
         21   -1    0    0  503  502  0.00000000000E+00  0.00000000000E+00  0.17294406704E+03  0.17294406704E+03  0.00000000000E+00 0.  1.
         21   -1    0    0  501  503 -0.00000000000E+00 -0.00000000000E+00 -0.22979114455E+03  0.22979114455E+03  0.00000000000E+00 0.  1.
          6    2    1    2  501    0  0.39506823986E+02  0.54429648360E+02  0.31865936154E+02  0.19749718919E+03  0.18293803894E+03 0.  0.
         24    2    3    3    0    0  0.15704119544E+02 -0.44457700996E+02  0.15819945477E+02  0.94420322640E+02  0.80260950057E+02 0.  0.
         -6    2    1    2    0  502 -0.39506823986E+02 -0.54429648360E+02 -0.88713013663E+02  0.20523802240E+03  0.17242178308E+03 0.  0.
        -24    2    5    5    0    0 -0.46269674120E+02 -0.49136359729E+00  0.10529273466E+02  0.91985224375E+02  0.78799059145E+02 0.  0.
          5    1    3    3  501    0  0.23802704443E+02  0.98887349356E+02  0.16045990676E+02  0.10307686655E+03  0.47000000000E+01 0. -1.
        -13    1    4    4    0    0  0.86751257817E+01 -0.47968535567E+01  0.44102936677E+02  0.45203281241E+02  0.00000000000E+00 0.  1.
         14    1    4    4    0    0  0.70289937620E+01 -0.39660847439E+02 -0.28282991200E+02  0.49217041399E+02  0.00000000000E+00 0. -1.
         -5    1    5    5    0  502  0.67628501336E+01 -0.53938284763E+02 -0.99242287129E+02  0.11325279802E+03  0.47000000000E+01 0.  1.
         13    1    6    6    0    0 -0.11664575430E+02 -0.37715517388E+02  0.11607122554E+02  0.41149093134E+02  0.00000000000E+00 0. -1.
        -14    1    6    6    0    0 -0.34605098690E+02  0.37224153791E+02 -0.10778490874E+01  0.50836131240E+02  0.00000000000E+00 0.  1.
</event>
<event>
12    1  0.1598254E-001  0.1903399E+03  0.7818608E-02  0.1158573E+00
         21   -1    0    0  503  502  0.00000000000E+00  0.00000000000E+00  0.20022435146E+03  0.20022435146E+03  0.00000000000E+00 0. -1.
         21   -1    0    0  501  503 -0.00000000000E+00 -0.00000000000E+00 -0.21385030188E+03  0.21385030188E+03  0.00000000000E+00 0. -1.
          6    2    1    2  501    0 -0.75803237553E+02 -0.26213507564E+02 -0.90189635286E+02  0.21062635050E+03  0.17261520909E+03 0.  0.
         24    2    3    3    0    0  0.48939628115E+01  0.14595586233E+01 -0.96622997561E+02  0.12494487707E+03  0.79051486161E+02 0.  0.
         -6    2    1    2    0  502  0.75803237553E+02  0.26213507564E+02  0.76563684871E+02  0.20344830284E+03  0.17057530679E+03 0.  0.
        -24    2    5    5    0    0  0.25064825286E+02 -0.20560630228E+01  0.10836280527E+03  0.13706435027E+03  0.80072877352E+02 0.  0.
          5    1    3    3  501    0 -0.80697200364E+02 -0.27673066188E+02  0.64333622746E+01  0.85681473429E+02  0.47000000000E+01 0. -1.
        -11    1    4    4    0    0 -0.91458350020E+01  0.34956603240E+02 -0.73464157128E+02  0.81869364175E+02  0.00000000000E+00 0.  1.
         12    1    4    4    0    0  0.14039797814E+02 -0.33497044616E+02 -0.23158840433E+02  0.43075512892E+02  0.00000000000E+00 0. -1.
         -5    1    5    5    0  502  0.50738412267E+02  0.28269570587E+02 -0.31799120402E+02  0.66383952571E+02  0.47000000000E+01 0.  1.
         11    1    6    6    0    0  0.25502682164E+02  0.29571908462E+02  0.21403356213E+02  0.44530755943E+02  0.00000000000E+00 0. -1.
        -12    1    6    6    0    0 -0.43785687772E+00 -0.31627971485E+02  0.86959449060E+02  0.92533594331E+02  0.00000000000E+00 0.  1.
</event>
<event>
12    1  0.1598254E-001  0.1960848E+03  0.7818608E-02  0.1153160E+00
         21   -1    0    0  501  502  0.00000000000E+00  0.00000000000E+00  0.32324660586E+02  0.32324660586E+02  0.00000000000E+00 0.  1.
         21   -1    0    0  502  503 -0.00000000000E+00 -0.00000000000E+00 -0.15108649823E+04  0.15108649823E+04  0.00000000000E+00 0. -1.
         -6    2    1    2    0  503  0.62374527249E+02 -0.68918623011E+02 -0.10968130723E+04  0.11142029217E+04  0.17265247447E+03 0.  0.
        -24    2    3    3    0    0  0.36803870186E+02  0.27957039137E+02 -0.39622472783E+03  0.40647071895E+03  0.78027492104E+02 0.  0.
          6    2    1    2  501    0 -0.62374527249E+02  0.68918623011E+02 -0.38172724948E+03  0.42898672124E+03  0.17226013977E+03 0.  0.
         24    2    5    5    0    0  0.38286376113E+01  0.76467410898E+02 -0.13947271858E+03  0.17769169348E+03  0.79118741817E+02 0.  0.
          5    1    5    5  501    0 -0.66203164860E+02 -0.75487878866E+01 -0.24225453090E+03  0.25129502776E+03  0.47000000000E+01 0. -1.
        -11    1    6    6    0    0 -0.20845105449E+02  0.55593960150E+02 -0.13168029246E+03  0.14444689768E+03  0.00000000000E+00 0.  1.
         12    1    6    6    0    0  0.24673743060E+02  0.20873450747E+02 -0.77924261180E+01  0.33244795796E+02  0.00000000000E+00 0. -1.
         -5    1    3    3    0  503  0.25570657063E+02 -0.96875662148E+02 -0.70058834443E+03  0.70773220272E+03  0.47000000000E+01 0.  1.
         13    1    4    4    0    0  0.12446822548E+02 -0.27438915680E+02 -0.12578807361E+03  0.12934626763E+03  0.00000000000E+00 0. -1.
        -14    1    4    4    0    0  0.24357047638E+02  0.55395954817E+02 -0.27043665421E+03  0.27712445132E+03  0.00000000000E+00 0.  1.
</event>
<event>
12    1  0.1598254E-001  0.1759443E+03  0.7818608E-02  0.1171845E+00
         21   -1    0    0  501  502  0.00000000000E+00  0.00000000000E+00  0.35903529576E+03  0.35903529576E+03  0.00000000000E+00 0. -1.
         21   -1    0    0  502  503 -0.00000000000E+00 -0.00000000000E+00 -0.90974109766E+02  0.90974109766E+02  0.00000000000E+00 0. -1.
         -6    2    1    2    0  503  0.19667392292E+02 -0.34309925400E+02  0.82071874497E+02  0.19414480479E+03  0.17144222158E+03 0.  0.
        -24    2    3    3    0    0 -0.28897990796E+02  0.12244598564E+02  0.91547649233E+02  0.12604340654E+03  0.80752363351E+02 0.  0.
          6    2    1    2  501    0 -0.19667392292E+02  0.34309925400E+02  0.18598931150E+03  0.25586460074E+03  0.17120365831E+03 0.  0.
         24    2    5    5    0    0  0.38070612011E+01  0.57384031995E+02  0.43315914110E+02  0.10936800459E+03  0.82326612764E+02 0.  0.
          5    1    5    5  501    0 -0.23474453493E+02 -0.23074106594E+02  0.14267339739E+03  0.14649659615E+03  0.47000000000E+01 0. -1.
        -11    1    6    6    0    0 -0.36667840645E+02  0.13959837416E+02  0.72234941326E+01  0.39894692200E+02  0.00000000000E+00 0.  1.
         12    1    6    6    0    0  0.40474901846E+02  0.43424194578E+02  0.36092419977E+02  0.69473312387E+02  0.00000000000E+00 0. -1.
         -5    1    3    3    0  503  0.48565383088E+02 -0.46554523965E+02 -0.94757747357E+01  0.68101398245E+02  0.47000000000E+01 0.  1.
         11    1    4    4    0    0 -0.38267017301E+02 -0.14106824337E+02  0.13221523569E+02  0.42873952366E+02  0.00000000000E+00 0. -1.
        -12    1    4    4    0    0  0.93690265052E+01  0.26351422901E+02  0.78326125664E+02  0.83169454177E+02  0.00000000000E+00 0.  1.
</event>
<event>
12    1  0.1598254E-001  0.2041974E+03  0.7818608E-02  0.1148159E+00
         21   -1    0    0  503  502  0.00000000000E+00  0.00000000000E+00  0.10170843661E+04  0.10170843661E+04  0.00000000000E+00 0. -1.
         21   -1    0    0  501  503 -0.00000000000E+00 -0.00000000000E+00 -0.98386102160E+02  0.98386102160E+02  0.00000000000E+00 0. -1.
          6    2    1    2  501    0 -0.85841198956E+02  0.22524761814E+02  0.30941397735E+02  0.20652833906E+03  0.18390353017E+03 0.  0.
         24    2    3    3    0    0 -0.12685792899E+03  0.15696091098E+02 -0.22503627326E+01  0.15311686230E+03  0.84263918523E+02 0.  0.
         -6    2    1    2    0  502  0.85841198956E+02 -0.22524761814E+02  0.88775686617E+03  0.90894212916E+03  0.17374540110E+03 0.  0.
        -24    2    5    5    0    0  0.90819811498E+01 -0.45926475275E+02  0.26201076267E+03  0.27805395067E+03  0.80452695534E+02 0.  0.
          5    1    3    3  501    0  0.41016730036E+02  0.68286707157E+01  0.33191760468E+02  0.53411476758E+02  0.47000000000E+01 0. -1.
        -13    1    4    4    0    0  0.61470515612E+01 -0.90526415229E+01 -0.13481677755E+02  0.17363530647E+02  0.00000000000E+00 0.  1.
         14    1    4    4    0    0 -0.13300498055E+03  0.24748732621E+02  0.11231315022E+02  0.13575333165E+03  0.00000000000E+00 0. -1.
         -5    1    5    5    0  502  0.76759217806E+02  0.23401713461E+02  0.62574610350E+03  0.63088817849E+03  0.47000000000E+01 0.  1.
         11    1    6    6    0    0  0.35081166875E+02 -0.69668489584E+01  0.53548753061E+02  0.64394830601E+02  0.00000000000E+00 0. -1.
        -12    1    6    6    0    0 -0.25999185725E+02 -0.38959626316E+02  0.20846200960E+03  0.21365912007E+03  0.00000000000E+00 0.  1.
</event>
<event>
12    1  0.1598254E-001  0.1866336E+03  0.7818608E-02  0.1162546E+00
         21   -1    0    0  501  502  0.00000000000E+00  0.00000000000E+00  0.29267663218E+03  0.29267663218E+03  0.00000000000E+00 0.  1.
         21   -1    0    0  502  503 -0.00000000000E+00 -0.00000000000E+00 -0.12660791878E+03  0.12660791878E+03  0.00000000000E+00 0.  1.
         -6    2    1    2    0  503 -0.31386500707E+02 -0.63470617579E+02  0.22218196798E+02  0.18364695120E+03  0.16798488829E+03 0.  0.
        -24    2    3    3    0    0  0.47007720824E+02 -0.14222053232E+02 -0.48073712934E+01  0.87088438424E+02  0.71758572123E+02 0.  0.
          6    2    1    2  501    0  0.31386500707E+02  0.63470617579E+02  0.14385051661E+03  0.23563759975E+03  0.17268026977E+03 0.  0.
         24    2    5    5    0    0  0.18834881579E+02  0.99452555758E+01  0.19618984482E+00  0.81750748080E+02  0.78927089447E+02 0.  0.
          5    1    5    5  501    0  0.12551619127E+02  0.53525362003E+02  0.14365432676E+03  0.15388685167E+03  0.47000000000E+01 0. -1.
        -13    1    6    6    0    0  0.45375619564E+02  0.18534783805E+02  0.13506374232E+02  0.50841982715E+02  0.00000000000E+00 0.  1.
         14    1    6    6    0    0 -0.26540737985E+02 -0.85895282291E+01 -0.13310184387E+02  0.30908765365E+02  0.00000000000E+00 0. -1.
         -5    1    3    3    0  503 -0.78394221531E+02 -0.49248564347E+02  0.27025568091E+02  0.96558512780E+02  0.47000000000E+01 0.  1.
         13    1    4    4    0    0  0.53049862334E+02 -0.20596773221E+02  0.20353785821E+02  0.60438328551E+02  0.00000000000E+00 0. -1.
        -14    1    4    4    0    0 -0.60421415096E+01  0.63747199889E+01 -0.25161157114E+02  0.26650109874E+02  0.00000000000E+00 0.  1.
</event>
<event>
12    1  0.1598254E-001  0.1758884E+03  0.7818608E-02  0.1171852E+00
         21   -1    0    0  503  502  0.00000000000E+00  0.00000000000E+00  0.50632784910E+03  0.50632784910E+03  0.00000000000E+00 0.  1.
         21   -1    0    0  501  503 -0.00000000000E+00 -0.00000000000E+00 -0.10274171895E+03  0.10274171895E+03  0.00000000000E+00 0.  1.
          6    2    1    2  501    0 -0.33629080745E+02  0.16617354694E+02  0.78977512776E+01  0.17606566142E+03  0.17184205279E+03 0.  0.
         24    2    3    3    0    0  0.17636585175E+02  0.17226330241E+02  0.54166280710E+02  0.10684567753E+03  0.88736786349E+02 0.  0.
         -6    2    1    2    0  502  0.33629080745E+02 -0.16617354694E+02  0.39568837888E+03  0.43300390662E+03  0.17180232369E+03 0.  0.
        -24    2    5    5    0    0  0.22938309534E+02 -0.39650393336E+02  0.10426383570E+03  0.14043738800E+03  0.82179028808E+02 0.  0.
          5    1    3    3  501    0 -0.51265665920E+02 -0.60897554775E+00 -0.46268529432E+02  0.69219983886E+02  0.47000000000E+01 0. -1.
        -13    1    4    4    0    0 -0.14562770906E+02  0.45288753815E+01 -0.19911259453E+02  0.25080734872E+02  0.00000000000E+00 0.  1.
         14    1    4    4    0    0  0.32199356081E+02  0.12697454860E+02  0.74077540163E+02  0.81764942662E+02  0.00000000000E+00 0. -1.
         -5    1    5    5    0  502  0.10690771211E+02  0.23033038643E+02  0.29142454317E+03  0.29256651863E+03  0.47000000000E+01 0.  1.
         13    1    6    6    0    0 -0.26334092681E+02 -0.71861730773E+01  0.62339876706E+02  0.68054285306E+02  0.00000000000E+00 0. -1.
        -14    1    6    6    0    0  0.49272402215E+02 -0.32464220259E+02  0.41923958997E+02  0.72383102690E+02  0.00000000000E+00 0.  1.
</event>
<event>
12    1  0.1598254E-001  0.2535011E+03  0.7818608E-02  0.1111177E+00
         21   -1    0    0  503  502  0.00000000000E+00  0.00000000000E+00  0.13646962770E+04  0.13646962770E+04  0.00000000000E+00 0. -1.
         21   -1    0    0  501  503 -0.00000000000E+00 -0.00000000000E+00 -0.61015627374E+02  0.61015627374E+02  0.00000000000E+00 0. -1.
          6    2    1    2  501    0  0.64118764828E+02 -0.17503146830E+03  0.30991932546E+03  0.40012700179E+03  0.17118527498E+03 0.  0.
         24    2    3    3    0    0  0.53744590505E+02 -0.29230672005E+02  0.17589151442E+03  0.20175603662E+03  0.77619329236E+02 0.  0.
         -6    2    1    2    0  502 -0.64118764828E+02  0.17503146830E+03  0.99376132420E+03  0.10255849026E+04  0.17180102476E+03 0.  0.
        -24    2    5    5    0    0 -0.15808801760E+02  0.12779267686E+03  0.40184379591E+03  0.42980490443E+03  0.81688022903E+02 0.  0.
          5    1    3    3  501    0  0.10374174323E+02 -0.14580079629E+03  0.13402781104E+03  0.19837096517E+03  0.47000000000E+01 0. -1.
        -13    1    4    4    0    0  0.29521447429E+02 -0.25757952165E+02  0.17268776289E+03  0.17707639992E+03  0.00000000000E+00 0.  1.
         14    1    4    4    0    0  0.24223143075E+02 -0.34727198396E+01  0.32037515356E+01  0.24679636696E+02  0.00000000000E+00 0. -1.
         -5    1    5    5    0  502 -0.48309963068E+02  0.47238791430E+02  0.59191752829E+03  0.59577999819E+03  0.47000000000E+01 0.  1.
         11    1    6    6    0    0 -0.35410788932E+02  0.11618314314E+03  0.37706605084E+03  0.39614549527E+03  0.00000000000E+00 0. -1.
        -12    1    6    6    0    0  0.19601987172E+02  0.11609533724E+02  0.24777745066E+02  0.33659409159E+02  0.00000000000E+00 0.  1.
</event>
<event>
12    1  0.1598254E-001  0.2371870E+03  0.7818608E-02  0.1122151E+00
         21   -1    0    0  503  502  0.00000000000E+00  0.00000000000E+00  0.37595850037E+03  0.37595850037E+03  0.00000000000E+00 0.  1.
         21   -1    0    0  501  503 -0.00000000000E+00 -0.00000000000E+00 -0.15320577806E+03  0.15320577806E+03  0.00000000000E+00 0.  1.
          6    2    1    2  501    0  0.12578236981E+03  0.97055493045E+02  0.15998176276E+03  0.28381177715E+03  0.17237745544E+03 0.  0.
         24    2    3    3    0    0  0.74918011856E+02  0.13337333912E+03  0.12166967452E+03  0.21035379624E+03  0.77743512932E+02 0.  0.
         -6    2    1    2    0  502 -0.12578236981E+03 -0.97055493045E+02  0.62770959551E+02  0.24535250129E+03  0.17611553946E+03 0.  0.
        -24    2    5    5    0    0 -0.13632336493E+03 -0.12570637826E+03  0.35312093058E+02  0.20402375644E+03  0.77411859016E+02 0.  0.
          5    1    3    3  501    0  0.50864357958E+02 -0.36317846078E+02  0.38312088237E+02  0.73457980910E+02  0.47000000000E+01 0. -1.
        -13    1    4    4    0    0  0.67335679136E+02  0.89249593964E+02  0.42899550211E+02  0.11974955163E+03  0.00000000000E+00 0.  1.
         14    1    4    4    0    0  0.75823327203E+01  0.44123745158E+02  0.78770124312E+02  0.90604244604E+02  0.00000000000E+00 0. -1.
         -5    1    5    5    0  502  0.10540995115E+02  0.28650885214E+02  0.27458866493E+02  0.41328744847E+02  0.47000000000E+01 0.  1.
         11    1    6    6    0    0 -0.54213491113E+02 -0.99866650708E+02  0.88901339357E+01  0.11398019575E+03  0.00000000000E+00 0. -1.
        -12    1    6    6    0    0 -0.82109873816E+02 -0.25839727551E+02  0.26421959122E+02  0.90043560691E+02  0.00000000000E+00 0.  1.
</event>
<event>
12    1  0.1598254E-001  0.1925705E+03  0.7818608E-02  0.1156367E+00
         21   -1    0    0  503  502  0.00000000000E+00  0.00000000000E+00  0.54022552252E+03  0.54022552252E+03  0.00000000000E+00 0. -1.
         21   -1    0    0  501  503 -0.00000000000E+00 -0.00000000000E+00 -0.28300054316E+03  0.28300054316E+03  0.00000000000E+00 0. -1.
          6    2    1    2  501    0  0.84338539813E+02 -0.97116725591E+01 -0.22981769996E+03  0.29983256421E+03  0.17284700016E+03 0.  0.
         24    2    3    3    0    0  0.54219541187E+02  0.46936046138E+02 -0.71202228898E+02  0.12866867850E+03  0.79643708812E+02 0.  0.
         -6    2    1    2    0  502 -0.84338539813E+02  0.97116725591E+01  0.48704267933E+03  0.52339350146E+03  0.17182223374E+03 0.  0.
        -24    2    5    5    0    0  0.18250945417E+02 -0.12330670114E+02  0.27088617134E+03  0.28306831906E+03  0.79140463745E+02 0.  0.
          5    1    3    3  501    0  0.30118998627E+02 -0.56647718697E+02 -0.15861547106E+03  0.17116388571E+03  0.47000000000E+01 0. -1.
        -13    1    4    4    0    0  0.22645534718E+02  0.61139413265E+02 -0.22617296288E+02  0.69010073094E+02  0.00000000000E+00 0.  1.
         14    1    4    4    0    0  0.31574006468E+02 -0.14203367127E+02 -0.48584932611E+02  0.59658605406E+02  0.00000000000E+00 0. -1.
         -5    1    5    5    0  502 -0.10258948523E+03  0.22042342673E+02  0.21615650799E+03  0.24032518240E+03  0.47000000000E+01 0.  1.
         11    1    6    6    0    0 -0.14276173637E+02  0.25833985176E+02  0.13591412849E+03  0.13908218523E+03  0.00000000000E+00 0. -1.
        -12    1    6    6    0    0  0.32527119054E+02 -0.38164655290E+02  0.13497204284E+03  0.14398613383E+03  0.00000000000E+00 0.  1.
</event>
<event>
12    1  0.1598254E-001  0.2137758E+03  0.7818608E-02  0.1138837E+00
         21   -1    0    0  501  502  0.00000000000E+00  0.00000000000E+00  0.73801690935E+02  0.73801690935E+02  0.00000000000E+00 0. -1.
         21   -1    0    0  502  503 -0.00000000000E+00 -0.00000000000E+00 -0.65542362926E+03  0.65542362926E+03  0.00000000000E+00 0. -1.
         -6    2    1    2    0  503  0.61500579498E+02 -0.11180628438E+03 -0.37964955604E+03  0.43512851152E+03  0.17005901808E+03 0.  0.
        -24    2    3    3    0    0 -0.18914843071E+02 -0.94603284644E+02 -0.26584478494E+03  0.29464292752E+03  0.82664698042E+02 0.  0.
          6    2    1    2  501    0 -0.61500579498E+02  0.11180628438E+03 -0.20197238229E+03  0.29409680868E+03  0.17151420688E+03 0.  0.
         24    2    5    5    0    0 -0.16183569076E+02  0.12875790151E+03 -0.19035119235E+03  0.24411550405E+03  0.80735975735E+02 0.  0.
          5    1    5    5  501    0 -0.45317010422E+02 -0.16951617130E+02 -0.11621189934E+02  0.49981304629E+02  0.47000000000E+01 0. -1.
        -11    1    6    6    0    0 -0.45899761949E+02  0.10285980952E+03 -0.15136066318E+03  0.18867161662E+03  0.00000000000E+00 0.  1.
         12    1    6    6    0    0  0.29716192874E+02  0.25898091994E+02 -0.38990529173E+02  0.55443887427E+02  0.00000000000E+00 0. -1.
         -5    1    3    3    0  503  0.80415422570E+02 -0.17202999736E+02 -0.11380477110E+03  0.14048558400E+03  0.47000000000E+01 0.  1.
         13    1    4    4    0    0 -0.84959510713E+00  0.75304175987E+01 -0.91250165725E+02  0.91564303884E+02  0.00000000000E+00 0. -1.
        -14    1    4    4    0    0 -0.18065247964E+02 -0.10213370224E+03 -0.17459461922E+03  0.20307862364E+03  0.00000000000E+00 0.  1.
</event>
<event>
12    1  0.1598254E-001  0.2047428E+03  0.7818608E-02  0.1145984E+00
         21   -1    0    0  503  502  0.00000000000E+00  0.00000000000E+00  0.15650841452E+03  0.15650841452E+03  0.00000000000E+00 0. -1.
         21   -1    0    0  501  503 -0.00000000000E+00 -0.00000000000E+00 -0.29847889132E+03  0.29847889132E+03  0.00000000000E+00 0.  1.
          6    2    1    2  501    0  0.10967035401E+03 -0.14731098457E+02 -0.14540867156E+03  0.25112406025E+03  0.17226438999E+03 0.  0.
         24    2    3    3    0    0  0.50811096742E+02  0.19821567269E+02 -0.56659491099E+01  0.95533516337E+02  0.78229711001E+02 0.  0.
         -6    2    1    2    0  502 -0.10967035401E+03  0.14731098457E+02  0.34381947604E+01  0.20386324559E+03  0.17118355618E+03 0.  0.
        -24    2    5    5    0    0 -0.13248260951E+03  0.28335703964E+02  0.34829230958E+02  0.16247518638E+03  0.82647183367E+02 0.  0.
          5    1    3    3  501    0  0.58859257272E+02 -0.34552665726E+02 -0.13974272245E+03  0.15559054391E+03  0.47000000000E+01 0. -1.
        -13    1    4    4    0    0  0.47277833288E+02  0.44931657232E+01 -0.37178692863E+02  0.60312828334E+02  0.00000000000E+00 0.  1.
         14    1    4    4    0    0  0.35332634539E+01  0.15328401546E+02  0.31512743753E+02  0.35220688003E+02  0.00000000000E+00 0. -1.
         -5    1    5    5    0  502  0.22812255490E+02 -0.13604605507E+02 -0.31391036198E+02  0.41388059210E+02  0.47000000000E+01 0.  1.
         13    1    6    6    0    0 -0.71572386748E+02 -0.20122835573E+02 -0.59859174467E+01  0.74587976672E+02  0.00000000000E+00 0. -1.
        -14    1    6    6    0    0 -0.60910222757E+02  0.48458539537E+02  0.40815148405E+02  0.87887209705E+02  0.00000000000E+00 0.  1.
</event>
<event>
12    1  0.1598254E-001  0.1819010E+03  0.7818608E-02  0.1166263E+00
         21   -1    0    0  503  502  0.00000000000E+00  0.00000000000E+00  0.14510418914E+04  0.14510418914E+04  0.00000000000E+00 0.  1.
         21   -1    0    0  501  503 -0.00000000000E+00 -0.00000000000E+00 -0.24962161807E+02  0.24962161807E+02  0.00000000000E+00 0.  1.
          6    2    1    2  501    0  0.48550741222E+02 -0.21686812512E+02  0.49070655120E+03  0.52333631940E+03  0.17395542965E+03 0.  0.
         24    2    3    3    0    0  0.74120752461E+02 -0.60608591121E+02  0.41592191011E+03  0.43511181675E+03  0.84640241634E+02 0.  0.
         -6    2    1    2    0  502 -0.48550741222E+02  0.21686812512E+02  0.93537317841E+03  0.95266773383E+03  0.17270013279E+03 0.  0.
        -24    2    5    5    0    0  0.34033272087E+02  0.30005186466E+02  0.35494108587E+03  0.36631219437E+03  0.78376491878E+02 0.  0.
          5    1    3    3  501    0 -0.25570011240E+02  0.38921778610E+02  0.74784641089E+02  0.88224502650E+02  0.47000000000E+01 0. -1.
        -13    1    4    4    0    0  0.70582695631E+02 -0.53964610194E+01  0.19789451833E+03  0.21017440163E+03  0.00000000000E+00 0.  1.
         14    1    4    4    0    0  0.35380568306E+01 -0.55212130102E+02  0.21802739178E+03  0.22493741512E+03  0.00000000000E+00 0. -1.
         -5    1    5    5    0  502 -0.82584013309E+02 -0.83183739541E+01  0.58043209254E+03  0.58635553946E+03  0.47000000000E+01 0.  1.
         13    1    6    6    0    0  0.28944806202E+02  0.54290609378E+02  0.29659824844E+03  0.30291218703E+03  0.00000000000E+00 0. -1.
        -14    1    6    6    0    0  0.50884658856E+01 -0.24285422912E+02  0.58342837434E+02  0.63400007342E+02  0.00000000000E+00 0.  1.
</event>
<event>
12    1  0.1598254E-001  0.1818117E+03  0.7818608E-02  0.1166446E+00
         21   -1    0    0  501  502  0.00000000000E+00  0.00000000000E+00  0.17087316895E+03  0.17087316895E+03  0.00000000000E+00 0.  1.
         21   -1    0    0  502  503 -0.00000000000E+00 -0.00000000000E+00 -0.64150436829E+03  0.64150436829E+03  0.00000000000E+00 0.  1.
         -6    2    1    2    0  503 -0.47507407298E+02  0.25852242857E+02 -0.57573413745E+03  0.60375931149E+03  0.17358057775E+03 0.  0.
        -24    2    3    3    0    0  0.23429281971E+02  0.49605622849E+02 -0.36394421793E+03  0.37909668229E+03  0.90825391217E+02 0.  0.
          6    2    1    2  501    0  0.47507407298E+02 -0.25852242857E+02  0.10510293810E+03  0.20861822576E+03  0.17190009980E+03 0.  0.
         24    2    5    5    0    0 -0.33881552415E+02 -0.30879433706E+02  0.33599224629E+02  0.10006268029E+03  0.82353707087E+02 0.  0.
          5    1    5    5  501    0  0.81388959712E+02  0.50271908488E+01  0.71503713474E+02  0.10855554547E+03  0.47000000000E+01 0. -1.
        -11    1    6    6    0    0 -0.78275080774E+01 -0.56853540468E+02  0.22398454887E+02  0.61605890366E+02  0.00000000000E+00 0.  1.
         12    1    6    6    0    0 -0.26054044337E+02  0.25974106762E+02  0.11200769742E+02  0.38456789924E+02  0.00000000000E+00 0. -1.
         -5    1    3    3    0  503 -0.70936689269E+02 -0.23753379992E+02 -0.21178991952E+03  0.22466262919E+03  0.47000000000E+01 0.  1.
         13    1    4    4    0    0  0.29666258351E+02 -0.14678887866E+02 -0.61583284064E+02  0.69914644458E+02  0.00000000000E+00 0. -1.
        -14    1    4    4    0    0 -0.62369763798E+01  0.64284510715E+02 -0.30236093386E+03  0.30918203783E+03  0.00000000000E+00 0.  1.
</event>
<event>
12    1  0.1598254E-001  0.1854187E+03  0.7818608E-02  0.1162789E+00
         21   -1    0    0  501  502  0.00000000000E+00  0.00000000000E+00  0.24244953196E+03  0.24244953196E+03  0.00000000000E+00 0. -1.
         21   -1    0    0  502  503 -0.00000000000E+00 -0.00000000000E+00 -0.39009830518E+03  0.39009830518E+03  0.00000000000E+00 0.  1.
         -6    2    1    2    0  503  0.65915955626E+02  0.10741555463E+02 -0.32640536210E+03  0.37539384903E+03  0.17297337155E+03 0.  0.
        -24    2    3    3    0    0 -0.99254663806E+01  0.23721081409E+02 -0.78221839901E+02  0.11551399203E+03  0.81016180676E+02 0.  0.
          6    2    1    2  501    0 -0.65915955626E+02 -0.10741555463E+02  0.17875658888E+03  0.25715398810E+03  0.17237738050E+03 0.  0.
         24    2    5    5    0    0  0.52113390021E+01 -0.58612779851E+02  0.63866792753E+02  0.11372281499E+03  0.73425441213E+02 0.  0.
          5    1    5    5  501    0 -0.71127294628E+02  0.47871224388E+02  0.11488979613E+03  0.14343117311E+03  0.47000000000E+01 0. -1.
        -13    1    6    6    0    0 -0.21390625522E+02 -0.54671847614E+02  0.63976019845E+02  0.86830299417E+02  0.00000000000E+00 0.  1.
         14    1    6    6    0    0  0.26601964524E+02 -0.39409322375E+01 -0.10922709201E+00  0.26892515576E+02  0.00000000000E+00 0. -1.
         -5    1    3    3    0  503  0.75841422007E+02 -0.12979525946E+02 -0.24818352220E+03  0.25987985700E+03  0.47000000000E+01 0.  1.
         13    1    4    4    0    0 -0.30309426925E+02  0.31819140418E+01  0.16913904731E+01  0.30522888776E+02  0.00000000000E+00 0. -1.
        -14    1    4    4    0    0  0.20383960544E+02  0.20539167367E+02 -0.79913230375E+02  0.84991103255E+02  0.00000000000E+00 0.  1.
</event>
<event>
12    1  0.1598254E-001  0.2406126E+03  0.7818608E-02  0.1119663E+00
         21   -1    0    0  501  502  0.00000000000E+00  0.00000000000E+00  0.81368335724E+02  0.81368335724E+02  0.00000000000E+00 0. -1.
         21   -1    0    0  502  503 -0.00000000000E+00 -0.00000000000E+00 -0.11728891573E+04  0.11728891573E+04  0.00000000000E+00 0. -1.
         -6    2    1    2    0  503 -0.10659745037E+03  0.12730162705E+03 -0.94003684695E+03  0.96993057516E+03  0.17183517195E+03 0.  0.
        -24    2    3    3    0    0  0.12089174785E+02  0.36959848933E+02 -0.32142913538E+03  0.33357710209E+03  0.80279607550E+02 0.  0.
          6    2    1    2  501    0  0.10659745037E+03 -0.12730162705E+03 -0.15148397464E+03  0.28432691788E+03  0.17414270294E+03 0.  0.
         24    2    5    5    0    0  0.94766472792E+02 -0.10525463834E+03 -0.39383272023E+02  0.16937171240E+03  0.84122004184E+02 0.  0.
          5    1    5    5  501    0  0.11830977579E+02 -0.22046988710E+02 -0.11210070261E+03  0.11495520548E+03  0.47000000000E+01 0. -1.
        -13    1    6    6    0    0  0.39160817519E+02 -0.95365926709E+02 -0.45255749804E+02  0.11258913134E+03  0.00000000000E+00 0.  1.
         14    1    6    6    0    0  0.55605655273E+02 -0.98887116276E+01  0.58724777808E+01  0.56782581055E+02  0.00000000000E+00 0. -1.
         -5    1    3    3    0  503 -0.11868662516E+03  0.90341778115E+02 -0.61860771157E+03  0.63635347307E+03  0.47000000000E+01 0.  1.
         11    1    4    4    0    0 -0.33269818297E+02  0.23272347793E+02 -0.12124491893E+03  0.12786247826E+03  0.00000000000E+00 0. -1.
        -12    1    4    4    0    0  0.45358993082E+02  0.13687501139E+02 -0.20018421645E+03  0.20571462383E+03  0.00000000000E+00 0.  1.
</event>
<event>
12    1  0.1598254E-001  0.2266158E+03  0.7818608E-02  0.1129080E+00
         21   -1    0    0  503  502  0.00000000000E+00  0.00000000000E+00  0.66467319639E+03  0.66467319639E+03  0.00000000000E+00 0. -1.
         21   -1    0    0  501  503 -0.00000000000E+00 -0.00000000000E+00 -0.93509529358E+02  0.93509529358E+02  0.00000000000E+00 0. -1.
          6    2    1    2  501    0  0.70975442203E+02  0.12788662793E+03  0.12734513873E+03  0.25994518389E+03  0.17309595971E+03 0.  0.
         24    2    3    3    0    0 -0.18270357827E+02  0.86004928966E+02  0.36860119450E+02  0.12604776702E+03  0.82454335134E+02 0.  0.
         -6    2    1    2    0  502 -0.70975442203E+02 -0.12788662793E+03  0.44381852831E+03  0.49823754186E+03  0.17283882392E+03 0.  0.
        -24    2    5    5    0    0 -0.86304751143E+02 -0.32428446191E+02  0.18172087442E+03  0.21883725133E+03  0.79794437025E+02 0.  0.
          5    1    3    3  501    0  0.89245800030E+02  0.41881698963E+02  0.90485019277E+02  0.13389741687E+03  0.47000000000E+01 0. -1.
        -13    1    4    4    0    0  0.72853752598E+01  0.97614354820E+01 -0.22847868420E+02  0.25891840543E+02  0.00000000000E+00 0.  1.
         14    1    4    4    0    0 -0.25555733087E+02  0.76243493484E+02  0.59707987870E+02  0.10015592647E+03  0.00000000000E+00 0. -1.
         -5    1    5    5    0  502  0.15329308940E+02 -0.95458181738E+02  0.26209765389E+03  0.27940029053E+03  0.47000000000E+01 0.  1.
         13    1    6    6    0    0 -0.52635681853E+02 -0.58181974806E+02  0.10359191254E+03  0.12994976545E+03  0.00000000000E+00 0. -1.
        -14    1    6    6    0    0 -0.33669069290E+02  0.25753528615E+02  0.78128961878E+02  0.88887485886E+02  0.00000000000E+00 0.  1.
</event>
<event>
12    1  0.1598254E-001  0.1738492E+03  0.7818608E-02  0.1173940E+00
         21   -1    0    0  501  502  0.00000000000E+00  0.00000000000E+00  0.20650075738E+02  0.20650075738E+02  0.00000000000E+00 0.  1.
         21   -1    0    0  502  503 -0.00000000000E+00 -0.00000000000E+00 -0.14882771502E+04  0.14882771502E+04  0.00000000000E+00 0.  1.
         -6    2    1    2    0  503 -0.29277382527E+02 -0.70223892085E+01 -0.83364260799E+03  0.85153856827E+03  0.17103057129E+03 0.  0.
        -24    2    3    3    0    0 -0.74909510547E+02 -0.34403938144E+02 -0.47717334232E+03  0.49108820039E+03  0.81719986663E+02 0.  0.
          6    2    1    2  501    0  0.29277382527E+02  0.70223892085E+01 -0.63398446648E+03  0.65738865768E+03  0.17122226616E+03 0.  0.
         24    2    5    5    0    0  0.74978661281E+02  0.34142807048E+02 -0.29315415323E+03  0.31240819972E+03  0.69799676041E+02 0.  0.
          5    1    5    5  501    0 -0.45701278754E+02 -0.27120417840E+02 -0.34083031325E+03  0.34498045796E+03  0.47000000000E+01 0. -1.
        -13    1    6    6    0    0  0.41374671095E+02  0.39690235917E+02 -0.25455149855E+03  0.26092842629E+03  0.00000000000E+00 0.  1.
         14    1    6    6    0    0  0.33603990186E+02 -0.55474288684E+01 -0.38602654684E+02  0.51479773427E+02  0.00000000000E+00 0. -1.
         -5    1    3    3    0  503  0.45632128020E+02  0.27381548935E+02 -0.35646926568E+03  0.36045036788E+03  0.47000000000E+01 0.  1.
         13    1    4    4    0    0 -0.59242547256E+02 -0.10445514107E+02 -0.13593166867E+03  0.14864792874E+03  0.00000000000E+00 0. -1.
        -14    1    4    4    0    0 -0.15666963292E+02 -0.23958424036E+02 -0.34124167364E+03  0.34244027166E+03  0.00000000000E+00 0.  1.
</event>
<event>
12    1  0.1598254E-001  0.1996166E+03  0.7818608E-02  0.1150570E+00
         21   -1    0    0  501  502  0.00000000000E+00  0.00000000000E+00  0.49403462901E+02  0.49403462901E+02  0.00000000000E+00 0.  1.
         21   -1    0    0  502  503 -0.00000000000E+00 -0.00000000000E+00 -0.83114656406E+03  0.83114656406E+03  0.00000000000E+00 0.  1.
         -6    2    1    2    0  503  0.68564504421E+02  0.70052545332E+02 -0.47791832740E+03  0.51701697509E+03  0.17114956762E+03 0.  0.
        -24    2    3    3    0    0 -0.30290846066E+02  0.50873552571E+02 -0.24914191969E+03  0.26701507749E+03  0.75628709834E+02 0.  0.
          6    2    1    2  501    0 -0.68564504421E+02 -0.70052545332E+02 -0.30382477376E+03  0.36353305187E+03  0.17389173723E+03 0.  0.
         24    2    5    5    0    0 -0.78898392515E+02 -0.21469729569E+02 -0.28986449831E+03  0.31172515169E+03  0.80406698609E+02 0.  0.
          5    1    5    5  501    0  0.10333888094E+02 -0.48582815763E+02 -0.13960275444E+02  0.51807900180E+02  0.47000000000E+01 0. -1.
        -11    1    6    6    0    0 -0.42393785823E+02 -0.48761309724E+02 -0.21061756270E+03  0.22030582407E+03  0.00000000000E+00 0.  1.
         12    1    6    6    0    0 -0.36504606692E+02  0.27291580154E+02 -0.79246935613E+02  0.91419327612E+02  0.00000000000E+00 0. -1.
         -5    1    3    3    0  503  0.98855350487E+02  0.19178992761E+02 -0.22877640770E+03  0.25000189760E+03  0.47000000000E+01 0.  1.
         13    1    4    4    0    0  0.14585837539E+02 -0.66115300803E+00 -0.85792210079E+01  0.16934781165E+02  0.00000000000E+00 0. -1.
        -14    1    4    4    0    0 -0.44876683605E+02  0.51534705579E+02 -0.24056269868E+03  0.25008029632E+03  0.00000000000E+00 0.  1.
</event>
<event>
12    1  0.1598254E-001  0.1761331E+03  0.7818608E-02  0.1171801E+00
         21   -1    0    0  501  502  0.00000000000E+00  0.00000000000E+00  0.11562644347E+03  0.11562644347E+03  0.00000000000E+00 0. -1.
         21   -1    0    0  502  503 -0.00000000000E+00 -0.00000000000E+00 -0.27032647629E+03  0.27032647629E+03  0.00000000000E+00 0. -1.
         -6    2    1    2    0  503  0.17083524876E+02  0.34651798195E+02 -0.98351599673E+02  0.20102584821E+03  0.17101391917E+03 0.  0.
        -24    2    3    3    0    0 -0.16017100330E+02  0.34641632595E+02  0.89917981968E+01  0.88596552391E+02  0.79447507506E+02 0.  0.
          6    2    1    2  501    0 -0.17083524876E+02 -0.34651798195E+02 -0.56348433144E+02  0.18492707154E+03  0.17184377187E+03 0.  0.
         24    2    5    5    0    0 -0.30765637622E+02 -0.83048797306E+02 -0.61678108505E+02  0.13413371399E+03  0.79649463068E+02 0.  0.
          5    1    5    5  501    0  0.13682112746E+02  0.48396999112E+02  0.53296753611E+01  0.50793357555E+02  0.47000000000E+01 0. -1.
        -11    1    6    6    0    0 -0.40561785462E+02 -0.54931198686E+01 -0.21937242764E+02  0.46440019658E+02  0.00000000000E+00 0.  1.
         12    1    6    6    0    0  0.97961478395E+01 -0.77555677438E+02 -0.39740865741E+02  0.87693694330E+02  0.00000000000E+00 0. -1.
         -5    1    3    3    0  503  0.33100625206E+02  0.10165599448E-01 -0.10734339787E+03  0.11242929582E+03  0.47000000000E+01 0.  1.
         11    1    4    4    0    0 -0.46211632237E+02  0.91043100970E+01 -0.32155049375E+01  0.47209563527E+02  0.00000000000E+00 0. -1.
        -12    1    4    4    0    0  0.30194531907E+02  0.25537322498E+02  0.12207303134E+02  0.41386988865E+02  0.00000000000E+00 0.  1.
</event>
<event>
12    1  0.1598254E-001  0.3479024E+03  0.7818608E-02  0.1063577E+00
         21   -1    0    0  503  502  0.00000000000E+00  0.00000000000E+00  0.51850329900E+03  0.51850329900E+03  0.00000000000E+00 0.  1.
         21   -1    0    0  501  503 -0.00000000000E+00 -0.00000000000E+00 -0.35536655591E+03  0.35536655591E+03  0.00000000000E+00 0. -1.
          6    2    1    2  501    0 -0.19876274735E+03  0.22713898437E+03 -0.17510631602E+03  0.38864365615E+03  0.17112253388E+03 0.  0.
         24    2    3    3    0    0 -0.13352842713E+03  0.21874031019E+03 -0.17902740949E+03  0.32258671679E+03  0.79587765081E+02 0.  0.
         -6    2    1    2    0  502  0.19876274735E+03 -0.22713898437E+03  0.33824305911E+03  0.48522619876E+03  0.17302412831E+03 0.  0.
        -24    2    5    5    0    0  0.11988528270E+03 -0.22466891299E+03  0.28004134520E+03  0.38705652328E+03  0.80876422544E+02 0.  0.
          5    1    3    3  501    0 -0.65234320224E+02  0.83986741755E+01  0.39210934655E+01  0.66056939356E+02  0.47000000000E+01 0. -1.
        -13    1    4    4    0    0 -0.26235494004E+02  0.18380763821E+01 -0.15532881381E+02  0.30544231442E+02  0.00000000000E+00 0.  1.
         14    1    4    4    0    0 -0.10729293312E+03  0.21690223381E+03 -0.16349452810E+03  0.29204248535E+03  0.00000000000E+00 0. -1.
         -5    1    5    5    0  502  0.78877464647E+02 -0.24700713799E+01  0.58201713910E+02  0.98169675480E+02  0.47000000000E+01 0.  1.
         13    1    6    6    0    0 -0.74379722202E+01 -0.50682274633E+02  0.46025863666E+02  0.68865060218E+02  0.00000000000E+00 0. -1.
        -14    1    6    6    0    0  0.12732325492E+03 -0.17398663836E+03  0.23401548153E+03  0.31819146306E+03  0.00000000000E+00 0.  1.
</event>
<event>
12    1  0.1598254E-001  0.3465893E+03  0.7818608E-02  0.1064121E+00
         21   -1    0    0  503  502  0.00000000000E+00  0.00000000000E+00  0.10160055402E+04  0.10160055402E+04  0.00000000000E+00 0.  1.
         21   -1    0    0  501  503 -0.00000000000E+00 -0.00000000000E+00 -0.12016117263E+03  0.12016117263E+03  0.00000000000E+00 0.  1.
          6    2    1    2  501    0 -0.81723200246E+02  0.28838136500E+03  0.52504874780E+03  0.62861024815E+03  0.17213995287E+03 0.  0.
         24    2    3    3    0    0 -0.35042446613E+01  0.61260237264E+02  0.20699594520E+03  0.23001033982E+03  0.79324262967E+02 0.  0.
         -6    2    1    2    0  502  0.81723200246E+02 -0.28838136500E+03  0.37079561975E+03  0.50755646466E+03  0.17401632122E+03 0.  0.
        -24    2    5    5    0    0  0.11100789177E+03 -0.14590918364E+03  0.23557352696E+03  0.30890345059E+03  0.79462024114E+02 0.  0.
          5    1    3    3  501    0 -0.78218955585E+02  0.22712112774E+03  0.31805280261E+03  0.39859990833E+03  0.47000000000E+01 0. -1.
        -13    1    4    4    0    0 -0.40027313017E+02  0.45231467364E+02  0.12396407000E+03  0.13789547519E+03  0.00000000000E+00 0.  1.
         14    1    4    4    0    0  0.36523068356E+02  0.16028769900E+02  0.83031875192E+02  0.92114864623E+02  0.00000000000E+00 0. -1.
         -5    1    5    5    0  502 -0.29284691521E+02 -0.14247218136E+03  0.13522209279E+03  0.19865301406E+03  0.47000000000E+01 0.  1.
         11    1    6    6    0    0  0.93981073136E+01 -0.71207539798E+02  0.10640779976E+03  0.12838013085E+03  0.00000000000E+00 0. -1.
        -12    1    6    6    0    0  0.10160978445E+03 -0.74701643844E+02  0.12916572720E+03  0.18052331975E+03  0.00000000000E+00 0.  1.
</event>
<event>
12    1  0.1598254E-001  0.2036280E+03  0.7818608E-02  0.1146747E+00
         21   -1    0    0  503  502  0.00000000000E+00  0.00000000000E+00  0.10184483374E+04  0.10184483374E+04  0.00000000000E+00 0.  1.
         21   -1    0    0  501  503 -0.00000000000E+00 -0.00000000000E+00 -0.53368416819E+02  0.53368416819E+02  0.00000000000E+00 0.  1.
          6    2    1    2  501    0  0.10605960586E+03  0.27807778516E+02  0.22109432529E+03  0.30046797086E+03  0.17139541503E+03 0.  0.
         24    2    3    3    0    0  0.14329611960E+03  0.32367426104E+02  0.17557597496E+03  0.24129569223E+03  0.76257851659E+02 0.  0.
         -6    2    1    2    0  502 -0.10605960586E+03 -0.27807778516E+02  0.74398559531E+03  0.77134878339E+03  0.17158807376E+03 0.  0.
        -24    2    5    5    0    0 -0.11114194288E+03  0.18973168995E+02  0.42121624289E+03  0.44513346789E+03  0.89488369933E+02 0.  0.
          5    1    3    3  501    0 -0.37236513739E+02 -0.45596475875E+01  0.45518350329E+02  0.59172278630E+02  0.47000000000E+01 0. -1.
        -13    1    4    4    0    0  0.52989256519E+02 -0.23477899926E+02  0.77312807960E+02  0.96624755451E+02  0.00000000000E+00 0.  1.
         14    1    4    4    0    0  0.90306863077E+02  0.55845326030E+02  0.98263167000E+02  0.14467093677E+03  0.00000000000E+00 0. -1.
         -5    1    5    5    0  502  0.50823370229E+01 -0.46780947511E+02  0.32276935242E+03  0.32621531549E+03  0.47000000000E+01 0.  1.
         11    1    6    6    0    0 -0.20129599624E+02  0.26565238204E+02  0.35263999960E+02  0.48522802423E+02  0.00000000000E+00 0. -1.
        -12    1    6    6    0    0 -0.91012343256E+02 -0.75920692088E+01  0.38595224293E+03  0.39661066547E+03  0.00000000000E+00 0.  1.
</event>
<event>
12    1  0.1598254E-001  0.3173435E+03  0.7818608E-02  0.1077180E+00
         21   -1    0    0  503  502  0.00000000000E+00  0.00000000000E+00  0.15373563191E+03  0.15373563191E+03  0.00000000000E+00 0. -1.
         21   -1    0    0  501  503 -0.00000000000E+00 -0.00000000000E+00 -0.95229088220E+03  0.95229088220E+03  0.00000000000E+00 0.  1.
          6    2    1    2  501    0 -0.56047939145E+02  0.25766350050E+03 -0.70986810217E+03  0.77652341227E+03  0.17188378734E+03 0.  0.
         24    2    3    3    0    0 -0.97573252428E+02  0.23718124659E+03 -0.60587171800E+03  0.66258828911E+03  0.78531642484E+02 0.  0.
         -6    2    1    2    0  502  0.56047939145E+02 -0.25766350050E+03 -0.88687148115E+02  0.32950310183E+03  0.17656452901E+03 0.  0.
        -24    2    5    5    0    0  0.63948432793E+02 -0.15547356460E+03  0.13384972996E+02  0.18477574192E+03  0.75508184678E+02 0.  0.
          5    1    3    3  501    0  0.41525313283E+02  0.20482253909E+02 -0.10399638418E+03  0.11393512316E+03  0.47000000000E+01 0. -1.
        -11    1    4    4    0    0 -0.45770862008E+02  0.11509897527E+03 -0.39036305981E+03  0.40954372707E+03  0.00000000000E+00 0.  1.
         12    1    4    4    0    0 -0.51802390421E+02  0.12208227132E+03 -0.21550865818E+03  0.25304456204E+03  0.00000000000E+00 0. -1.
         -5    1    5    5    0  502 -0.79004936481E+01 -0.10218993590E+03 -0.10207212111E+03  0.14472735991E+03  0.47000000000E+01 0.  1.
         11    1    6    6    0    0  0.44833693980E+02 -0.23544071449E+02  0.87353996083E+01  0.51387650487E+02  0.00000000000E+00 0. -1.
        -12    1    6    6    0    0  0.19114738813E+02 -0.13192949315E+03  0.46495733876E+01  0.13338809143E+03  0.00000000000E+00 0.  1.
</event>
<event>
12    1  0.1598254E-001  0.2973994E+03  0.7818608E-02  0.1086798E+00
         21   -1    0    0  503  502  0.00000000000E+00  0.00000000000E+00  0.65435266687E+02  0.65435266687E+02  0.00000000000E+00 0.  1.
         21   -1    0    0  501  503 -0.00000000000E+00 -0.00000000000E+00 -0.13442019549E+04  0.13442019549E+04  0.00000000000E+00 0. -1.
          6    2    1    2  501    0 -0.25871372168E+02 -0.23878681345E+03 -0.61796570308E+03  0.68580464364E+03  0.17537938553E+03 0.  0.
         24    2    3    3    0    0 -0.80891614453E+02 -0.17174274977E+03 -0.38348866706E+03  0.43575724021E+03  0.82351619581E+02 0.  0.
         -6    2    1    2    0  502  0.25871372168E+02  0.23878681345E+03 -0.66080098514E+03  0.72383257796E+03  0.17200926947E+03 0.  0.
        -24    2    5    5    0    0  0.72886135267E+02  0.17718687001E+03 -0.55649318269E+03  0.59380508613E+03  0.78817779169E+02 0.  0.
          5    1    3    3  501    0  0.55020242285E+02 -0.67044063676E+02 -0.23447703602E+03  0.25004740342E+03  0.47000000000E+01 0. -1.
        -13    1    4    4    0    0 -0.24112498146E+02 -0.44265899610E+02 -0.37928039524E+02  0.63082633246E+02  0.00000000000E+00 0.  1.
         14    1    4    4    0    0 -0.56779116306E+02 -0.12747685016E+03 -0.34556062754E+03  0.37267460697E+03  0.00000000000E+00 0. -1.
         -5    1    5    5    0  502 -0.47014763098E+02  0.61599943434E+02 -0.10430780245E+03  0.13002749183E+03  0.47000000000E+01 0.  1.
         11    1    6    6    0    0 -0.14488866245E+02  0.75252048385E+01 -0.42694734058E+02  0.45709914343E+02  0.00000000000E+00 0. -1.
        -12    1    6    6    0    0  0.87375001512E+02  0.16966166518E+03 -0.51379844863E+03  0.54809517179E+03  0.00000000000E+00 0.  1.
</event>
<event>
12    1  0.1598254E-001  0.2631926E+03  0.7818608E-02  0.1105596E+00
         21   -1    0    0  503  502  0.00000000000E+00  0.00000000000E+00  0.91455421422E+03  0.91455421422E+03  0.00000000000E+00 0.  1.
         21   -1    0    0  501  503 -0.00000000000E+00 -0.00000000000E+00 -0.28875625672E+03  0.28875625672E+03  0.00000000000E+00 0.  1.
          6    2    1    2  501    0  0.19237706684E+03 -0.38811371719E+02 -0.20506235712E+03  0.33176059619E+03  0.17175349911E+03 0.  0.
         24    2    3    3    0    0  0.14529307463E+03 -0.82793433783E+02 -0.19206642192E+03  0.26586440178E+03  0.76351421022E+02 0.  0.
         -6    2    1    2    0  502 -0.19237706684E+03  0.38811371719E+02  0.83086031461E+03  0.87154987475E+03  0.17537121584E+03 0.  0.
        -24    2    5    5    0    0 -0.12164297160E+03 -0.24713867255E+02  0.32821857051E+03  0.35997428783E+03  0.80288667280E+02 0.  0.
          5    1    3    3  501    0  0.47083992215E+02  0.43982062063E+02 -0.12995935199E+02  0.65896194412E+02  0.47000000000E+01 0. -1.
        -11    1    4    4    0    0  0.72073056033E+02 -0.83224080278E+02 -0.10548328066E+03  0.15247129383E+03  0.00000000000E+00 0.  1.
         12    1    4    4    0    0  0.73220018596E+02  0.43064649585E+00 -0.86583141258E+02  0.11339310795E+03  0.00000000000E+00 0. -1.
         -5    1    5    5    0  502 -0.70734095243E+02  0.63525238974E+02  0.50264174410E+03  0.51157558692E+03  0.47000000000E+01 0.  1.
         11    1    6    6    0    0 -0.48796383392E+02 -0.19794461503E+02  0.23878410788E+03  0.24452148763E+03  0.00000000000E+00 0. -1.
        -12    1    6    6    0    0 -0.72846588210E+02 -0.49194057524E+01  0.89434462637E+02  0.11545280020E+03  0.00000000000E+00 0.  1.
</event>
<event>
12    1  0.1598254E-001  0.2477128E+03  0.7818608E-02  0.1114792E+00
         21   -1    0    0  501  502  0.00000000000E+00  0.00000000000E+00  0.20784308683E+03  0.20784308683E+03  0.00000000000E+00 0. -1.
         21   -1    0    0  502  503 -0.00000000000E+00 -0.00000000000E+00 -0.32062002716E+03  0.32062002716E+03  0.00000000000E+00 0. -1.
         -6    2    1    2    0  503  0.83567152090E+02 -0.15759266657E+03  0.18352914250E+02  0.24818352624E+03  0.17157889081E+03 0.  0.
        -24    2    3    3    0    0  0.90291366318E+02 -0.77200449958E+02  0.59967606016E+02  0.15728800314E+03  0.83850830979E+02 0.  0.
          6    2    1    2  501    0 -0.83567152090E+02  0.15759266657E+03 -0.13112985458E+03  0.28027958775E+03  0.17187987399E+03 0.  0.
         24    2    5    5    0    0 -0.12243543670E+03  0.13837736342E+03 -0.89590355183E+02  0.22005009802E+03  0.79100461637E+02 0.  0.
          5    1    5    5  501    0  0.38868284606E+02  0.19215303156E+02 -0.41539499393E+02  0.60229489732E+02  0.47000000000E+01 0. -1.
        -13    1    6    6    0    0 -0.10635369026E+03  0.11876794625E+03 -0.40026241666E+02  0.16437467114E+03  0.00000000000E+00 0.  1.
         14    1    6    6    0    0 -0.16081746434E+02  0.19609417166E+02 -0.49564113517E+02  0.55675426884E+02  0.00000000000E+00 0. -1.
         -5    1    3    3    0  503 -0.67242142283E+01 -0.80392216616E+02 -0.41614691766E+02  0.90895523103E+02  0.47000000000E+01 0.  1.
         11    1    4    4    0    0  0.75331694293E+02 -0.10490335233E+02  0.40671878638E+02  0.86250292813E+02  0.00000000000E+00 0. -1.
        -12    1    4    4    0    0  0.14959672025E+02 -0.66710114725E+02  0.19295727377E+02  0.71037710329E+02  0.00000000000E+00 0.  1.
</event>
<event>
12    1  0.1598254E-001  0.1981391E+03  0.7818608E-02  0.1151678E+00
         21   -1    0    0  503  502  0.00000000000E+00  0.00000000000E+00  0.43323351251E+03  0.43323351251E+03  0.00000000000E+00 0.  1.
         21   -1    0    0  501  503 -0.00000000000E+00 -0.00000000000E+00 -0.90786323163E+02  0.90786323163E+02  0.00000000000E+00 0.  1.
          6    2    1    2  501    0 -0.75482349764E+02 -0.58402981609E+02  0.14540472974E+03  0.24576748224E+03  0.17363935760E+03 0.  0.
         24    2    3    3    0    0 -0.99974152340E+02 -0.59498051366E+02  0.54335388223E+02  0.15133887145E+03  0.80101625118E+02 0.  0.
         -6    2    1    2    0  502  0.75482349764E+02  0.58402981609E+02  0.19704245961E+03  0.27825235343E+03  0.17172695745E+03 0.  0.
        -24    2    5    5    0    0  0.36311142424E+02  0.30757388642E+02  0.21529676103E+02  0.96248261533E+02  0.80843582768E+02 0.  0.
          5    1    3    3  501    0  0.24491802575E+02  0.10950697570E+01  0.91069341513E+02  0.94428610785E+02  0.47000000000E+01 0. -1.
        -13    1    4    4    0    0 -0.10013950711E+03 -0.56382153981E+02  0.70535426589E+02  0.13484107155E+03  0.00000000000E+00 0.  1.
         14    1    4    4    0    0  0.16535476833E+00 -0.31158973856E+01 -0.16200038366E+02  0.16497799907E+02  0.00000000000E+00 0. -1.
         -5    1    5    5    0  502  0.39171207341E+02  0.27645592968E+02  0.17551278351E+03  0.18200409190E+03  0.47000000000E+01 0.  1.
         11    1    6    6    0    0 -0.74377951756E+01 -0.21937573088E+02  0.14665336952E+02  0.27416236394E+02  0.00000000000E+00 0. -1.
        -12    1    6    6    0    0  0.43748937599E+02  0.52694961730E+02  0.68643391506E+01  0.68832025139E+02  0.00000000000E+00 0.  1.
</event>
<event>
12    1  0.1598254E-001  0.2011493E+03  0.7818608E-02  0.1150797E+00
         21   -1    0    0  503  502  0.00000000000E+00  0.00000000000E+00  0.42607387188E+02  0.42607387188E+02  0.00000000000E+00 0. -1.
         21   -1    0    0  501  503 -0.00000000000E+00 -0.00000000000E+00 -0.97514893367E+03  0.97514893367E+03  0.00000000000E+00 0.  1.
          6    2    1    2  501    0  0.99031130771E+02 -0.31761178910E+02 -0.32008499533E+03  0.37311373800E+03  0.16106992239E+03 0.  0.
         24    2    3    3    0    0  0.61832978765E+02 -0.81584167139E+02 -0.20449272260E+03  0.24177563925E+03  0.78478612026E+02 0.  0.
         -6    2    1    2    0  502 -0.99031130771E+02  0.31761178910E+02 -0.61245655115E+03  0.64464258286E+03  0.17217751084E+03 0.  0.
        -24    2    5    5    0    0 -0.10309919839E+02  0.58001423941E+02 -0.23550161943E+03  0.25647108175E+03  0.82740216286E+02 0.  0.
          5    1    3    3  501    0  0.37198152005E+02  0.49822988229E+02 -0.11559227273E+03  0.13133809875E+03  0.47000000000E+01 0. -1.
        -11    1    4    4    0    0  0.45314889000E+02 -0.49218275193E+02 -0.19204634363E+03  0.20336586704E+03  0.00000000000E+00 0.  1.
         12    1    4    4    0    0  0.16518089766E+02 -0.32365891946E+02 -0.12446378971E+02  0.38409772200E+02  0.00000000000E+00 0. -1.
         -5    1    5    5    0  502 -0.88721210932E+02 -0.26240245030E+02 -0.37695493172E+03  0.38817150111E+03  0.47000000000E+01 0.  1.
         11    1    6    6    0    0 -0.35806107677E+02  0.49419571790E+02 -0.21245771026E+03  0.22104897663E+03  0.00000000000E+00 0. -1.
        -12    1    6    6    0    0  0.25496187838E+02  0.85818521504E+01 -0.23043909175E+02  0.35422105114E+02  0.00000000000E+00 0.  1.
</event>
<event>
12    1  0.1598254E-001  0.1994212E+03  0.7818608E-02  0.1150559E+00
         21   -1    0    0  501  502  0.00000000000E+00  0.00000000000E+00  0.20863554931E+03  0.20863554931E+03  0.00000000000E+00 0. -1.
         21   -1    0    0  502  503 -0.00000000000E+00 -0.00000000000E+00 -0.20968258950E+03  0.20968258950E+03  0.00000000000E+00 0.  1.
         -6    2    1    2    0  503  0.63057699877E+02  0.78766787416E+02 -0.66006120416E+02  0.20858374276E+03  0.17020543321E+03 0.  0.
        -24    2    3    3    0    0 -0.20412991915E+02  0.78946136831E+02 -0.29141086181E+02  0.11721356543E+03  0.78997685147E+02 0.  0.
          6    2    1    2  501    0 -0.63057699877E+02 -0.78766787416E+02  0.64959080231E+02  0.20973439606E+03  0.17201265788E+03 0.  0.
         24    2    5    5    0    0 -0.51973534932E+01 -0.93769234230E+02  0.35519164102E+01  0.12391002387E+03  0.80755161647E+02 0.  0.
          5    1    5    5  501    0 -0.57860346384E+02  0.15002446815E+02  0.61407163820E+02  0.85824372194E+02  0.47000000000E+01 0. -1.
        -11    1    6    6    0    0  0.25440396257E+02 -0.41409899838E+02 -0.27414473893E+02  0.55799166169E+02  0.00000000000E+00 0.  1.
         12    1    6    6    0    0 -0.30637749751E+02 -0.52359334392E+02  0.30966390303E+02  0.68110857696E+02  0.00000000000E+00 0. -1.
         -5    1    3    3    0  503  0.83470691792E+02 -0.17934941578E+00 -0.36865034235E+02  0.91370177321E+02  0.47000000000E+01 0.  1.
         13    1    4    4    0    0  0.50655471630E+01 -0.12230822050E+02 -0.17332795140E+02  0.21810056475E+02  0.00000000000E+00 0. -1.
        -14    1    4    4    0    0 -0.25478539078E+02  0.91176958882E+02 -0.11808291041E+02  0.95403508959E+02  0.00000000000E+00 0.  1.
</event>
<event>
12    1  0.1598254E-001  0.1803398E+03  0.7818608E-02  0.1168211E+00
         21   -1    0    0  501  502  0.00000000000E+00  0.00000000000E+00  0.35974589228E+02  0.35974589228E+02  0.00000000000E+00 0.  1.
         21   -1    0    0  502  503 -0.00000000000E+00 -0.00000000000E+00 -0.12000097142E+04  0.12000097142E+04  0.00000000000E+00 0.  1.
         -6    2    1    2    0  503  0.34393898754E+02 -0.35249911615E+02 -0.26374257977E+03  0.31780724147E+03  0.17034024129E+03 0.  0.
        -24    2    3    3    0    0  0.63744486120E+01 -0.58490306559E+02 -0.72002355285E+02  0.12258529283E+03  0.79881570434E+02 0.  0.
          6    2    1    2  501    0 -0.34393898754E+02  0.35249911615E+02 -0.90029254519E+03  0.91817706195E+03  0.17348473601E+03 0.  0.
         24    2    5    5    0    0 -0.77663749200E+02  0.52650600226E+02 -0.77016678476E+03  0.77986629791E+03  0.78935559963E+02 0.  0.
          5    1    5    5  501    0  0.43269850446E+02 -0.17400688611E+02 -0.13012576043E+03  0.13831076404E+03  0.47000000000E+01 0. -1.
        -13    1    6    6    0    0 -0.41819639395E+02  0.64845402990E+02 -0.37290462148E+03  0.38080397221E+03  0.00000000000E+00 0.  1.
         14    1    6    6    0    0 -0.35844109805E+02 -0.12194802764E+02 -0.39726216328E+03  0.39906232570E+03  0.00000000000E+00 0. -1.
         -5    1    3    3    0  503  0.28019450142E+02  0.23240394944E+02 -0.19174022449E+03  0.19522194864E+03  0.47000000000E+01 0.  1.
         11    1    4    4    0    0 -0.30295010701E+02 -0.39967815840E+01 -0.97139281185E+01  0.32064346803E+02  0.00000000000E+00 0. -1.
        -12    1    4    4    0    0  0.36669459313E+02 -0.54493524975E+02 -0.62288427166E+02  0.90520946026E+02  0.00000000000E+00 0.  1.
</event>
<event>
12    1  0.1598254E-001  0.1757633E+03  0.7818608E-02  0.1173247E+00
         21   -1    0    0  501  502  0.00000000000E+00  0.00000000000E+00  0.71685973880E+02  0.71685973880E+02  0.00000000000E+00 0.  1.
         21   -1    0    0  502  503 -0.00000000000E+00 -0.00000000000E+00 -0.57785644170E+03  0.57785644170E+03  0.00000000000E+00 0.  1.
         -6    2    1    2    0  503  0.38800970344E+02  0.33255789261E+01 -0.42620841213E+03  0.46102751083E+03  0.17139480854E+03 0.  0.
        -24    2    3    3    0    0  0.17500989905E+02  0.13807200706E+02 -0.80240787963E+02  0.11421453452E+03  0.78162986154E+02 0.  0.
          6    2    1    2  501    0 -0.38800970344E+02 -0.33255789261E+01 -0.79962055690E+02  0.18851490475E+03  0.16621481338E+03 0.  0.
         24    2    5    5    0    0 -0.57566264880E+01  0.10160732345E+02 -0.11446955988E+03  0.13864841201E+03  0.77354526595E+02 0.  0.
          5    1    5    5  501    0 -0.33044343857E+02 -0.13486311271E+02  0.34507504189E+02  0.49866492738E+02  0.47000000000E+01 0. -1.
        -13    1    6    6    0    0 -0.79856881365E+01  0.27950445270E+02 -0.72757156832E+01  0.29965557638E+02  0.00000000000E+00 0.  1.
         14    1    6    6    0    0  0.22290616485E+01 -0.17789712926E+02 -0.10719384420E+03  0.10868285438E+03  0.00000000000E+00 0. -1.
         -5    1    3    3    0  503  0.21299980440E+02 -0.10481621780E+02 -0.34596762417E+03  0.34681297630E+03  0.47000000000E+01 0.  1.
         11    1    4    4    0    0  0.10654477908E+02  0.46567594808E+02 -0.48952361929E+02  0.68398775751E+02  0.00000000000E+00 0. -1.
        -12    1    4    4    0    0  0.68465119967E+01 -0.32760394102E+02 -0.31288426034E+02  0.45815758773E+02  0.00000000000E+00 0.  1.
</event>
<event>
12    1  0.1598254E-001  0.1905634E+03  0.7818608E-02  0.1161558E+00
         21   -1    0    0  503  502  0.00000000000E+00  0.00000000000E+00  0.15652812884E+03  0.15652812884E+03  0.00000000000E+00 0.  1.
         21   -1    0    0  501  503 -0.00000000000E+00 -0.00000000000E+00 -0.11311342181E+04  0.11311342181E+04  0.00000000000E+00 0.  1.
          6    2    1    2  501    0 -0.47377500751E+02  0.68135275423E+02 -0.10631784754E+04  0.10775208148E+04  0.15432301364E+03 0.  0.
         24    2    3    3    0    0 -0.79972869748E+02  0.80377417945E+02 -0.87830734899E+03  0.88934071092E+03  0.81528593749E+02 0.  0.
         -6    2    1    2    0  502  0.47377500751E+02 -0.68135275423E+02  0.88572386088E+02  0.21014153215E+03  0.17154402532E+03 0.  0.
        -24    2    5    5    0    0 -0.15254208106E+02 -0.41175529079E+02  0.10593020454E+03  0.13962243730E+03  0.79656146671E+02 0.  0.
          5    1    3    3  501    0  0.32595368997E+02 -0.12242142522E+02 -0.18487112636E+03  0.18818010388E+03  0.47000000000E+01 0. -1.
        -11    1    4    4    0    0 -0.32842924212E+02  0.30212410829E+02 -0.12196260161E+03  0.12987041091E+03  0.00000000000E+00 0.  1.
         12    1    4    4    0    0 -0.47129945537E+02  0.50165007116E+02 -0.75634474738E+03  0.75947030001E+03  0.00000000000E+00 0. -1.
         -5    1    5    5    0  502  0.62631708857E+02 -0.26959746344E+02 -0.17357818455E+02  0.70519094853E+02  0.47000000000E+01 0.  1.
         13    1    6    6    0    0 -0.28806225409E+02 -0.19836239212E+01  0.34622263201E+01  0.29081272277E+02  0.00000000000E+00 0. -1.
        -14    1    6    6    0    0  0.13552017303E+02 -0.39191905158E+02  0.10246797822E+03  0.11054116502E+03  0.00000000000E+00 0.  1.
</event>
<event>
12    1  0.1598254E-001  0.2523970E+03  0.7818608E-02  0.1111881E+00
         21   -1    0    0  503  502  0.00000000000E+00  0.00000000000E+00  0.31724163020E+03  0.31724163020E+03  0.00000000000E+00 0.  1.
         21   -1    0    0  501  503 -0.00000000000E+00 -0.00000000000E+00 -0.38959021348E+03  0.38959021348E+03  0.00000000000E+00 0.  1.
          6    2    1    2  501    0 -0.10493827359E+03 -0.15149503274E+03 -0.28248189232E+03  0.37881430326E+03  0.17245715599E+03 0.  0.
         24    2    3    3    0    0 -0.11360007743E+03 -0.14343969781E+03 -0.29791178562E+03  0.35881213153E+03  0.80714244250E+02 0.  0.
         -6    2    1    2    0  502  0.10493827359E+03  0.15149503274E+03  0.21013330905E+03  0.32801754043E+03  0.17168783604E+03 0.  0.
        -24    2    5    5    0    0  0.59566955839E+02  0.99989578590E+01  0.60823772917E+02  0.11731603767E+03  0.80095692502E+02 0.  0.
          5    1    3    3  501    0  0.86618038389E+01 -0.80553349337E+01  0.15429893296E+02  0.20002171726E+02  0.47000000000E+01 0. -1.
        -11    1    4    4    0    0 -0.49631714149E+01 -0.49059318433E+02 -0.12165599483E+03  0.13126930667E+03  0.00000000000E+00 0.  1.
         12    1    4    4    0    0 -0.10863690602E+03 -0.94380379376E+02 -0.17625579079E+03  0.22754282486E+03  0.00000000000E+00 0. -1.
         -5    1    5    5    0  502  0.45371317752E+02  0.14149607488E+03  0.14930953613E+03  0.21070150275E+03  0.47000000000E+01 0.  1.
         13    1    6    6    0    0  0.40109545469E+02 -0.18403996282E+02  0.69023006578E+02  0.81924710277E+02  0.00000000000E+00 0. -1.
        -14    1    6    6    0    0  0.19457410370E+02  0.28402954141E+02 -0.81992336618E+01  0.35391327396E+02  0.00000000000E+00 0.  1.
</event>
<event>
12    1  0.1598254E-001  0.1936853E+03  0.7818608E-02  0.1155423E+00
         21   -1    0    0  503  502  0.00000000000E+00  0.00000000000E+00  0.39041848034E+03  0.39041848034E+03  0.00000000000E+00 0. -1.
         21   -1    0    0  501  503 -0.00000000000E+00 -0.00000000000E+00 -0.99766083439E+02  0.99766083439E+02  0.00000000000E+00 0.  1.
          6    2    1    2  501    0 -0.51596684384E+02  0.72365247249E+02  0.95272232761E+02  0.21584899704E+03  0.17209022151E+03 0.  0.
         24    2    3    3    0    0 -0.20017275370E+02  0.11469892772E+03  0.68997092124E+02  0.15667237504E+03  0.78924641577E+02 0.  0.
         -6    2    1    2    0  502  0.51596684384E+02 -0.72365247249E+02  0.19538016414E+03  0.27433556674E+03  0.17084392816E+03 0.  0.
        -24    2    5    5    0    0  0.88493708566E+02 -0.41708992370E+02  0.17730617559E+03  0.22285784905E+03  0.93044959448E+02 0.  0.
          5    1    3    3  501    0 -0.31579409014E+02 -0.42333680466E+02  0.26275140637E+02  0.59176621996E+02  0.47000000000E+01 0. -1.
        -11    1    4    4    0    0 -0.35738970459E+02  0.77235791384E+02  0.10929359183E+02  0.85802636162E+02  0.00000000000E+00 0.  1.
         12    1    4    4    0    0  0.15721695089E+02  0.37463136331E+02  0.58067732941E+02  0.70869738882E+02  0.00000000000E+00 0. -1.
         -5    1    5    5    0  502 -0.36897024182E+02 -0.30656254880E+02  0.18073988549E+02  0.51477717692E+02  0.47000000000E+01 0.  1.
         11    1    6    6    0    0 -0.11880624296E+02 -0.31727283401E+02  0.38709797907E+02  0.51441405499E+02  0.00000000000E+00 0. -1.
        -12    1    6    6    0    0  0.10037433286E+03 -0.99817089690E+01  0.13859637769E+03  0.17141644355E+03  0.00000000000E+00 0.  1.
</event>
<event>
12    1  0.1598254E-001  0.1734559E+03  0.7818608E-02  0.1174418E+00
         21   -1    0    0  503  502  0.00000000000E+00  0.00000000000E+00  0.16227261319E+04  0.16227261319E+04  0.00000000000E+00 0.  1.
         21   -1    0    0  501  503 -0.00000000000E+00 -0.00000000000E+00 -0.21569198173E+02  0.21569198173E+02  0.00000000000E+00 0.  1.
          6    2    1    2  501    0  0.14335880091E+02  0.12306218438E+02  0.49080821879E+03  0.52055705504E+03  0.17242383667E+03 0.  0.
         24    2    3    3    0    0  0.48756321865E+02  0.67036464008E+01  0.14020830130E+03  0.16819566701E+03  0.78799091701E+02 0.  0.
         -6    2    1    2    0  502 -0.14335880091E+02 -0.12306218438E+02  0.11103487149E+04  0.11237382750E+04  0.17191998587E+03 0.  0.
        -24    2    5    5    0    0  0.15661857663E+02 -0.71571261030E+02  0.67403570030E+03  0.68237295437E+03  0.77077781381E+02 0.  0.
          5    1    3    3  501    0 -0.34420441774E+02  0.56025720370E+01  0.35059991750E+03  0.35236138803E+03  0.47000000000E+01 0. -1.
        -11    1    4    4    0    0  0.31859961263E+02 -0.21627669982E+02  0.19699730962E+02  0.43253816485E+02  0.00000000000E+00 0.  1.
         12    1    4    4    0    0  0.16896360602E+02  0.28331316383E+02  0.12050857033E+03  0.12494185053E+03  0.00000000000E+00 0. -1.
         -5    1    5    5    0  502 -0.29997737754E+02  0.59265042592E+02  0.43631301463E+03  0.44136532065E+03  0.47000000000E+01 0.  1.
         11    1    6    6    0    0  0.13962391869E+02  0.14471396990E+02  0.11304248261E+03  0.11481712674E+03  0.00000000000E+00 0. -1.
        -12    1    6    6    0    0  0.16994657940E+01 -0.86042658020E+02  0.56099321769E+03  0.56755582763E+03  0.00000000000E+00 0.  1.
</event>
<event>
12    1  0.1598254E-001  0.1890524E+03  0.7818608E-02  0.1160096E+00
         21   -1    0    0  503  502  0.00000000000E+00  0.00000000000E+00  0.83236819489E+02  0.83236819489E+02  0.00000000000E+00 0.  1.
         21   -1    0    0  501  503 -0.00000000000E+00 -0.00000000000E+00 -0.19006133646E+04  0.19006133646E+04  0.00000000000E+00 0.  1.
          6    2    1    2  501    0  0.70223473015E+02 -0.10147500973E+01 -0.17818406255E+04  0.17914869453E+04  0.17186359302E+03 0.  0.
         24    2    3    3    0    0  0.96880825082E+02 -0.44716909839E+02 -0.12463163284E+04  0.12535010199E+04  0.81085880740E+02 0.  0.
         -6    2    1    2    0  502 -0.70223473015E+02  0.10147500973E+01 -0.35535919580E+02  0.19236323876E+03  0.17552335504E+03 0.  0.
        -24    2    5    5    0    0  0.34294993088E+02  0.11937535975E+01  0.23612898080E+01  0.81086869849E+02  0.73429783969E+02 0.  0.
          5    1    3    3  501    0 -0.26657352067E+02  0.43702159741E+02 -0.53552429706E+03  0.53798592540E+03  0.47000000000E+01 0. -1.
        -11    1    4    4    0    0  0.83567564842E+01 -0.39896487148E+02 -0.56013600745E+03  0.56161722900E+03  0.00000000000E+00 0.  1.
         12    1    4    4    0    0  0.88524068598E+02 -0.48204226906E+01 -0.68618032099E+03  0.69188379090E+03  0.00000000000E+00 0. -1.
         -5    1    5    5    0  502 -0.10451846610E+03 -0.17900350012E+00 -0.37897209388E+02  0.11127636891E+03  0.47000000000E+01 0.  1.
         11    1    6    6    0    0  0.40941023043E+02  0.26811164750E+02 -0.12801653303E+02  0.50585454929E+02  0.00000000000E+00 0. -1.
        -12    1    6    6    0    0 -0.66460299544E+01 -0.25617411153E+02  0.15162943111E+02  0.30501414920E+02  0.00000000000E+00 0.  1.
</event>
<event>
12    1  0.1598254E-001  0.2055775E+03  0.7818608E-02  0.1145120E+00
         21   -1    0    0  503  502  0.00000000000E+00  0.00000000000E+00  0.22990470121E+03  0.22990470121E+03  0.00000000000E+00 0.  1.
         21   -1    0    0  501  503 -0.00000000000E+00 -0.00000000000E+00 -0.54237468205E+03  0.54237468205E+03  0.00000000000E+00 0. -1.
          6    2    1    2  501    0  0.11041079410E+03 -0.22771560658E+02 -0.47019588378E+03  0.51316631601E+03  0.17189069590E+03 0.  0.
         24    2    3    3    0    0  0.36846093288E+02  0.16190173246E+02 -0.10116591714E+03  0.13483446672E+03  0.79536371071E+02 0.  0.
         -6    2    1    2    0  502 -0.11041079410E+03  0.22771560658E+02  0.15772590293E+03  0.25911306725E+03  0.17190995823E+03 0.  0.
        -24    2    5    5    0    0 -0.15602043800E+02  0.28658510265E+02  0.16418639408E+02  0.88780486596E+02  0.80917668645E+02 0.  0.
          5    1    3    3  501    0  0.73564700812E+02 -0.38961733904E+02 -0.36902996663E+03  0.37833184929E+03  0.47000000000E+01 0. -1.
        -13    1    4    4    0    0  0.47747385101E+02  0.60605786716E+01 -0.19676081113E+02  0.51997034202E+02  0.00000000000E+00 0.  1.
         14    1    4    4    0    0 -0.10901291813E+02  0.10129594574E+02 -0.81489836031E+02  0.82837432516E+02  0.00000000000E+00 0. -1.
         -5    1    5    5    0  502 -0.94808750300E+02 -0.58869496068E+01  0.14130726352E+03  0.17033258066E+03  0.47000000000E+01 0.  1.
         11    1    6    6    0    0 -0.82934331868E+01 -0.28039881766E+02 -0.21780563914E+00  0.29241467862E+02  0.00000000000E+00 0. -1.
        -12    1    6    6    0    0 -0.73086106136E+01  0.56698392031E+02  0.16636445048E+02  0.59539018734E+02  0.00000000000E+00 0.  1.
</event>
<event>
12    1  0.1598254E-001  0.1799394E+03  0.7818608E-02  0.1168019E+00
         21   -1    0    0  503  502  0.00000000000E+00  0.00000000000E+00  0.47127038940E+03  0.47127038940E+03  0.00000000000E+00 0. -1.
         21   -1    0    0  501  503 -0.00000000000E+00 -0.00000000000E+00 -0.24377706360E+03  0.24377706360E+03  0.00000000000E+00 0. -1.
          6    2    1    2  501    0 -0.53770240549E+02  0.52873346875E+01 -0.18939287227E+03  0.26124287946E+03  0.17163620633E+03 0.  0.
         24    2    3    3    0    0 -0.14897900106E+02  0.57593188029E+02 -0.61982359373E+02  0.11805597383E+03  0.80972077592E+02 0.  0.
         -6    2    1    2    0  502  0.53770240549E+02 -0.52873346875E+01  0.41688619808E+03  0.45380457354E+03  0.17095407027E+03 0.  0.
        -24    2    5    5    0    0  0.87653772706E+02  0.12127928272E+02  0.38423080070E+03  0.40340764791E+03  0.85288637395E+02 0.  0.
          5    1    3    3  501    0 -0.38872340443E+02 -0.52305853342E+02 -0.12741051290E+03  0.14318690562E+03  0.47000000000E+01 0. -1.
        -13    1    4    4    0    0  0.30292636124E+02  0.40295912654E+02 -0.20871867539E+02  0.54562251003E+02  0.00000000000E+00 0.  1.
         14    1    4    4    0    0 -0.45190536230E+02  0.17297275375E+02 -0.41110491834E+02  0.63493722831E+02  0.00000000000E+00 0. -1.
         -5    1    5    5    0  502 -0.33883532157E+02 -0.17415262959E+02  0.32655397374E+02  0.50396925631E+02  0.47000000000E+01 0.  1.
         13    1    6    6    0    0 -0.81836118942E+00 -0.41102174784E+01  0.18230656690E+03  0.18235473105E+03  0.00000000000E+00 0. -1.
        -14    1    6    6    0    0  0.88472133895E+02  0.16238145750E+02  0.20192423381E+03  0.22105291686E+03  0.00000000000E+00 0.  1.
</event>
<event>
12    1  0.1598254E-001  0.1950383E+03  0.7818608E-02  0.1154254E+00
         21   -1    0    0  501  502  0.00000000000E+00  0.00000000000E+00  0.14571367646E+03  0.14571367646E+03  0.00000000000E+00 0. -1.
         21   -1    0    0  502  503 -0.00000000000E+00 -0.00000000000E+00 -0.47340093821E+03  0.47340093821E+03  0.00000000000E+00 0. -1.
         -6    2    1    2    0  503  0.86939111547E+02 -0.24903946162E+02 -0.37221207360E+03  0.42021631812E+03  0.17280425526E+03 0.  0.
        -24    2    3    3    0    0  0.10633451518E+03 -0.60361385896E+02 -0.26466736158E+03  0.30523211574E+03  0.90373149604E+02 0.  0.
          6    2    1    2  501    0 -0.86939111547E+02  0.24903946162E+02  0.44524811843E+02  0.19889829654E+03  0.17146270104E+03 0.  0.
         24    2    5    5    0    0 -0.12055913150E+03  0.41008224059E+02  0.54975219293E+02  0.15989887958E+03  0.79556258871E+02 0.  0.
          5    1    5    5  501    0  0.33620019950E+02 -0.16104277897E+02 -0.10450407449E+02  0.38999416968E+02  0.47000000000E+01 0. -1.
        -11    1    6    6    0    0 -0.44128977064E+02  0.50598216719E+02  0.34529791579E+01  0.67226997679E+02  0.00000000000E+00 0.  1.
         12    1    6    6    0    0 -0.76430154433E+02 -0.95899926596E+01  0.51522240135E+02  0.92671881897E+02  0.00000000000E+00 0. -1.
         -5    1    3    3    0  503 -0.19395403631E+02  0.35457439734E+02 -0.10754471202E+03  0.11498420238E+03  0.47000000000E+01 0.  1.
         11    1    4    4    0    0  0.85738838591E+02 -0.48723307292E+01 -0.19949795308E+03  0.21719650396E+03  0.00000000000E+00 0. -1.
        -12    1    4    4    0    0  0.20595676586E+02 -0.55489055167E+02 -0.65169408498E+02  0.88035611779E+02  0.00000000000E+00 0.  1.
</event>
<event>
12    1  0.1598254E-001  0.1859083E+03  0.7818608E-02  0.1167594E+00
         21   -1    0    0  503  502  0.00000000000E+00  0.00000000000E+00  0.16919945290E+03  0.16919945290E+03  0.00000000000E+00 0.  1.
         21   -1    0    0  501  503 -0.00000000000E+00 -0.00000000000E+00 -0.19607407169E+03  0.19607407169E+03  0.00000000000E+00 0.  1.
          6    2    1    2  501    0 -0.21256900760E+02 -0.38578871909E+02 -0.63090706033E+02  0.17587051469E+03  0.15814491950E+03 0.  0.
         24    2    3    3    0    0 -0.55548840267E+02 -0.28943981679E+02 -0.88611632915E+02  0.13180038951E+03  0.74805704701E+02 0.  0.
         -6    2    1    2    0  502  0.21256900760E+02  0.38578871909E+02  0.36216087246E+02  0.18940300990E+03  0.18061481112E+03 0.  0.
        -24    2    5    5    0    0  0.13478086931E+02  0.20856847698E+02 -0.51713904304E+02  0.99245628058E+02  0.80985800404E+02 0.  0.
          5    1    3    3  501    0  0.34291939506E+02 -0.96348902307E+01  0.25520926883E+02  0.44070125185E+02  0.47000000000E+01 0. -1.
        -13    1    4    4    0    0 -0.11559321510E+02  0.20339557150E+02 -0.50201785483E+02  0.55385329867E+02  0.00000000000E+00 0.  1.
         14    1    4    4    0    0 -0.43989518757E+02 -0.49283538829E+02 -0.38409847433E+02  0.76415059640E+02  0.00000000000E+00 0. -1.
         -5    1    5    5    0  502  0.77788138296E+01  0.17722024212E+02  0.87929991550E+02  0.90157381843E+02  0.47000000000E+01 0.  1.
         11    1    6    6    0    0  0.35962211903E+02  0.19764958275E+02  0.19185774000E+01  0.41080593957E+02  0.00000000000E+00 0. -1.
        -12    1    6    6    0    0 -0.22484124972E+02  0.10918894226E+01 -0.53632481704E+02  0.58165034101E+02  0.00000000000E+00 0.  1.
</event>
<event>
12    1  0.1598254E-001  0.1805455E+03  0.7818608E-02  0.1167404E+00
         21   -1    0    0  503  502  0.00000000000E+00  0.00000000000E+00  0.18922707916E+03  0.18922707916E+03  0.00000000000E+00 0.  1.
         21   -1    0    0  501  503 -0.00000000000E+00 -0.00000000000E+00 -0.36353536522E+03  0.36353536522E+03  0.00000000000E+00 0.  1.
          6    2    1    2  501    0  0.52229264491E+02  0.86908148551E+01 -0.28795534623E+03  0.33987494001E+03  0.17260726257E+03 0.  0.
         24    2    3    3    0    0  0.21173377574E+02  0.60954924139E+02 -0.24143494709E+03  0.26317915937E+03  0.82514371817E+02 0.  0.
         -6    2    1    2    0  502 -0.52229264491E+02 -0.86908148551E+01  0.11364706018E+03  0.21288750437E+03  0.17205234349E+03 0.  0.
        -24    2    5    5    0    0 -0.97900423882E+02  0.74571989171E+01  0.53233849785E+02  0.13530877573E+03  0.76384024596E+02 0.  0.
          5    1    3    3  501    0  0.31055886917E+02 -0.52264109283E+02 -0.46520399138E+02  0.76695780636E+02  0.47000000000E+01 0. -1.
        -13    1    4    4    0    0  0.30046082112E+02 -0.88481212873E+01 -0.10635072646E+03  0.11086718775E+03  0.00000000000E+00 0.  1.
         14    1    4    4    0    0 -0.88727045375E+01  0.69803045426E+02 -0.13508422063E+03  0.15231197162E+03  0.00000000000E+00 0. -1.
         -5    1    5    5    0  502  0.45671159391E+02 -0.16148013772E+02  0.60413210390E+02  0.77578728647E+02  0.47000000000E+01 0.  1.
         13    1    6    6    0    0  0.86070163276E+01  0.15264296416E+02  0.92196633465E+01  0.19801052178E+02  0.00000000000E+00 0. -1.
        -14    1    6    6    0    0 -0.10650744021E+03 -0.78070974986E+01  0.44014186439E+02  0.11550772355E+03  0.00000000000E+00 0.  1.
</event>
<event>
12    1  0.1598254E-001  0.2066603E+03  0.7818608E-02  0.1144399E+00
         21   -1    0    0  501  502  0.00000000000E+00  0.00000000000E+00  0.83556402391E+03  0.83556402391E+03  0.00000000000E+00 0. -1.
         21   -1    0    0  502  503 -0.00000000000E+00 -0.00000000000E+00 -0.52575277375E+02  0.52575277375E+02  0.00000000000E+00 0.  1.
         -6    2    1    2    0  503  0.56616631134E+02 -0.10081142667E+03  0.31337147733E+03  0.37538003277E+03  0.17128951962E+03 0.  0.
        -24    2    3    3    0    0  0.10404914909E+03 -0.78926168704E+02  0.24938390402E+03  0.29264365738E+03  0.79952567721E+02 0.  0.
          6    2    1    2  501    0 -0.56616631134E+02  0.10081142667E+03  0.46961726920E+03  0.51275926851E+03  0.17033291298E+03 0.  0.
         24    2    5    5    0    0 -0.70517078580E+02  0.12799792107E+03  0.43702361822E+03  0.46785087284E+03  0.80862044036E+02 0.  0.
          5    1    5    5  501    0  0.13900447446E+02 -0.27186494406E+02  0.32593650974E+02  0.44908395664E+02  0.47000000000E+01 0. -1.
        -13    1    6    6    0    0  0.91917857289E+00  0.54678129839E+02  0.83572225088E+02  0.99874218785E+02  0.00000000000E+00 0.  1.
         14    1    6    6    0    0 -0.71436257153E+02  0.73319791233E+02  0.35345139314E+03  0.36797665406E+03  0.00000000000E+00 0. -1.
         -5    1    3    3    0  503 -0.47432517955E+02 -0.21885257961E+02  0.63987573310E+02  0.82736375396E+02  0.47000000000E+01 0.  1.
         13    1    4    4    0    0  0.71044262014E+02 -0.60047463418E+01  0.95401750648E+02  0.11910011826E+03  0.00000000000E+00 0. -1.
        -14    1    4    4    0    0  0.33004887075E+02 -0.72921422363E+02  0.15398215338E+03  0.17354353912E+03  0.00000000000E+00 0.  1.
</event>
<event>
12    1  0.1598254E-001  0.2012710E+03  0.7818608E-02  0.1152538E+00
         21   -1    0    0  501  502  0.00000000000E+00  0.00000000000E+00  0.15863033227E+03  0.15863033227E+03  0.00000000000E+00 0.  1.
         21   -1    0    0  502  503 -0.00000000000E+00 -0.00000000000E+00 -0.24269571763E+03  0.24269571763E+03  0.00000000000E+00 0.  1.
         -6    2    1    2    0  503  0.87579343097E+01 -0.61371472029E+02 -0.82849890771E+02  0.21765596944E+03  0.19148592022E+03 0.  0.
        -24    2    3    3    0    0 -0.82561112382E+01 -0.92784031818E+02  0.49591172661E+01  0.12274159461E+03  0.79773844518E+02 0.  0.
          6    2    1    2  501    0 -0.87579343097E+01  0.61371472029E+02 -0.12154945897E+01  0.18367008045E+03  0.17288742590E+03 0.  0.
         24    2    5    5    0    0 -0.33686043132E+02 -0.22591683540E+02 -0.24500491890E+02  0.92920407163E+02  0.79929933676E+02 0.  0.
          5    1    5    5  501    0  0.24928108823E+02  0.83963155569E+02  0.23284997300E+02  0.90749673288E+02  0.47000000000E+01 0. -1.
        -13    1    6    6    0    0 -0.10566451210E+02  0.14791325735E+02  0.22263527583E+02  0.28741918318E+02  0.00000000000E+00 0.  1.
         14    1    6    6    0    0 -0.23119591922E+02 -0.37383009275E+02 -0.46764019473E+02  0.64178488845E+02  0.00000000000E+00 0. -1.
         -5    1    3    3    0  503  0.17014045548E+02  0.31412559790E+02 -0.87809008037E+02  0.94914374838E+02  0.47000000000E+01 0.  1.
         11    1    4    4    0    0 -0.35986375868E+02 -0.13145013723E+02  0.13728251804E+01  0.38336604999E+02  0.00000000000E+00 0. -1.
        -12    1    4    4    0    0  0.27730264630E+02 -0.79639018095E+02  0.35862920857E+01  0.84404989607E+02  0.00000000000E+00 0.  1.
</event>
<event>
12    1  0.1598254E-001  0.2459588E+03  0.7818608E-02  0.1116038E+00
         21   -1    0    0  501  502  0.00000000000E+00  0.00000000000E+00  0.64204930435E+02  0.64204930435E+02  0.00000000000E+00 0.  1.
         21   -1    0    0  502  503 -0.00000000000E+00 -0.00000000000E+00 -0.10686879174E+04  0.10686879174E+04  0.00000000000E+00 0.  1.
         -6    2    1    2    0  503  0.13513690668E+03  0.11156967539E+03 -0.69900014121E+03  0.74069963551E+03  0.17124536964E+03 0.  0.
        -24    2    3    3    0    0 -0.49558787838E+00  0.23954402500E+02 -0.23573555001E+03  0.25007882360E+03  0.79963175696E+02 0.  0.
          6    2    1    2  501    0 -0.13513690668E+03 -0.11156967539E+03 -0.30548284573E+03  0.39219321230E+03  0.17258612552E+03 0.  0.
         24    2    5    5    0    0 -0.37642092252E+02 -0.11954412917E+03 -0.16725376359E+03  0.22278778174E+03  0.77154703866E+02 0.  0.
          5    1    5    5  501    0 -0.97494814431E+02  0.79744537775E+01 -0.13822908214E+03  0.16940543056E+03  0.47000000000E+01 0. -1.
        -13    1    6    6    0    0 -0.23040074874E+02  0.89571194405E+00 -0.44940553603E+02  0.50510401981E+02  0.00000000000E+00 0.  1.
         14    1    6    6    0    0 -0.14602017378E+02 -0.12043984111E+03 -0.12231320999E+03  0.17227737976E+03  0.00000000000E+00 0. -1.
         -5    1    3    3    0  503  0.13563249456E+03  0.87615272889E+02 -0.46326459120E+03  0.49062081191E+03  0.47000000000E+01 0.  1.
         13    1    4    4    0    0  0.83456852686E+01 -0.25465852715E+01  0.33648295247E+01  0.93518787887E+01  0.00000000000E+00 0. -1.
        -14    1    4    4    0    0 -0.88412731470E+01  0.26500987771E+02 -0.23910037954E+03  0.24072694481E+03  0.00000000000E+00 0.  1.
</event>
<event>
12    1  0.1598254E-001  0.1765389E+03  0.7818608E-02  0.1172148E+00
         21   -1    0    0  501  502  0.00000000000E+00  0.00000000000E+00  0.13078762895E+03  0.13078762895E+03  0.00000000000E+00 0. -1.
         21   -1    0    0  502  503 -0.00000000000E+00 -0.00000000000E+00 -0.23687044904E+03  0.23687044904E+03  0.00000000000E+00 0. -1.
         -6    2    1    2    0  503 -0.27857360098E+01  0.15387921378E+02 -0.30720825688E+02  0.17919197526E+03  0.17584494994E+03 0.  0.
        -24    2    3    3    0    0 -0.32367750294E+02 -0.38248317336E+02 -0.57320148169E+02  0.11224755332E+03  0.82482172636E+02 0.  0.
          6    2    1    2  501    0  0.27857360098E+01 -0.15387921378E+02 -0.75361994396E+02  0.18846610272E+03  0.17203340730E+03 0.  0.
         24    2    5    5    0    0  0.10476506910E+02 -0.38764913793E+02 -0.11301537930E+03  0.14323890818E+03  0.78309853286E+02 0.  0.
          5    1    5    5  501    0 -0.76907709003E+01  0.23376992414E+02  0.37653384901E+02  0.45227194539E+02  0.47000000000E+01 0. -1.
        -13    1    6    6    0    0  0.26682809656E+01  0.21230542541E+02 -0.56624194262E+02  0.60532264419E+02  0.00000000000E+00 0.  1.
         14    1    6    6    0    0  0.78082259445E+01 -0.59995456334E+02 -0.56391185035E+02  0.82706643764E+02  0.00000000000E+00 0. -1.
         -5    1    3    3    0  503  0.29582014284E+02  0.53636238715E+02  0.26599322481E+02  0.66944421941E+02  0.47000000000E+01 0.  1.
         11    1    4    4    0    0 -0.40548037715E+02  0.11706751444E+02 -0.41556383483E+02  0.59229421743E+02  0.00000000000E+00 0. -1.
        -12    1    4    4    0    0  0.81802874203E+01 -0.49955068780E+02 -0.15763764686E+02  0.53018131579E+02  0.00000000000E+00 0.  1.
</event>
<event>
12    1  0.1598254E-001  0.1824035E+03  0.7818608E-02  0.1166413E+00
         21   -1    0    0  501  502  0.00000000000E+00  0.00000000000E+00  0.88186726809E+03  0.88186726809E+03  0.00000000000E+00 0.  1.
         21   -1    0    0  502  503 -0.00000000000E+00 -0.00000000000E+00 -0.37264003733E+02  0.37264003733E+02  0.00000000000E+00 0.  1.
         -6    2    1    2    0  503 -0.38643843633E+02 -0.25728378698E+02  0.46929725571E+03  0.50349871535E+03  0.17639655897E+03 0.  0.
        -24    2    3    3    0    0 -0.78609769688E+02 -0.18733956034E+02  0.43756000956E+03  0.45177309320E+03  0.78164626073E+02 0.  0.
          6    2    1    2  501    0  0.38643843633E+02  0.25728378698E+02  0.37530600865E+03  0.41563255648E+03  0.17245441645E+03 0.  0.
         24    2    5    5    0    0  0.21155566737E+02  0.17746924003E+02  0.69041342517E+02  0.10872918542E+03  0.79327280737E+02 0.  0.
          5    1    5    5  501    0  0.17488276896E+02  0.79814546945E+01  0.30626466613E+03  0.30690337106E+03  0.47000000000E+01 0. -1.
        -13    1    6    6    0    0 -0.19561458650E+02  0.19736368054E+02 -0.86886804467E+00  0.27801615424E+02  0.00000000000E+00 0.  1.
         14    1    6    6    0    0  0.40717025388E+02 -0.19894440505E+01  0.69910210562E+02  0.80927569992E+02  0.00000000000E+00 0. -1.
         -5    1    3    3    0  503  0.39965926055E+02 -0.69944226640E+01  0.31737246147E+02  0.51725622150E+02  0.47000000000E+01 0.  1.
         11    1    4    4    0    0 -0.29470645729E+02  0.12353779065E+02  0.46547136663E+02  0.56460346690E+02  0.00000000000E+00 0. -1.
        -12    1    4    4    0    0 -0.49139123959E+02 -0.31087735099E+02  0.39101287290E+03  0.39531274651E+03  0.00000000000E+00 0.  1.
</event>
<event>
12    1  0.1598254E-001  0.2332498E+03  0.7818608E-02  0.1124447E+00
         21   -1    0    0  501  502  0.00000000000E+00  0.00000000000E+00  0.26016649469E+03  0.26016649469E+03  0.00000000000E+00 0.  1.
         21   -1    0    0  502  503 -0.00000000000E+00 -0.00000000000E+00 -0.20958189577E+03  0.20958189577E+03  0.00000000000E+00 0.  1.
         -6    2    1    2    0  503  0.52764151156E+02  0.14856905160E+03  0.10324896664E+02  0.23304962931E+03  0.17131464470E+03 0.  0.
        -24    2    3    3    0    0 -0.32350688188E+02  0.50803081452E+02  0.29695216755E+02  0.10190078221E+03  0.76644917675E+02 0.  0.
          6    2    1    2  501    0 -0.52764151156E+02 -0.14856905160E+03  0.40259702262E+02  0.23669876115E+03  0.17189718196E+03 0.  0.
         24    2    5    5    0    0 -0.84453222335E+02 -0.91988386948E+02 -0.16162307783E+02  0.15061100324E+03  0.82633189513E+02 0.  0.
          5    1    5    5  501    0  0.31689071179E+02 -0.56580664651E+02  0.56422010045E+02  0.86087757911E+02  0.47000000000E+01 0. -1.
        -13    1    6    6    0    0 -0.62448130470E+02 -0.10636872952E+03 -0.15500059084E+02  0.12431543529E+03  0.00000000000E+00 0.  1.
         14    1    6    6    0    0 -0.22005091865E+02  0.14380342577E+02 -0.66224869924E+00  0.26295567953E+02  0.00000000000E+00 0. -1.
         -5    1    3    3    0  503  0.85114839344E+02  0.97765970147E+02 -0.19370320092E+02  0.13114884710E+03  0.47000000000E+01 0.  1.
         11    1    4    4    0    0 -0.34825968587E+02  0.54147706041E+02  0.49785339699E+02  0.81384287221E+02  0.00000000000E+00 0. -1.
        -12    1    4    4    0    0  0.24752803995E+01 -0.33446245892E+01 -0.20090122943E+02  0.20516494988E+02  0.00000000000E+00 0.  1.
</event>
<event>
12    1  0.1598254E-001  0.2512225E+03  0.7818608E-02  0.1112552E+00
         21   -1    0    0  501  502  0.00000000000E+00  0.00000000000E+00  0.22578518888E+03  0.22578518888E+03  0.00000000000E+00 0. -1.
         21   -1    0    0  502  503 -0.00000000000E+00 -0.00000000000E+00 -0.86000948501E+03  0.86000948501E+03  0.00000000000E+00 0.  1.
         -6    2    1    2    0  503 -0.14228679090E+03 -0.11524494434E+03 -0.76316414351E+03  0.80341508355E+03  0.17184108495E+03 0.  0.
        -24    2    3    3    0    0 -0.41094847839E+00 -0.57388548864E+02 -0.29524006500E+03  0.31102179520E+03  0.79210142595E+02 0.  0.
          6    2    1    2  501    0  0.14228679090E+03  0.11524494434E+03  0.12893984738E+03  0.28237959034E+03  0.17200529276E+03 0.  0.
         24    2    5    5    0    0  0.45647762793E+02 -0.28308488427E+01  0.75874846248E+02  0.12076591816E+03  0.82071205324E+02 0.  0.
          5    1    5    5  501    0  0.96639028110E+02  0.11807579318E+03  0.53065001134E+02  0.16161367218E+03  0.47000000000E+01 0. -1.
        -11    1    6    6    0    0  0.39152593877E+02  0.11129955180E+02 -0.26075947728E+01  0.40787265906E+02  0.00000000000E+00 0.  1.
         12    1    6    6    0    0  0.64951689164E+01 -0.13960804023E+02  0.78482441020E+02  0.79978652256E+02  0.00000000000E+00 0. -1.
         -5    1    3    3    0  503 -0.14187584242E+03 -0.57856395474E+02 -0.46792407850E+03  0.49239328834E+03  0.47000000000E+01 0.  1.
         11    1    4    4    0    0  0.16337754993E+02 -0.20247455280E+02 -0.24481620400E+03  0.24619475101E+03  0.00000000000E+00 0. -1.
        -12    1    4    4    0    0 -0.16748703472E+02 -0.37141093584E+02 -0.50423861002E+02  0.64827044194E+02  0.00000000000E+00 0.  1.
</event>
<event>
12    1  0.1598254E-001  0.1825957E+03  0.7818608E-02  0.1165390E+00
         21   -1    0    0  501  502  0.00000000000E+00  0.00000000000E+00  0.33793594578E+03  0.33793594578E+03  0.00000000000E+00 0. -1.
         21   -1    0    0  502  503 -0.00000000000E+00 -0.00000000000E+00 -0.11188024527E+03  0.11188024527E+03  0.00000000000E+00 0. -1.
         -6    2    1    2    0  503 -0.21268555152E+02  0.59119112142E+02  0.35129880594E+02  0.18563089636E+03  0.17110610834E+03 0.  0.
        -24    2    3    3    0    0 -0.39658841217E+02  0.10221015407E+03  0.12833264309E+02  0.13353224365E+03  0.75142718478E+02 0.  0.
          6    2    1    2  501    0  0.21268555152E+02 -0.59119112142E+02  0.19092581992E+03  0.26418529470E+03  0.17144614422E+03 0.  0.
         24    2    5    5    0    0  0.50358089923E+02  0.12495339391E+02  0.62240255823E+02  0.11399576409E+03  0.80181756388E+02 0.  0.
          5    1    5    5  501    0 -0.29089534771E+02 -0.71614451533E+02  0.12868556409E+03  0.15018953062E+03  0.47000000000E+01 0. -1.
        -13    1    6    6    0    0  0.13704270278E+02 -0.32540060712E+02  0.12242657059E+02  0.37370379003E+02  0.00000000000E+00 0.  1.
         14    1    6    6    0    0  0.36653819645E+02  0.45035400102E+02  0.49997598764E+02  0.76625385083E+02  0.00000000000E+00 0. -1.
         -5    1    3    3    0  503  0.18390286065E+02 -0.43091041926E+02  0.22296616285E+02  0.52098652704E+02  0.47000000000E+01 0.  1.
         11    1    4    4    0    0 -0.41417843221E+02  0.10084403833E+03 -0.11021383946E+02  0.10957385047E+03  0.00000000000E+00 0. -1.
        -12    1    4    4    0    0  0.17590020034E+01  0.13661157387E+01  0.23854648255E+02  0.23958393177E+02  0.00000000000E+00 0.  1.
</event>
<event>
12    1  0.1598254E-001  0.1776866E+03  0.7818608E-02  0.1172314E+00
         21   -1    0    0  501  502  0.00000000000E+00  0.00000000000E+00  0.98749442158E+02  0.98749442158E+02  0.00000000000E+00 0.  1.
         21   -1    0    0  502  503 -0.00000000000E+00 -0.00000000000E+00 -0.33485558468E+03  0.33485558468E+03  0.00000000000E+00 0.  1.
         -6    2    1    2    0  503 -0.33684239090E+02 -0.24805217786E+02 -0.18119769478E+03  0.24762795522E+03  0.16351474803E+03 0.  0.
        -24    2    3    3    0    0 -0.31965477650E+02 -0.41627043987E+02 -0.37073402329E+02  0.10243901056E+03  0.79779139959E+02 0.  0.
          6    2    1    2  501    0  0.33684239090E+02  0.24805217786E+02 -0.54908447743E+02  0.18597707161E+03  0.17269223127E+03 0.  0.
         24    2    5    5    0    0  0.14370593698E+02 -0.19841408781E+02  0.29898342178E+02  0.88096431144E+02  0.79163595482E+02 0.  0.
          5    1    5    5  501    0  0.19313645392E+02  0.44646626567E+02 -0.84806789921E+02  0.97880640470E+02  0.47000000000E+01 0. -1.
        -13    1    6    6    0    0  0.14535583118E+02  0.29424569740E+02  0.60912585340E+01  0.33379513350E+02  0.00000000000E+00 0.  1.
         14    1    6    6    0    0 -0.16498941910E+00 -0.49265978522E+02  0.23807083644E+02  0.54716917793E+02  0.00000000000E+00 0. -1.
         -5    1    3    3    0  503 -0.17187614401E+01  0.16821826201E+02 -0.14412429245E+03  0.14518894466E+03  0.47000000000E+01 0.  1.
         13    1    4    4    0    0  0.13014945515E+02  0.88536269201E+01 -0.30732553288E+02  0.34529195589E+02  0.00000000000E+00 0. -1.
        -14    1    4    4    0    0 -0.44980423165E+02 -0.50480670908E+02 -0.63408490405E+01  0.67909814975E+02  0.00000000000E+00 0.  1.
</event>
<event>
12    1  0.1598254E-001  0.2278118E+03  0.7818608E-02  0.1129067E+00
         21   -1    0    0  501  502  0.00000000000E+00  0.00000000000E+00  0.30536647264E+02  0.30536647264E+02  0.00000000000E+00 0. -1.
         21   -1    0    0  502  503 -0.00000000000E+00 -0.00000000000E+00 -0.18126240930E+04  0.18126240930E+04  0.00000000000E+00 0. -1.
         -6    2    1    2    0  503 -0.13707580494E+03  0.47506628586E+02 -0.11466218975E+04  0.11680943006E+04  0.16928042742E+03 0.  0.
        -24    2    3    3    0    0 -0.10760178863E+03  0.13260274262E+01 -0.10356580545E+04  0.10442539597E+04  0.79365126595E+02 0.  0.
          6    2    1    2  501    0  0.13707580494E+03 -0.47506628586E+02 -0.63546554821E+03  0.67506643968E+03  0.17564617548E+03 0.  0.
         24    2    5    5    0    0  0.11819024309E+03 -0.98868443192E+02 -0.46905589031E+03  0.49982670478E+03  0.77906379419E+02 0.  0.
          5    1    5    5  501    0  0.18885561857E+02  0.51361814606E+02 -0.16640965790E+03  0.17523973490E+03  0.47000000000E+01 0. -1.
        -11    1    6    6    0    0 -0.10289786678E+02 -0.10184654008E+02 -0.66532473733E+02  0.68089477514E+02  0.00000000000E+00 0.  1.
         12    1    6    6    0    0  0.12848002976E+03 -0.88683789184E+02 -0.40252341658E+03  0.43173722727E+03  0.00000000000E+00 0. -1.
         -5    1    3    3    0  503 -0.29474016312E+02  0.46180601160E+02 -0.11096384304E+03  0.12384034086E+03  0.47000000000E+01 0.  1.
         11    1    4    4    0    0 -0.70950508654E+02  0.39156045864E+02 -0.62900080714E+03  0.63419964206E+03  0.00000000000E+00 0. -1.
        -12    1    4    4    0    0 -0.36651279978E+02 -0.37830018438E+02 -0.40665724733E+03  0.41005431765E+03  0.00000000000E+00 0.  1.
</event>
<event>
12    1  0.1598254E-001  0.1858360E+03  0.7818608E-02  0.1162305E+00
         21   -1    0    0  501  502  0.00000000000E+00  0.00000000000E+00  0.12892788350E+03  0.12892788350E+03  0.00000000000E+00 0. -1.
         21   -1    0    0  502  503 -0.00000000000E+00 -0.00000000000E+00 -0.31386548482E+03  0.31386548482E+03  0.00000000000E+00 0.  1.
         -6    2    1    2    0  503  0.70501725110E+02  0.54373198653E+00 -0.17738791383E+03  0.25680411622E+03  0.17178793103E+03 0.  0.
        -24    2    3    3    0    0  0.25902340546E+02 -0.65038408809E+02 -0.11161854404E+03  0.15366429706E+03  0.79076487975E+02 0.  0.
          6    2    1    2  501    0 -0.70501725110E+02 -0.54373198653E+00 -0.75496874839E+01  0.18598925210E+03  0.17194247651E+03 0.  0.
         24    2    5    5    0    0 -0.78774743789E+02  0.58287832061E+02 -0.33027006048E+01  0.12624209598E+03  0.79518723212E+02 0.  0.
          5    1    5    5  501    0  0.82730186781E+01 -0.58831564048E+02 -0.42469868791E+01  0.59747156116E+02  0.47000000000E+01 0. -1.
        -13    1    6    6    0    0 -0.25912726764E+01  0.29391379376E+02 -0.28432464468E+02  0.40975271951E+02  0.00000000000E+00 0.  1.
         14    1    6    6    0    0 -0.76183471112E+02  0.28896452685E+02  0.25129763863E+02  0.85266824031E+02  0.00000000000E+00 0. -1.
         -5    1    3    3    0  503  0.44599384564E+02  0.65582140796E+02 -0.65769369788E+02  0.10313981916E+03  0.47000000000E+01 0.  1.
         13    1    4    4    0    0 -0.22834853313E+02 -0.43984244319E+02 -0.35931674929E+02  0.61213801854E+02  0.00000000000E+00 0. -1.
        -14    1    4    4    0    0  0.48737193860E+02 -0.21054164490E+02 -0.75686869114E+02  0.92450495206E+02  0.00000000000E+00 0.  1.
</event>
<event>
12    1  0.1598254E-001  0.2271990E+03  0.7818608E-02  0.1128745E+00
         21   -1    0    0  503  502  0.00000000000E+00  0.00000000000E+00  0.16824492517E+03  0.16824492517E+03  0.00000000000E+00 0.  1.
         21   -1    0    0  501  503 -0.00000000000E+00 -0.00000000000E+00 -0.30610886393E+03  0.30610886393E+03  0.00000000000E+00 0. -1.
          6    2    1    2  501    0 -0.12852609094E+03 -0.75041451224E+02 -0.62980234379E+02  0.23513219107E+03  0.17079362372E+03 0.  0.
         24    2    3    3    0    0 -0.57431578780E+02 -0.87479775206E+02 -0.88424957584E+02  0.15845973512E+03  0.79620457296E+02 0.  0.
         -6    2    1    2    0  502  0.12852609094E+03  0.75041451224E+02 -0.74883704376E+02  0.23922159802E+03  0.17166603719E+03 0.  0.
        -24    2    5    5    0    0  0.20915584731E+02  0.35994556458E+02 -0.85014950807E+02  0.12420241183E+03  0.80409125509E+02 0.  0.
          5    1    3    3  501    0 -0.71094512160E+02  0.12438323981E+02  0.25444723205E+02  0.76672455952E+02  0.47000000000E+01 0. -1.
        -11    1    4    4    0    0 -0.10057698667E+02 -0.57763583102E+02 -0.61164768387E+01  0.58950828020E+02  0.00000000000E+00 0.  1.
         12    1    4    4    0    0 -0.47373880113E+02 -0.29716192103E+02 -0.82308480745E+02  0.99508907102E+02  0.00000000000E+00 0. -1.
         -5    1    5    5    0  502  0.10761050621E+03  0.39046894766E+02  0.10131246431E+02  0.11501918619E+03  0.47000000000E+01 0.  1.
         11    1    6    6    0    0  0.45612592178E+02  0.39607558210E+02 -0.39151145715E+02  0.71986661565E+02  0.00000000000E+00 0. -1.
        -12    1    6    6    0    0 -0.24697007447E+02 -0.36130017513E+01 -0.45863805092E+02  0.52215750268E+02  0.00000000000E+00 0.  1.
</event>
<event>
12    1  0.1598254E-001  0.3437829E+03  0.7818608E-02  0.1065219E+00
         21   -1    0    0  503  502  0.00000000000E+00  0.00000000000E+00  0.25470307355E+03  0.25470307355E+03  0.00000000000E+00 0. -1.
         21   -1    0    0  501  503 -0.00000000000E+00 -0.00000000000E+00 -0.62931322414E+03  0.62931322414E+03  0.00000000000E+00 0.  1.
          6    2    1    2  501    0  0.18102490307E+02  0.29687768121E+03 -0.41408315009E+03  0.53819281868E+03  0.17240242787E+03 0.  0.
         24    2    3    3    0    0 -0.13990618881E+02  0.90319520894E+02 -0.22766954747E+03  0.25807076940E+03  0.80085865809E+02 0.  0.
         -6    2    1    2    0  502 -0.18102490307E+02 -0.29687768121E+03  0.39472999495E+02  0.34582347901E+03  0.17196424973E+03 0.  0.
        -24    2    5    5    0    0 -0.35117201271E+02 -0.29480844441E+03  0.65766242646E+02  0.31408695800E+03  0.78614132290E+02 0.  0.
          5    1    3    3  501    0  0.32093109188E+02  0.20655816032E+03 -0.18641360262E+03  0.28012204928E+03  0.47000000000E+01 0. -1.
        -13    1    4    4    0    0  0.73708248222E+01 -0.13296337352E+02 -0.21370675864E+02  0.26226464352E+02  0.00000000000E+00 0.  1.
         14    1    4    4    0    0 -0.21361443704E+02  0.10361585825E+03 -0.20629887161E+03  0.23184430505E+03  0.00000000000E+00 0. -1.
         -5    1    5    5    0  502  0.17014710964E+02 -0.20692368046E+01 -0.26293243151E+02  0.31736521006E+02  0.47000000000E+01 0.  1.
         13    1    6    6    0    0  0.97114369137E+01 -0.13028747735E+01 -0.71930794403E+00  0.98248101011E+01  0.00000000000E+00 0. -1.
        -14    1    6    6    0    0 -0.44828638184E+02 -0.29350556964E+03  0.66485550590E+02  0.30426214790E+03  0.00000000000E+00 0.  1.
</event>
<event>
12    1  0.1598254E-001  0.1814797E+03  0.7818608E-02  0.1166722E+00
         21   -1    0    0  501  502  0.00000000000E+00  0.00000000000E+00  0.84825633014E+03  0.84825633014E+03  0.00000000000E+00 0. -1.
         21   -1    0    0  502  503 -0.00000000000E+00 -0.00000000000E+00 -0.42118696126E+02  0.42118696126E+02  0.00000000000E+00 0. -1.
         -6    2    1    2    0  503  0.54373699601E+02  0.70455723317E+01  0.53462209140E+03  0.56458449669E+03  0.17299923118E+03 0.  0.
        -24    2    3    3    0    0  0.45859843522E+02 -0.53839775307E+02  0.24414866548E+03  0.26763936292E+03  0.83787893372E+02 0.  0.
          6    2    1    2  501    0 -0.54373699601E+02 -0.70455723317E+01  0.27151554261E+03  0.32579052957E+03  0.17150113697E+03 0.  0.
         24    2    5    5    0    0 -0.59520561219E+02 -0.16598249972E+02  0.51593833961E+02  0.10555113308E+03  0.68270922660E+02 0.  0.
          5    1    5    5  501    0  0.51468616182E+01  0.95526776401E+01  0.21992170865E+03  0.22023939649E+03  0.47000000000E+01 0. -1.
        -13    1    6    6    0    0 -0.15795034197E+02  0.21493676674E+02 -0.17858420574E+01  0.26732947352E+02  0.00000000000E+00 0.  1.
         14    1    6    6    0    0 -0.43725527022E+02 -0.38091926646E+02  0.53379676018E+02  0.78818185724E+02  0.00000000000E+00 0. -1.
         -5    1    3    3    0  503  0.85138560790E+01  0.60885347638E+02  0.29047342593E+03  0.29694513377E+03  0.47000000000E+01 0.  1.
         13    1    4    4    0    0  0.30032063270E+02  0.17693010555E+02  0.59065940960E+02  0.68583910856E+02  0.00000000000E+00 0. -1.
        -14    1    4    4    0    0  0.15827780252E+02 -0.71532785862E+02  0.18508272452E+03  0.19905545206E+03  0.00000000000E+00 0.  1.
</event>
<event>
12    1  0.1598254E-001  0.2145454E+03  0.7818608E-02  0.1138332E+00
         21   -1    0    0  501  502  0.00000000000E+00  0.00000000000E+00  0.23104328368E+02  0.23104328368E+02  0.00000000000E+00 0.  1.
         21   -1    0    0  502  503 -0.00000000000E+00 -0.00000000000E+00 -0.19820433248E+04  0.19820433248E+04  0.00000000000E+00 0. -1.
         -6    2    1    2    0  503  0.75698134597E+02  0.10366795044E+03 -0.92567060361E+03  0.94984044908E+03  0.16986335918E+03 0.  0.
        -24    2    3    3    0    0  0.50062081048E+02  0.18936212893E+01 -0.26776908667E+03  0.28360346624E+03  0.78872330547E+02 0.  0.
          6    2    1    2  501    0 -0.75698134597E+02 -0.10366795044E+03 -0.10332683928E+04  0.10553072041E+04  0.17190832402E+03 0.  0.
         24    2    5    5    0    0 -0.92147780322E+02 -0.11941294836E+02 -0.57171117212E+03  0.58441281235E+03  0.77787293094E+02 0.  0.
          5    1    5    5  501    0  0.16449645725E+02 -0.91726655600E+02 -0.46155722071E+03  0.47089439175E+03  0.47000000000E+01 0. -1.
        -13    1    6    6    0    0 -0.48488912254E+02  0.20461336086E+02 -0.41938716329E+03  0.42267651179E+03  0.00000000000E+00 0.  1.
         14    1    6    6    0    0 -0.43658868068E+02 -0.32402630923E+02 -0.15232400883E+03  0.16173630056E+03  0.00000000000E+00 0. -1.
         -5    1    3    3    0  503  0.25636053549E+02  0.10177432915E+03 -0.65790151694E+03  0.66623698284E+03  0.47000000000E+01 0.  1.
         13    1    4    4    0    0 -0.82783262304E-01 -0.11694350066E+02 -0.18827556051E+03  0.18863841433E+03  0.00000000000E+00 0. -1.
        -14    1    4    4    0    0  0.50144864311E+02  0.13587971355E+02 -0.79493526164E+02  0.94965051910E+02  0.00000000000E+00 0.  1.
</event>
<event>
12    1  0.1598254E-001  0.2925533E+03  0.7818608E-02  0.1089258E+00
         21   -1    0    0  503  502  0.00000000000E+00  0.00000000000E+00  0.14783101884E+03  0.14783101884E+03  0.00000000000E+00 0. -1.
         21   -1    0    0  501  503 -0.00000000000E+00 -0.00000000000E+00 -0.64434121486E+03  0.64434121486E+03  0.00000000000E+00 0. -1.
          6    2    1    2  501    0 -0.21138610388E+02 -0.23372479495E+03 -0.37851894205E+03  0.47839734192E+03  0.17468058461E+03 0.  0.
         24    2    3    3    0    0 -0.41114874391E+02 -0.41540723916E+02 -0.11667916222E+03  0.15295006726E+03  0.79772373277E+02 0.  0.
         -6    2    1    2    0  502  0.21138610388E+02  0.23372479495E+03 -0.11799125396E+03  0.31377489178E+03  0.17163515397E+03 0.  0.
        -24    2    5    5    0    0 -0.12234273317E+02  0.23757945397E+03 -0.12335910059E+03  0.27943087425E+03  0.79186308117E+02 0.  0.
          5    1    3    3  501    0  0.19976264003E+02 -0.19218407103E+03 -0.26183977983E+03  0.32544727466E+03  0.47000000000E+01 0. -1.
        -13    1    4    4    0    0  0.19206693244E+02 -0.26279363413E+02 -0.20726467590E+02  0.38588709042E+02  0.00000000000E+00 0.  1.
         14    1    4    4    0    0 -0.60321567635E+02 -0.15261360503E+02 -0.95952694634E+02  0.11436135822E+03  0.00000000000E+00 0. -1.
         -5    1    5    5    0  502  0.33372883705E+02 -0.38546590180E+01  0.53678466339E+01  0.34344017535E+02  0.47000000000E+01 0.  1.
         11    1    6    6    0    0  0.67015884850E+01  0.98966189787E+02 -0.10623131246E+02  0.99760056770E+02  0.00000000000E+00 0. -1.
        -12    1    6    6    0    0 -0.18935861802E+02  0.13861326418E+03 -0.11273596935E+03  0.17967081748E+03  0.00000000000E+00 0.  1.
</event>
<event>
12    1  0.1598254E-001  0.1753128E+03  0.7818608E-02  0.1172653E+00
         21   -1    0    0  503  502  0.00000000000E+00  0.00000000000E+00  0.91676774804E+02  0.91676774804E+02  0.00000000000E+00 0. -1.
         21   -1    0    0  501  503 -0.00000000000E+00 -0.00000000000E+00 -0.33555268316E+03  0.33555268316E+03  0.00000000000E+00 0. -1.
          6    2    1    2  501    0  0.31389550061E+02 -0.12792109433E+02 -0.13912845847E+03  0.22381089283E+03  0.17200478446E+03 0.  0.
         24    2    3    3    0    0 -0.24771425133E+02 -0.13067924810E+02 -0.15089156399E+02  0.87568573171E+02  0.81585404359E+02 0.  0.
         -6    2    1    2    0  502 -0.31389550061E+02  0.12792109433E+02 -0.10474744989E+03  0.20341856514E+03  0.17105011683E+03 0.  0.
        -24    2    5    5    0    0  0.34118753117E+02 -0.37241044034E+02 -0.57328930717E+02  0.10820690518E+03  0.76623386483E+02 0.  0.
          5    1    3    3  501    0  0.56160975195E+02  0.27581537637E+00 -0.12403930207E+03  0.13624231966E+03  0.47000000000E+01 0. -1.
        -11    1    4    4    0    0 -0.41383378840E+02 -0.37214086881E+02 -0.26165468275E+01  0.55716412518E+02  0.00000000000E+00 0.  1.
         12    1    4    4    0    0  0.16611953706E+02  0.24146162071E+02 -0.12472609572E+02  0.31852160653E+02  0.00000000000E+00 0. -1.
         -5    1    5    5    0  502 -0.65508303179E+02  0.50033153468E+02 -0.47418519178E+02  0.95211659960E+02  0.47000000000E+01 0.  1.
         11    1    6    6    0    0 -0.21037092295E+02 -0.14452355569E+02 -0.37419724591E+02  0.45295315676E+02  0.00000000000E+00 0. -1.
        -12    1    6    6    0    0  0.55155845412E+02 -0.22788688465E+02 -0.19909206125E+02  0.62911589502E+02  0.00000000000E+00 0.  1.
</event>
<event>
12    1  0.1598254E-001  0.2026788E+03  0.7818608E-02  0.1147852E+00
         21   -1    0    0  503  502  0.00000000000E+00  0.00000000000E+00  0.46184749235E+03  0.46184749235E+03  0.00000000000E+00 0. -1.
         21   -1    0    0  501  503 -0.00000000000E+00 -0.00000000000E+00 -0.12732607332E+03  0.12732607332E+03  0.00000000000E+00 0. -1.
          6    2    1    2  501    0 -0.70623376685E+02  0.81020862556E+02  0.44502392351E+01  0.20272765483E+03  0.17183322117E+03 0.  0.
         24    2    3    3    0    0 -0.32898353145E+02  0.11965394554E+03 -0.43694170775E+01  0.14781345958E+03  0.80189517414E+02 0.  0.
         -6    2    1    2    0  502  0.70623376685E+02 -0.81020862556E+02  0.33007117980E+03  0.38644591085E+03  0.16982760900E+03 0.  0.
        -24    2    5    5    0    0  0.32906401856E+02 -0.78515200150E+02  0.32766563223E+03  0.34827884136E+03  0.81767455984E+02 0.  0.
          5    1    3    3  501    0 -0.37725023539E+02 -0.38633082988E+02  0.88196563126E+01  0.54914195247E+02  0.47000000000E+01 0. -1.
        -13    1    4    4    0    0 -0.19877982750E+01 -0.10773600459E+02  0.74568945775E+01  0.13252436968E+02  0.00000000000E+00 0.  1.
         14    1    4    4    0    0 -0.30910554870E+02  0.13042754600E+03 -0.11826311655E+02  0.13456102261E+03  0.00000000000E+00 0. -1.
         -5    1    5    5    0  502  0.37716974829E+02 -0.25056624054E+01  0.24055475673E+01  0.38167069490E+02  0.47000000000E+01 0.  1.
         13    1    6    6    0    0  0.54106714279E+02 -0.23572715111E+02  0.17218717538E+03  0.18202096801E+03  0.00000000000E+00 0. -1.
        -14    1    6    6    0    0 -0.21200312423E+02 -0.54942485039E+02  0.15547845685E+03  0.16625787336E+03  0.00000000000E+00 0.  1.
</event>
<event>
12    1  0.1598254E-001  0.3743233E+03  0.7818608E-02  0.1053112E+00
         21   -1    0    0  503  502  0.00000000000E+00  0.00000000000E+00  0.15378385211E+04  0.15378385211E+04  0.00000000000E+00 0.  1.
         21   -1    0    0  501  503 -0.00000000000E+00 -0.00000000000E+00 -0.96305612909E+02  0.96305612909E+02  0.00000000000E+00 0.  1.
          6    2    1    2  501    0 -0.19446867021E+03 -0.26981357503E+03  0.52883938243E+03  0.64791127470E+03  0.17175709159E+03 0.  0.
         24    2    3    3    0    0 -0.13289641958E+03 -0.23620404477E+03  0.31919377574E+03  0.42679114225E+03  0.82536074091E+02 0.  0.
         -6    2    1    2    0  502  0.19446867021E+03  0.26981357503E+03  0.91269352579E+03  0.98623285934E+03  0.17037708723E+03 0.  0.
        -24    2    5    5    0    0  0.18075837208E+03  0.21819715382E+03  0.86905266436E+03  0.91710369039E+03  0.74451719134E+02 0.  0.
          5    1    3    3  501    0 -0.61572250622E+02 -0.33609530261E+02  0.20964560668E+03  0.22112013244E+03  0.47000000000E+01 0. -1.
        -11    1    4    4    0    0 -0.14150214610E+03 -0.20509833088E+03  0.29669817388E+03  0.38745062791E+03  0.00000000000E+00 0.  1.
         12    1    4    4    0    0  0.86057265187E+01 -0.31105713894E+02  0.22495601859E+02  0.39340514343E+02  0.00000000000E+00 0. -1.
         -5    1    5    5    0  502  0.13710298124E+02  0.51616421209E+02  0.43640861434E+02  0.69129168950E+02  0.47000000000E+01 0.  1.
         11    1    6    6    0    0  0.74115971447E+02  0.13737896450E+03  0.53313995075E+03  0.55552170452E+03  0.00000000000E+00 0. -1.
        -12    1    6    6    0    0  0.10664240063E+03  0.80818189322E+02  0.33591271360E+03  0.36158198586E+03  0.00000000000E+00 0.  1.
</event>
<event>
12    1  0.1598254E-001  0.1759573E+03  0.7818608E-02  0.1171858E+00
         21   -1    0    0  501  502  0.00000000000E+00  0.00000000000E+00  0.82739003633E+02  0.82739003633E+02  0.00000000000E+00 0.  1.
         21   -1    0    0  502  503 -0.00000000000E+00 -0.00000000000E+00 -0.39770960736E+03  0.39770960736E+03  0.00000000000E+00 0.  1.
         -6    2    1    2    0  503  0.32765719419E+02  0.23591804520E+02 -0.21691417951E+03  0.27930756627E+03  0.17126234172E+03 0.  0.
        -24    2    3    3    0    0 -0.24168704712E+02 -0.15256501915E+02 -0.18258168282E+03  0.20216140698E+03  0.81952891537E+02 0.  0.
          6    2    1    2  501    0 -0.32765719419E+02 -0.23591804520E+02 -0.98056424217E+02  0.20114104473E+03  0.17091662276E+03 0.  0.
         24    2    5    5    0    0 -0.42391072258E+02  0.14357552728E+02  0.46278552316E+01  0.91145806746E+02  0.79265368957E+02 0.  0.
          5    1    5    5  501    0  0.96253528387E+01 -0.37949357248E+02 -0.10268427945E+03  0.10999523798E+03  0.47000000000E+01 0. -1.
        -13    1    6    6    0    0 -0.44018671215E+02 -0.12962756161E+02  0.29178785043E+02  0.54379021317E+02  0.00000000000E+00 0.  1.
         14    1    6    6    0    0  0.16275989573E+01  0.27320308889E+02 -0.24550929812E+02  0.36766785429E+02  0.00000000000E+00 0. -1.
         -5    1    3    3    0  503  0.56934424131E+02  0.38848306436E+02 -0.34332496692E+02  0.77146159290E+02  0.47000000000E+01 0.  1.
         13    1    4    4    0    0 -0.62243308886E+00 -0.46747632369E+02 -0.11199881731E+03  0.12136500168E+03  0.00000000000E+00 0. -1.
        -14    1    4    4    0    0 -0.23546271623E+02  0.31491130453E+02 -0.70582865511E+02  0.80796405294E+02  0.00000000000E+00 0.  1.
</event>
<event>
12    1  0.1598254E-001  0.1910220E+03  0.7818608E-02  0.1157750E+00
         21   -1    0    0  501  502  0.00000000000E+00  0.00000000000E+00  0.87850738211E+02  0.87850738211E+02  0.00000000000E+00 0. -1.
         21   -1    0    0  502  503 -0.00000000000E+00 -0.00000000000E+00 -0.67114902582E+03  0.67114902582E+03  0.00000000000E+00 0. -1.
         -6    2    1    2    0  503  0.45397721255E+02  0.70275531740E+02 -0.52641453077E+03  0.55968806985E+03  0.17070112440E+03 0.  0.
        -24    2    3    3    0    0 -0.27380606571E+02  0.30675803548E+02 -0.38666849823E+03  0.39715848151E+03  0.80818496499E+02 0.  0.
          6    2    1    2  501    0 -0.45397721255E+02 -0.70275531740E+02 -0.56883756836E+02  0.19931169418E+03  0.17172590424E+03 0.  0.
         24    2    5    5    0    0 -0.82045752930E+00 -0.71111991942E+02  0.20077430597E+02  0.11024460442E+03  0.81811863659E+02 0.  0.
          5    1    5    5  501    0 -0.44577263726E+02  0.83646020206E+00 -0.76961187433E+02  0.89067089758E+02  0.47000000000E+01 0. -1.
        -11    1    6    6    0    0  0.20855945506E+02  0.19769319784E+01 -0.15554945504E+02  0.26092816112E+02  0.00000000000E+00 0.  1.
         12    1    6    6    0    0 -0.21676403036E+02 -0.73088923920E+02  0.35632376102E+02  0.84151788306E+02  0.00000000000E+00 0. -1.
         -5    1    3    3    0  503  0.72778327827E+02  0.39599728192E+02 -0.13974603254E+03  0.16252958834E+03  0.47000000000E+01 0.  1.
         13    1    4    4    0    0 -0.18759687347E+02  0.56820002013E+02 -0.30938802721E+03  0.31512123044E+03  0.00000000000E+00 0. -1.
        -14    1    4    4    0    0 -0.86209192240E+01 -0.26144198464E+02 -0.77280471023E+02  0.82037251070E+02  0.00000000000E+00 0.  1.
</event>
<event>
12    1  0.1598254E-001  0.2251316E+03  0.7818608E-02  0.1130234E+00
         21   -1    0    0  501  502  0.00000000000E+00  0.00000000000E+00  0.33919264904E+03  0.33919264904E+03  0.00000000000E+00 0.  1.
         21   -1    0    0  502  503 -0.00000000000E+00 -0.00000000000E+00 -0.16368071541E+03  0.16368071541E+03  0.00000000000E+00 0.  1.
         -6    2    1    2    0  503  0.14166367022E+03 -0.31694211955E+02  0.12538441238E+02  0.22548053056E+03  0.17207887326E+03 0.  0.
        -24    2    3    3    0    0  0.14996264929E+03  0.21293986569E+02  0.10488083854E+02  0.17160181304E+03  0.79968445589E+02 0.  0.
          6    2    1    2  501    0 -0.14166367022E+03  0.31694211955E+02  0.16297349239E+03  0.27739283389E+03  0.17121129209E+03 0.  0.
         24    2    5    5    0    0 -0.93918371589E+02  0.49634178384E+02  0.31939736941E+02  0.13670384710E+03  0.79897326797E+02 0.  0.
          5    1    5    5  501    0 -0.47745298626E+02 -0.17939966430E+02  0.13103375545E+03  0.14068898679E+03  0.47000000000E+01 0. -1.
        -13    1    6    6    0    0 -0.66262726442E+01  0.44167672946E+02  0.37903856508E+01  0.44822514945E+02  0.00000000000E+00 0.  1.
         14    1    6    6    0    0 -0.87292098945E+02  0.54665054382E+01  0.28149351290E+02  0.91881332151E+02  0.00000000000E+00 0. -1.
         -5    1    3    3    0  503 -0.82989790727E+01 -0.52988198524E+02  0.20503573838E+01  0.53878717523E+02  0.47000000000E+01 0.  1.
         13    1    4    4    0    0  0.12378469888E+02  0.20034863592E+02 -0.19741391914E+02  0.30730194119E+02  0.00000000000E+00 0. -1.
        -14    1    4    4    0    0  0.13758417940E+03  0.12591229778E+01  0.30229475768E+02  0.14087161892E+03  0.00000000000E+00 0.  1.
</event>
<event>
12    1  0.1598254E-001  0.1831920E+03  0.7818608E-02  0.1164799E+00
         21   -1    0    0  503  502  0.00000000000E+00  0.00000000000E+00  0.13383523731E+03  0.13383523731E+03  0.00000000000E+00 0. -1.
         21   -1    0    0  501  503 -0.00000000000E+00 -0.00000000000E+00 -0.45539227849E+03  0.45539227849E+03  0.00000000000E+00 0. -1.
          6    2    1    2  501    0 -0.61904570527E+02  0.11643102958E+02 -0.35836250303E+03  0.40237478250E+03  0.17179652009E+03 0.  0.
         24    2    3    3    0    0 -0.18896082963E+02  0.45587702551E+02 -0.32761045457E+03  0.33936887540E+03  0.73534502615E+02 0.  0.
         -6    2    1    2    0  502  0.61904570527E+02 -0.11643102958E+02  0.36805461846E+02  0.18685273330E+03  0.17202198761E+03 0.  0.
        -24    2    5    5    0    0  0.61528146144E+02 -0.35891720935E+01 -0.40124692444E+02  0.10935856489E+03  0.80936455611E+02 0.  0.
          5    1    3    3  501    0 -0.43008487564E+02 -0.33944599593E+02 -0.30752048458E+02  0.63005907092E+02  0.47000000000E+01 0. -1.
        -11    1    4    4    0    0 -0.39090609718E+02  0.13469084092E+02 -0.24498121751E+03  0.24844574645E+03  0.00000000000E+00 0.  1.
         12    1    4    4    0    0  0.20194526755E+02  0.32118618459E+02 -0.82629237059E+02  0.90923128958E+02  0.00000000000E+00 0. -1.
         -5    1    5    5    0  502  0.37642438325E+00 -0.80539308646E+01  0.76930154291E+02  0.77494168406E+02  0.47000000000E+01 0.  1.
         13    1    6    6    0    0  0.20493510763E+02 -0.29631986199E+02  0.12111436877E+02  0.38009544758E+02  0.00000000000E+00 0. -1.
        -14    1    6    6    0    0  0.41034635381E+02  0.26042814105E+02 -0.52236129321E+02  0.71349020132E+02  0.00000000000E+00 0.  1.
</event>
<event>
12    1  0.1598254E-001  0.1952144E+03  0.7818608E-02  0.1154764E+00
         21   -1    0    0  503  502  0.00000000000E+00  0.00000000000E+00  0.16163440205E+03  0.16163440205E+03  0.00000000000E+00 0. -1.
         21   -1    0    0  501  503 -0.00000000000E+00 -0.00000000000E+00 -0.24902925566E+03  0.24902925566E+03  0.00000000000E+00 0. -1.
          6    2    1    2  501    0 -0.39326333979E+02 -0.65737017328E+02 -0.99790592896E+02  0.21924151765E+03  0.17955713475E+03 0.  0.
         24    2    3    3    0    0  0.26444550846E+01 -0.77229137983E+02 -0.28061235339E+00  0.11053115844E+03  0.79029901595E+02 0.  0.
         -6    2    1    2    0  502  0.39326333979E+02  0.65737017328E+02  0.12395739284E+02  0.19142214007E+03  0.17498818636E+03 0.  0.
        -24    2    5    5    0    0  0.32280216046E+01  0.96751500768E+02  0.48526494204E+02  0.13148460767E+03  0.74579544037E+02 0.  0.
          5    1    3    3  501    0 -0.41970789063E+02  0.11492120656E+02 -0.99509980542E+02  0.10871035921E+03  0.47000000000E+01 0. -1.
        -13    1    4    4    0    0  0.30874616001E+02 -0.34145909179E+02  0.25826499414E+02  0.52784402041E+02  0.00000000000E+00 0.  1.
         14    1    4    4    0    0 -0.28230160917E+02 -0.43083228804E+02 -0.26107111767E+02  0.57746756397E+02  0.00000000000E+00 0. -1.
         -5    1    5    5    0  502  0.36098312374E+02 -0.31014483441E+02 -0.36130754920E+02  0.59937532402E+02  0.47000000000E+01 0.  1.
         11    1    6    6    0    0  0.13752736737E+02  0.39268331096E+02 -0.15864565276E+02  0.44528912250E+02  0.00000000000E+00 0. -1.
        -12    1    6    6    0    0 -0.10524715133E+02  0.57483169673E+02  0.64391059479E+02  0.86955695415E+02  0.00000000000E+00 0.  1.
</event>
<event>
12    1  0.1598254E-001  0.1760311E+03  0.7818608E-02  0.1172310E+00
         21   -1    0    0  503  502  0.00000000000E+00  0.00000000000E+00  0.42000311291E+03  0.42000311291E+03  0.00000000000E+00 0.  1.
         21   -1    0    0  501  503 -0.00000000000E+00 -0.00000000000E+00 -0.12705095925E+03  0.12705095925E+03  0.00000000000E+00 0.  1.
          6    2    1    2  501    0 -0.12515578022E+02 -0.27712993527E+02 -0.31735870496E+02  0.17886901728E+03  0.17338486140E+03 0.  0.
         24    2    3    3    0    0  0.33680075045E+02  0.39280345052E+02 -0.14526483959E+02  0.95559961578E+02  0.79015153977E+02 0.  0.
         -6    2    1    2    0  502  0.12515578022E+02  0.27712993527E+02  0.32468802415E+03  0.36818505488E+03  0.17091890449E+03 0.  0.
        -24    2    5    5    0    0 -0.40854279809E+02 -0.91207202966E+01  0.92322175289E+02  0.12689468642E+03  0.76332284609E+02 0.  0.
          5    1    3    3  501    0 -0.46195653066E+02 -0.66993338580E+02 -0.17209386537E+02  0.83309055698E+02  0.47000000000E+01 0. -1.
        -13    1    4    4    0    0 -0.20612251227E+02  0.98101858484E+01 -0.23931708935E+02  0.33073121104E+02  0.00000000000E+00 0.  1.
         14    1    4    4    0    0  0.54292326272E+02  0.29470159204E+02  0.94052249757E+01  0.62486840473E+02  0.00000000000E+00 0. -1.
         -5    1    5    5    0  502  0.53369857831E+02  0.36833713824E+02  0.23236584886E+03  0.24129036847E+03  0.47000000000E+01 0.  1.
         13    1    6    6    0    0 -0.12478999532E+02  0.27640859370E+02  0.92208649925E+01  0.31698058099E+02  0.00000000000E+00 0. -1.
        -14    1    6    6    0    0 -0.28375280278E+02 -0.36761579667E+02  0.83101310296E+02  0.95196628319E+02  0.00000000000E+00 0.  1.
</event>
<event>
12    1  0.1598254E-001  0.1749635E+03  0.7818608E-02  0.1174070E+00
         21   -1    0    0  501  502  0.00000000000E+00  0.00000000000E+00  0.54593905914E+02  0.54593905914E+02  0.00000000000E+00 0.  1.
         21   -1    0    0  502  503 -0.00000000000E+00 -0.00000000000E+00 -0.63844319359E+03  0.63844319359E+03  0.00000000000E+00 0.  1.
         -6    2    1    2    0  503 -0.88041202044E+01 -0.32489878970E+02 -0.42115329821E+03  0.45411828759E+03  0.16649388508E+03 0.  0.
        -24    2    3    3    0    0 -0.14542290745E+02  0.19240710654E+02 -0.10693273480E+03  0.13558158174E+03  0.79787670541E+02 0.  0.
          6    2    1    2  501    0  0.88041202044E+01  0.32489878970E+02 -0.16269598947E+03  0.23891881191E+03  0.17169481334E+03 0.  0.
         24    2    5    5    0    0 -0.15147731588E+02  0.26337409837E+02 -0.18432130916E+03  0.20573314433E+03  0.86189725227E+02 0.  0.
          5    1    5    5  501    0  0.23951851792E+02  0.61524691334E+01  0.21625319695E+02  0.33185667579E+02  0.47000000000E+01 0. -1.
        -13    1    6    6    0    0 -0.12774202757E+02  0.57181097919E+02 -0.99788170822E+02  0.11571748896E+03  0.00000000000E+00 0.  1.
         14    1    6    6    0    0 -0.23735288314E+01 -0.30843688083E+02 -0.84533138339E+02  0.90015655367E+02  0.00000000000E+00 0. -1.
         -5    1    3    3    0  503  0.57381705405E+01 -0.51730589625E+02 -0.31422056341E+03  0.31853670585E+03  0.47000000000E+01 0.  1.
         13    1    4    4    0    0 -0.12102727427E+02  0.46982986046E+02 -0.91932788976E+02  0.10394957757E+03  0.00000000000E+00 0. -1.
        -14    1    4    4    0    0 -0.24395633181E+01 -0.27742275392E+02 -0.14999945820E+02  0.31632004168E+02  0.00000000000E+00 0.  1.
</event>
<event>
12    1  0.1598254E-001  0.1894900E+03  0.7818608E-02  0.1159186E+00
         21   -1    0    0  503  502  0.00000000000E+00  0.00000000000E+00  0.30111598338E+02  0.30111598338E+02  0.00000000000E+00 0. -1.
         21   -1    0    0  501  503 -0.00000000000E+00 -0.00000000000E+00 -0.24725647471E+04  0.24725647471E+04  0.00000000000E+00 0. -1.
          6    2    1    2  501    0 -0.20968598577E+02  0.73989020439E+02 -0.21259701507E+04  0.21343981691E+04  0.17318315523E+03 0.  0.
         24    2    3    3    0    0 -0.31516967088E+02 -0.28137409856E+02 -0.87821384097E+03  0.88241615072E+03  0.74924492184E+02 0.  0.
         -6    2    1    2    0  502  0.20968598577E+02 -0.73989020439E+02 -0.31648299805E+03  0.36827817634E+03  0.17191064494E+03 0.  0.
        -24    2    5    5    0    0 -0.31158806067E+02 -0.57880883796E+02 -0.28838050154E+03  0.30672674508E+03  0.81221392317E+02 0.  0.
          5    1    3    3  501    0  0.10548368512E+02  0.10212643030E+03 -0.12477563097E+04  0.12519820183E+04  0.47000000000E+01 0. -1.
        -13    1    4    4    0    0 -0.27450261406E+02 -0.15834382750E+02 -0.85680849126E+03  0.85739432890E+03  0.00000000000E+00 0.  1.
         14    1    4    4    0    0 -0.40667056825E+01 -0.12303027106E+02 -0.21405349710E+02  0.25021821822E+02  0.00000000000E+00 0. -1.
         -5    1    5    5    0  502  0.52127404644E+02 -0.16108136643E+02 -0.28102496508E+02  0.61551431267E+02  0.47000000000E+01 0.  1.
         13    1    6    6    0    0 -0.34710561132E+01 -0.72688995995E+02 -0.19012307639E+03  0.20357436613E+03  0.00000000000E+00 0. -1.
        -14    1    6    6    0    0 -0.27687749954E+02  0.14808112199E+02 -0.98257425154E+02  0.10315237895E+03  0.00000000000E+00 0.  1.
</event>
<event>
12    1  0.1598254E-001  0.1910507E+03  0.7818608E-02  0.1157735E+00
         21   -1    0    0  501  502  0.00000000000E+00  0.00000000000E+00  0.18904775233E+03  0.18904775233E+03  0.00000000000E+00 0. -1.
         21   -1    0    0  502  503 -0.00000000000E+00 -0.00000000000E+00 -0.23571933763E+03  0.23571933763E+03  0.00000000000E+00 0. -1.
         -6    2    1    2    0  503 -0.81800217422E+02  0.74817237090E+00  0.68079834021E+02  0.20190333786E+03  0.17157581038E+03 0.  0.
        -24    2    3    3    0    0 -0.41655207940E+02 -0.63757655033E+02  0.18879921893E+02  0.11126479800E+03  0.78887317729E+02 0.  0.
          6    2    1    2  501    0  0.81800217422E+02 -0.74817237090E+00 -0.11475141932E+03  0.22286375210E+03  0.17265146520E+03 0.  0.
         24    2    5    5    0    0 -0.16946616012E+02 -0.12307040079E+02 -0.60038055889E+01  0.75443678749E+02  0.72229162752E+02 0.  0.
          5    1    5    5  501    0  0.98746833434E+02  0.11558867708E+02 -0.10874761373E+03  0.14742007336E+03  0.47000000000E+01 0. -1.
        -11    1    6    6    0    0 -0.12986684768E+02  0.28023062250E+02 -0.14369631179E+02  0.34065118514E+02  0.00000000000E+00 0.  1.
         12    1    6    6    0    0 -0.39599312439E+01 -0.40330102329E+02  0.83658255902E+01  0.41378560235E+02  0.00000000000E+00 0. -1.
         -5    1    3    3    0  503 -0.40145009483E+02  0.64505827404E+02  0.49199912128E+02  0.90638539865E+02  0.47000000000E+01 0.  1.
         11    1    4    4    0    0 -0.41609795446E+02  0.13984572424E+01  0.19800970159E+02  0.46102160242E+02  0.00000000000E+00 0. -1.
        -12    1    4    4    0    0 -0.45412493219E-01 -0.65156112275E+02 -0.92104826561E+00  0.65162637754E+02  0.00000000000E+00 0.  1.
</event>
<event>
12    1  0.1598254E-001  0.1762716E+03  0.7818608E-02  0.1171476E+00
         21   -1    0    0  503  502  0.00000000000E+00  0.00000000000E+00  0.27626790574E+04  0.27626790574E+04  0.00000000000E+00 0.  1.
         21   -1    0    0  501  503 -0.00000000000E+00 -0.00000000000E+00 -0.64604611036E+02  0.64604611036E+02  0.00000000000E+00 0.  1.
          6    2    1    2  501    0  0.33651152375E+02 -0.17392372465E+02  0.64318169786E+02  0.18763931161E+03  0.17215338980E+03 0.  0.
         24    2    3    3    0    0 -0.30909769674E+02  0.11576174407E+01  0.82293406471E+02  0.11794416174E+03  0.78624847223E+02 0.  0.
         -6    2    1    2    0  502 -0.33651152375E+02  0.17392372465E+02  0.26337562766E+04  0.26396443568E+04  0.17209099753E+03 0.  0.
        -24    2    5    5    0    0 -0.80095616449E+01 -0.18630844397E+02  0.24132894674E+04  0.24147380046E+04  0.81131472852E+02 0.  0.
          5    1    3    3  501    0  0.64560922050E+02 -0.18549989906E+02 -0.17975236686E+02  0.69695149869E+02  0.47000000000E+01 0. -1.
        -13    1    4    4    0    0  0.20510745129E+02 -0.85700666340E+01  0.54125510777E+02  0.58512457005E+02  0.00000000000E+00 0.  1.
         14    1    4    4    0    0 -0.51420514803E+02  0.97276840747E+01  0.28167895694E+02  0.59431704737E+02  0.00000000000E+00 0. -1.
         -5    1    5    5    0  502 -0.25641590730E+02  0.36023216862E+02  0.22046680915E+03  0.22490635221E+03  0.47000000000E+01 0.  1.
         13    1    6    6    0    0  0.50574678608E+01  0.31057468691E+02  0.10821612010E+04  0.10826185890E+04  0.00000000000E+00 0. -1.
        -14    1    6    6    0    0 -0.13067029506E+02 -0.49688313088E+02  0.13311282664E+04  0.13321194156E+04  0.00000000000E+00 0.  1.
</event>
<event>
12    1  0.1598254E-001  0.2328752E+03  0.7818608E-02  0.1124677E+00
         21   -1    0    0  501  502  0.00000000000E+00  0.00000000000E+00  0.31929870448E+03  0.31929870448E+03  0.00000000000E+00 0. -1.
         21   -1    0    0  502  503 -0.00000000000E+00 -0.00000000000E+00 -0.18295692870E+03  0.18295692870E+03  0.00000000000E+00 0.  1.
         -6    2    1    2    0  503  0.30588419336E+02  0.15381057640E+03  0.13591772134E+03  0.26963766088E+03  0.17215544250E+03 0.  0.
        -24    2    3    3    0    0 -0.48145045716E+02  0.12462773766E+03  0.94935825313E+02  0.17608445464E+03  0.64365408548E+02 0.  0.
          6    2    1    2  501    0 -0.30588419336E+02 -0.15381057640E+03  0.42405444247E+00  0.23261797230E+03  0.17180685785E+03 0.  0.
         24    2    5    5    0    0  0.12412838686E+02 -0.16440248664E+03 -0.19462127458E+02  0.18384454731E+03  0.78979661891E+02 0.  0.
          5    1    5    5  501    0 -0.43001258022E+02  0.10591910246E+02  0.19886181900E+02  0.48773424984E+02  0.47000000000E+01 0. -1.
        -13    1    6    6    0    0  0.26181359757E+01 -0.12004131453E+03 -0.48970984641E+02  0.12967239169E+03  0.00000000000E+00 0.  1.
         14    1    6    6    0    0  0.97947027106E+01 -0.44361172116E+02  0.29508857183E+02  0.54172155624E+02  0.00000000000E+00 0. -1.
         -5    1    3    3    0  503  0.78733465052E+02  0.29182838738E+02  0.40981896023E+02  0.93553206239E+02  0.47000000000E+01 0.  1.
         11    1    4    4    0    0  0.88901876985E+01  0.31833614353E+02  0.46081180297E+02  0.56708814286E+02  0.00000000000E+00 0. -1.
        -12    1    4    4    0    0 -0.57035233415E+02  0.92794123307E+02  0.48854645015E+02  0.11937564036E+03  0.00000000000E+00 0.  1.
</event>
<event>
12    1  0.1598254E-001  0.2207743E+03  0.7818608E-02  0.1133537E+00
         21   -1    0    0  501  502  0.00000000000E+00  0.00000000000E+00  0.62364840512E+03  0.62364840512E+03  0.00000000000E+00 0.  1.
         21   -1    0    0  502  503 -0.00000000000E+00 -0.00000000000E+00 -0.77900572211E+02  0.77900572211E+02  0.00000000000E+00 0. -1.
         -6    2    1    2    0  503  0.40462491649E+02  0.13143098349E+03  0.28910565166E+03  0.36301318798E+03  0.17112913305E+03 0.  0.
        -24    2    3    3    0    0  0.21441103320E+02  0.12645415298E+03  0.12010280737E+03  0.19280556937E+03  0.79365795678E+02 0.  0.
          6    2    1    2  501    0 -0.40462491649E+02 -0.13143098349E+03  0.25664218126E+03  0.33853578936E+03  0.17271350504E+03 0.  0.
         24    2    5    5    0    0 -0.63815084864E+02 -0.98010463405E+02  0.26131811096E+03  0.29722926335E+03  0.79872798120E+02 0.  0.
          5    1    5    5  501    0  0.23352593215E+02 -0.33420520080E+02 -0.46759297056E+01  0.41306526008E+02  0.47000000000E+01 0. -1.
        -13    1    6    6    0    0 -0.31468296415E+02 -0.86532090912E+02  0.11700137892E+03  0.14888713546E+03  0.00000000000E+00 0.  1.
         14    1    6    6    0    0 -0.32346788449E+02 -0.11478372493E+02  0.14431673204E+03  0.14834212788E+03  0.00000000000E+00 0. -1.
         -5    1    3    3    0  503  0.19021388329E+02  0.49768305027E+01  0.16900284429E+03  0.17020761861E+03  0.47000000000E+01 0.  1.
         11    1    4    4    0    0 -0.25529319193E+02  0.60785534407E+02  0.31936383732E+02  0.73256808131E+02  0.00000000000E+00 0. -1.
        -12    1    4    4    0    0  0.46970422513E+02  0.65668618575E+02  0.88166423635E+02  0.11954876124E+03  0.00000000000E+00 0.  1.
</event>
<event>
12    1  0.1598254E-001  0.2311492E+03  0.7818608E-02  0.1126500E+00
         21   -1    0    0  501  502  0.00000000000E+00  0.00000000000E+00  0.73619156398E+02  0.73619156398E+02  0.00000000000E+00 0.  1.
         21   -1    0    0  502  503 -0.00000000000E+00 -0.00000000000E+00 -0.72759727330E+03  0.72759727330E+03  0.00000000000E+00 0.  1.
         -6    2    1    2    0  503  0.62072324653E+02  0.13641763023E+03 -0.37922535330E+03  0.44216349230E+03  0.17097936136E+03 0.  0.
        -24    2    3    3    0    0 -0.22494582624E+02  0.35012950765E+02 -0.10541602326E+03  0.13814357512E+03  0.78988584107E+02 0.  0.
          6    2    1    2  501    0 -0.62072324653E+02 -0.13641763023E+03 -0.27475276361E+03  0.35905293740E+03  0.17597496249E+03 0.  0.
         24    2    5    5    0    0  0.24570295930E+01 -0.94372419059E+02 -0.72152776042E+02  0.14225652991E+03  0.78222162697E+02 0.  0.
          5    1    5    5  501    0 -0.64529354246E+02 -0.42045211169E+02 -0.20259998756E+03  0.21679640749E+03  0.47000000000E+01 0. -1.
        -11    1    6    6    0    0  0.34850947407E+02 -0.74208860169E+02 -0.35477475924E+02  0.89331935839E+02  0.00000000000E+00 0.  1.
         12    1    6    6    0    0 -0.32393917814E+02 -0.20163558889E+02 -0.36675300117E+02  0.52924594067E+02  0.00000000000E+00 0. -1.
         -5    1    3    3    0  503  0.84566907277E+02  0.10140467946E+03 -0.27380933004E+03  0.30401991717E+03  0.47000000000E+01 0.  1.
         13    1    4    4    0    0 -0.25953841598E+02  0.34772014696E+02 -0.12488665168E+02  0.45151541030E+02  0.00000000000E+00 0. -1.
        -14    1    4    4    0    0  0.34592589738E+01  0.24093606931E+00 -0.92927358093E+02  0.92992034094E+02  0.00000000000E+00 0.  1.
</event>
<event>
12    1  0.1598254E-001  0.1993145E+03  0.7818608E-02  0.1150413E+00
         21   -1    0    0  503  502  0.00000000000E+00  0.00000000000E+00  0.82766201705E+02  0.82766201705E+02  0.00000000000E+00 0. -1.
         21   -1    0    0  501  503 -0.00000000000E+00 -0.00000000000E+00 -0.47916348925E+03  0.47916348925E+03  0.00000000000E+00 0. -1.
          6    2    1    2  501    0 -0.10052612884E+03 -0.15177192781E+02 -0.20438930296E+03  0.28517468041E+03  0.17092033649E+03 0.  0.
         24    2    3    3    0    0 -0.72585583037E+02 -0.73346906000E+02 -0.12116603682E+03  0.17975840244E+03  0.83566974845E+02 0.  0.
         -6    2    1    2    0  502  0.10052612884E+03  0.15177192781E+02 -0.19200798459E+03  0.27675501055E+03  0.17143634374E+03 0.  0.
        -24    2    5    5    0    0  0.98823494037E+02  0.35567605892E+02 -0.21154045823E+03  0.24807966506E+03  0.75914538703E+02 0.  0.
          5    1    3    3  501    0 -0.27940545802E+02  0.58169713219E+02 -0.83223266131E+02  0.10541627797E+03  0.47000000000E+01 0. -1.
        -11    1    4    4    0    0  0.15928224027E+02  0.21533723631E+01 -0.19372128325E+02  0.25171902770E+02  0.00000000000E+00 0.  1.
         12    1    4    4    0    0 -0.88513807064E+02 -0.75500278363E+02 -0.10179390850E+03  0.15458649967E+03  0.00000000000E+00 0. -1.
         -5    1    5    5    0  502  0.17026348012E+01 -0.20390413111E+02  0.19532473638E+02  0.28675345482E+02  0.47000000000E+01 0.  1.
         13    1    6    6    0    0  0.93295066005E+02  0.19202646545E+02 -0.11188674465E+03  0.14693996939E+03  0.00000000000E+00 0. -1.
        -14    1    6    6    0    0  0.55284280327E+01  0.16364959347E+02 -0.99653713579E+02  0.10113969567E+03  0.00000000000E+00 0.  1.
</event>
<event>
12    1  0.1598254E-001  0.1914710E+03  0.7818608E-02  0.1157920E+00
         21   -1    0    0  501  502  0.00000000000E+00  0.00000000000E+00  0.23634290551E+04  0.23634290551E+04  0.00000000000E+00 0.  1.
         21   -1    0    0  502  503 -0.00000000000E+00 -0.00000000000E+00 -0.31536081183E+03  0.31536081183E+03  0.00000000000E+00 0.  1.
         -6    2    1    2    0  503  0.15202013084E+02 -0.81424561343E+02 -0.28215830472E+03  0.34099038456E+03  0.17262697659E+03 0.  0.
        -24    2    3    3    0    0  0.10310229681E+02 -0.10709608750E+03 -0.13073368575E+03  0.18725534616E+03  0.79983718865E+02 0.  0.
          6    2    1    2  501    0 -0.15202013084E+02  0.81424561343E+02  0.23302265480E+04  0.23377994824E+04  0.16878860868E+03 0.  0.
         24    2    5    5    0    0 -0.51729283798E+02  0.39226957300E+02  0.20210705818E+04  0.20236110346E+04  0.77850174594E+02 0.  0.
          5    1    5    5  501    0  0.36527270714E+02  0.42197604043E+02  0.30915596622E+03  0.31418844782E+03  0.47000000000E+01 0. -1.
        -13    1    6    6    0    0 -0.39984728231E+02 -0.16985163298E+02  0.97109243871E+03  0.97206368042E+03  0.00000000000E+00 0.  1.
         14    1    6    6    0    0 -0.11744555568E+02  0.56212120598E+02  0.10499781431E+04  0.10515473542E+04  0.00000000000E+00 0. -1.
         -5    1    3    3    0  503  0.48917834033E+01  0.25671526154E+02 -0.15142461897E+03  0.15373503840E+03  0.47000000000E+01 0.  1.
         11    1    4    4    0    0  0.35451275670E+02 -0.65914934740E+02 -0.11363160361E+03  0.13606510540E+03  0.00000000000E+00 0. -1.
        -12    1    4    4    0    0 -0.25141045989E+02 -0.41181152756E+02 -0.17102082138E+02  0.51190240761E+02  0.00000000000E+00 0.  1.
</event>
<event>
12    1  0.1598254E-001  0.1753958E+03  0.7818608E-02  0.1172448E+00
         21   -1    0    0  501  502  0.00000000000E+00  0.00000000000E+00  0.16710438195E+03  0.16710438195E+03  0.00000000000E+00 0.  1.
         21   -1    0    0  502  503 -0.00000000000E+00 -0.00000000000E+00 -0.28153678307E+03  0.28153678307E+03  0.00000000000E+00 0. -1.
         -6    2    1    2    0  503 -0.30416662098E+02 -0.15690027464E+02 -0.18945637722E+03  0.25787350507E+03  0.17156245351E+03 0.  0.
        -24    2    3    3    0    0 -0.52954625840E+01  0.56467556598E+02 -0.96340094049E+02  0.13733088276E+03  0.79760458661E+02 0.  0.
          6    2    1    2  501    0  0.30416662098E+02  0.15690027464E+02  0.75023976102E+02  0.19076765995E+03  0.17202427968E+03 0.  0.
         24    2    5    5    0    0  0.55568315934E+02  0.54624759866E+02  0.11612903650E+02  0.11208110972E+03  0.79722101694E+02 0.  0.
          5    1    5    5  501    0 -0.25151653836E+02 -0.38934732402E+02  0.63411072451E+02  0.78686550232E+02  0.47000000000E+01 0. -1.
        -13    1    6    6    0    0  0.18565351271E+02  0.30849342465E+02  0.44442498450E+02  0.57196939313E+02  0.00000000000E+00 0.  1.
         14    1    6    6    0    0  0.37002964662E+02  0.23775417401E+02 -0.32829594800E+02  0.54884170406E+02  0.00000000000E+00 0. -1.
         -5    1    3    3    0  503 -0.25121199514E+02 -0.72157584062E+02 -0.93116283170E+02  0.12054262231E+03  0.47000000000E+01 0.  1.
         11    1    4    4    0    0  0.22539171402E+02 -0.19464211660E+01 -0.57672372478E+02  0.61950830100E+02  0.00000000000E+00 0. -1.
        -12    1    4    4    0    0 -0.27834633986E+02  0.58413977764E+02 -0.38667721571E+02  0.75380052659E+02  0.00000000000E+00 0.  1.
</event>
<event>
12    1  0.1598254E-001  0.1806595E+03  0.7818608E-02  0.1167398E+00
         21   -1    0    0  501  502  0.00000000000E+00  0.00000000000E+00  0.12713930370E+04  0.12713930370E+04  0.00000000000E+00 0.  1.
         21   -1    0    0  502  503 -0.00000000000E+00 -0.00000000000E+00 -0.30081611039E+02  0.30081611039E+02  0.00000000000E+00 0. -1.
         -6    2    1    2    0  503  0.20234239384E+02  0.50844362786E+02  0.36626498056E+03  0.40797360142E+03  0.17116614676E+03 0.  0.
        -24    2    3    3    0    0  0.77382709958E+01  0.83449370055E+02  0.15469563153E+03  0.19349069960E+03  0.80524742875E+02 0.  0.
          6    2    1    2  501    0 -0.20234239384E+02 -0.50844362786E+02  0.87504644543E+03  0.89350104665E+03  0.17217219588E+03 0.  0.
         24    2    5    5    0    0  0.19595802529E+02  0.15899716099E+02  0.66153649121E+03  0.66623513443E+03  0.74846033309E+02 0.  0.
          5    1    5    5  501    0 -0.39830041913E+02 -0.66744078885E+02  0.21350995422E+03  0.22726591222E+03  0.47000000000E+01 0. -1.
        -11    1    6    6    0    0 -0.13173610303E+01 -0.20640361067E+02  0.45402199434E+03  0.45449282865E+03  0.00000000000E+00 0.  1.
         12    1    6    6    0    0  0.20913163559E+02  0.36540077167E+02  0.20751449687E+03  0.21174230579E+03  0.00000000000E+00 0. -1.
         -5    1    3    3    0  503  0.12495968388E+02 -0.32605007269E+02  0.21156934903E+03  0.21448290182E+03  0.47000000000E+01 0.  1.
         11    1    4    4    0    0  0.27621180869E+02  0.37390908742E+02  0.12901153981E+03  0.13713127686E+03  0.00000000000E+00 0. -1.
        -12    1    4    4    0    0 -0.19882909873E+02  0.46058461314E+02  0.25684091720E+02  0.56359422736E+02  0.00000000000E+00 0.  1.
</event>
<event>
12    1  0.1598254E-001  0.2303637E+03  0.7818608E-02  0.1126394E+00
         21   -1    0    0  501  502  0.00000000000E+00  0.00000000000E+00  0.18024438880E+04  0.18024438880E+04  0.00000000000E+00 0. -1.
         21   -1    0    0  502  503 -0.00000000000E+00 -0.00000000000E+00 -0.34148983335E+02  0.34148983335E+02  0.00000000000E+00 0.  1.
         -6    2    1    2    0  503  0.37250289150E+02  0.14860494168E+03  0.54287238982E+03  0.58970563884E+03  0.17196306614E+03 0.  0.
        -24    2    3    3    0    0  0.75115050989E+02  0.43130218695E+02  0.28312165856E+03  0.30677244925E+03  0.80305513054E+02 0.  0.
          6    2    1    2  501    0 -0.37250289150E+02 -0.14860494168E+03  0.12254225148E+04  0.12468872325E+04  0.17203609488E+03 0.  0.
         24    2    5    5    0    0  0.18827079150E+02 -0.92184500401E+02  0.10041468833E+04  0.10117002164E+04  0.79836856002E+02 0.  0.
          5    1    5    5  501    0 -0.56077368300E+02 -0.56420441275E+02  0.22127563152E+03  0.23518701608E+03  0.47000000000E+01 0. -1.
        -13    1    6    6    0    0  0.37202612572E+02 -0.18368986515E+02  0.51560913108E+03  0.51727577761E+03  0.00000000000E+00 0.  1.
         14    1    6    6    0    0 -0.18375533421E+02 -0.73815513886E+02  0.48853775225E+03  0.49442443881E+03  0.00000000000E+00 0. -1.
         -5    1    3    3    0  503 -0.37864761839E+02  0.10547472298E+03  0.25975073126E+03  0.28293318959E+03  0.47000000000E+01 0.  1.
         11    1    4    4    0    0 -0.17828530120E+01 -0.11375188928E+02  0.10148594582E+03  0.10213701918E+03  0.00000000000E+00 0. -1.
        -12    1    4    4    0    0  0.76897904001E+02  0.54505407623E+02  0.18163571274E+03  0.20463543008E+03  0.00000000000E+00 0.  1.
</event>
<event>
12    1  0.1598254E-001  0.3555396E+03  0.7818608E-02  0.1060370E+00
         21   -1    0    0  503  502  0.00000000000E+00  0.00000000000E+00  0.15411530806E+03  0.15411530806E+03  0.00000000000E+00 0. -1.
         21   -1    0    0  501  503 -0.00000000000E+00 -0.00000000000E+00 -0.11500517204E+04  0.11500517204E+04  0.00000000000E+00 0.  1.
          6    2    1    2  501    0 -0.28738216868E+03 -0.12004680441E+03 -0.84722589163E+03  0.91877994782E+03  0.17136258327E+03 0.  0.
         24    2    3    3    0    0 -0.18847748709E+03 -0.11852239362E+03 -0.43625170977E+03  0.49604323541E+03  0.78562180367E+02 0.  0.
         -6    2    1    2    0  502  0.28738216868E+03  0.12004680441E+03 -0.14871052068E+03  0.38538708061E+03  0.17148946561E+03 0.  0.
        -24    2    5    5    0    0  0.18964889485E+03  0.75989134467E+02 -0.19093852514E+02  0.21711515259E+03  0.70946193724E+02 0.  0.
          5    1    3    3  501    0 -0.98904681588E+02 -0.15244107903E+01 -0.41097418186E+03  0.42273671242E+03  0.47000000000E+01 0. -1.
        -13    1    4    4    0    0 -0.17624622325E+03 -0.76155319576E+02 -0.35627240920E+03  0.40471272956E+03  0.00000000000E+00 0.  1.
         14    1    4    4    0    0 -0.12231263840E+02 -0.42367074048E+02 -0.79979300566E+02  0.91330505843E+02  0.00000000000E+00 0. -1.
         -5    1    5    5    0  502  0.97733273829E+02  0.44057669947E+02 -0.12961666817E+03  0.16827192802E+03  0.47000000000E+01 0.  1.
         13    1    6    6    0    0  0.18114481177E+03  0.75490088036E+02 -0.34743645925E+02  0.19929705757E+03  0.00000000000E+00 0. -1.
        -14    1    6    6    0    0  0.85040830850E+01  0.49904643127E+00  0.15649793411E+02  0.17818095024E+02  0.00000000000E+00 0.  1.
</event>
<event>
12    1  0.1598254E-001  0.2771402E+03  0.7818608E-02  0.1098756E+00
         21   -1    0    0  503  502  0.00000000000E+00  0.00000000000E+00  0.49034079476E+03  0.49034079476E+03  0.00000000000E+00 0. -1.
         21   -1    0    0  501  503 -0.00000000000E+00 -0.00000000000E+00 -0.20927764274E+03  0.20927764274E+03  0.00000000000E+00 0.  1.
          6    2    1    2  501    0  0.19923062867E+03 -0.43271718987E+02 -0.42518358843E+02  0.28038281883E+03  0.18772700710E+03 0.  0.
         24    2    3    3    0    0  0.20133293243E+03 -0.42532547705E+02 -0.85008947508E+02  0.23757503706E+03  0.82893967112E+02 0.  0.
         -6    2    1    2    0  502 -0.19923062867E+03  0.43271718987E+02  0.32358151087E+03  0.41923561866E+03  0.17172135779E+03 0.  0.
        -24    2    5    5    0    0 -0.59271975958E+02  0.72055424587E+02  0.19151134788E+03  0.22460380183E+03  0.71169657018E+02 0.  0.
          5    1    3    3  501    0 -0.21023037606E+01 -0.73917128213E+00  0.42490588665E+02  0.42807781773E+02  0.47000000000E+01 0. -1.
        -13    1    4    4    0    0  0.13200184568E+03 -0.38975096990E+02 -0.14125478885E+02  0.13835850028E+03  0.00000000000E+00 0.  1.
         14    1    4    4    0    0  0.69331086751E+02 -0.35574507150E+01 -0.70883468623E+02  0.99216536775E+02  0.00000000000E+00 0. -1.
         -5    1    5    5    0  502 -0.13995865271E+03 -0.28783705600E+02  0.13207016298E+03  0.19463181684E+03  0.47000000000E+01 0.  1.
         13    1    6    6    0    0 -0.22568946306E+02 -0.62092109222E+01  0.14291911943E+02  0.27425724870E+02  0.00000000000E+00 0. -1.
        -14    1    6    6    0    0 -0.36703029652E+02  0.78264635509E+02  0.17721943594E+03  0.19717807696E+03  0.00000000000E+00 0.  1.
</event>
<event>
12    1  0.1598254E-001  0.1795852E+03  0.7818608E-02  0.1168373E+00
         21   -1    0    0  501  502  0.00000000000E+00  0.00000000000E+00  0.69674284510E+03  0.69674284510E+03  0.00000000000E+00 0.  1.
         21   -1    0    0  502  503 -0.00000000000E+00 -0.00000000000E+00 -0.77182306706E+02  0.77182306706E+02  0.00000000000E+00 0.  1.
         -6    2    1    2    0  503  0.16718278445E+02  0.47981683496E+02  0.63901224726E+02  0.18996614938E+03  0.17152850667E+03 0.  0.
        -24    2    3    3    0    0 -0.31788335202E+02  0.41834275882E+02 -0.21516538440E+02  0.91432061608E+02  0.71667674512E+02 0.  0.
          6    2    1    2  501    0 -0.16718278445E+02 -0.47981683496E+02  0.55565931367E+03  0.58395900243E+03  0.17224720859E+03 0.  0.
         24    2    5    5    0    0 -0.50900896620E+02 -0.66915966259E+02  0.51284576405E+03  0.52580362022E+03  0.79937610130E+02 0.  0.
          5    1    5    5  501    0  0.34182618175E+02  0.18934282763E+02  0.42813549612E+02  0.58155382205E+02  0.47000000000E+01 0. -1.
        -13    1    6    6    0    0 -0.21625033703E+02 -0.80203607790E+02  0.39577857407E+03  0.40440195410E+03  0.00000000000E+00 0.  1.
         14    1    6    6    0    0 -0.29275862917E+02  0.13287641531E+02  0.11706718999E+03  0.12140166613E+03  0.00000000000E+00 0. -1.
         -5    1    3    3    0  503  0.48506613647E+02  0.61474076140E+01  0.85417763166E+02  0.98534087767E+02  0.47000000000E+01 0.  1.
         13    1    4    4    0    0 -0.38927933730E+02  0.53425328852E+02 -0.15749030342E+00  0.66103514208E+02  0.00000000000E+00 0. -1.
        -14    1    4    4    0    0  0.71395985273E+01 -0.11591052971E+02 -0.21359048136E+02  0.25328547400E+02  0.00000000000E+00 0.  1.
</event>
<event>
12    1  0.1598254E-001  0.1976264E+03  0.7818608E-02  0.1151787E+00
         21   -1    0    0  501  502  0.00000000000E+00  0.00000000000E+00  0.27489378990E+03  0.27489378990E+03  0.00000000000E+00 0.  1.
         21   -1    0    0  502  503 -0.00000000000E+00 -0.00000000000E+00 -0.28607549106E+03  0.28607549106E+03  0.00000000000E+00 0. -1.
         -6    2    1    2    0  503 -0.39228264682E+02  0.91125856233E+02  0.19347732950E+03  0.27646706796E+03  0.17075650563E+03 0.  0.
        -24    2    3    3    0    0 -0.19932773756E+02 -0.63068408155E+01  0.94178145242E+02  0.13593997300E+03  0.95776100922E+02 0.  0.
          6    2    1    2  501    0  0.39228264682E+02 -0.91125856233E+02 -0.20465903066E+03  0.28450221299E+03  0.17091931413E+03 0.  0.
         24    2    5    5    0    0 -0.27748403165E+02 -0.15451894571E+02 -0.14467665300E+03  0.16689099695E+03  0.76893016684E+02 0.  0.
          5    1    5    5  501    0  0.66976667846E+02 -0.75673961662E+02 -0.59982377663E+02  0.11761121604E+03  0.47000000000E+01 0. -1.
        -13    1    6    6    0    0  0.29205253026E+01  0.26638265952E+02 -0.26218610146E+02  0.37490561465E+02  0.00000000000E+00 0.  1.
         14    1    6    6    0    0 -0.30668928467E+02 -0.42090160523E+02 -0.11845804285E+03  0.12940043548E+03  0.00000000000E+00 0. -1.
         -5    1    3    3    0  503 -0.19295490925E+02  0.97432697049E+02  0.99299184258E+02  0.14052709496E+03  0.47000000000E+01 0.  1.
         11    1    4    4    0    0 -0.33490088859E+02 -0.32455152028E+02  0.11302745139E+02  0.47986195855E+02  0.00000000000E+00 0. -1.
        -12    1    4    4    0    0  0.13557315103E+02  0.26148311212E+02  0.82875400104E+02  0.87953777147E+02  0.00000000000E+00 0.  1.
</event>
<event>
12    1  0.1598254E-001  0.1850782E+03  0.7818608E-02  0.1163329E+00
         21   -1    0    0  503  502  0.00000000000E+00  0.00000000000E+00  0.92193981646E+02  0.92193981646E+02  0.00000000000E+00 0. -1.
         21   -1    0    0  501  503 -0.00000000000E+00 -0.00000000000E+00 -0.46051505422E+03  0.46051505422E+03  0.00000000000E+00 0. -1.
          6    2    1    2  501    0  0.34330371112E+02 -0.58485082330E+02 -0.60053135087E+02  0.19314949902E+03  0.17059094554E+03 0.  0.
         24    2    3    3    0    0  0.77817680139E+02 -0.63612499249E+02 -0.13754138619E+02  0.12925017567E+03  0.80089263809E+02 0.  0.
         -6    2    1    2    0  502 -0.34330371112E+02  0.58485082330E+02 -0.30826793749E+03  0.35955953686E+03  0.17220586524E+03 0.  0.
        -24    2    5    5    0    0 -0.33529944102E+02  0.89518445336E+02 -0.30309817685E+03  0.32773931172E+03  0.80042129075E+02 0.  0.
          5    1    3    3  501    0 -0.43487309027E+02  0.51274169184E+01 -0.46298996468E+02  0.63899323350E+02  0.47000000000E+01 0. -1.
        -11    1    4    4    0    0  0.27025938326E+02 -0.18502204650E+02 -0.44030848343E+02  0.54876666490E+02  0.00000000000E+00 0.  1.
         12    1    4    4    0    0  0.50791741814E+02 -0.45110294599E+02  0.30276709724E+02  0.74373509175E+02  0.00000000000E+00 0. -1.
         -5    1    5    5    0  502 -0.80042700983E+00 -0.31033363006E+02 -0.51697606416E+01  0.31820225140E+02  0.47000000000E+01 0.  1.
         11    1    6    6    0    0 -0.54912888692E+02  0.44681448566E+02 -0.13474717573E+03  0.15221254402E+03  0.00000000000E+00 0. -1.
        -12    1    6    6    0    0  0.21382944590E+02  0.44836996770E+02 -0.16835100112E+03  0.17552676769E+03  0.00000000000E+00 0.  1.
</event>
<event>
12    1  0.1598254E-001  0.2256919E+03  0.7818608E-02  0.1134633E+00
         21   -1    0    0  503  502  0.00000000000E+00  0.00000000000E+00  0.15452607652E+03  0.15452607652E+03  0.00000000000E+00 0. -1.
         21   -1    0    0  501  503 -0.00000000000E+00 -0.00000000000E+00 -0.40031353038E+03  0.40031353038E+03  0.00000000000E+00 0. -1.
          6    2    1    2  501    0  0.10894709721E+03 -0.60629407700E+02 -0.27156114977E+03  0.35310380221E+03  0.18812613323E+03 0.  0.
         24    2    3    3    0    0  0.19171166842E+02 -0.65223908474E+02 -0.23276750728E+03  0.25508409089E+03  0.79154842568E+02 0.  0.
         -6    2    1    2    0  502 -0.10894709721E+03  0.60629407700E+02  0.25773695902E+02  0.20173580469E+03  0.15648532335E+03 0.  0.
        -24    2    5    5    0    0 -0.64973440393E+02  0.99641062068E+02  0.12071797322E+02  0.14119306197E+03  0.75099022979E+02 0.  0.
          5    1    3    3  501    0  0.89775930369E+02  0.45945007743E+01 -0.38793642485E+02  0.98019711325E+02  0.47000000000E+01 0. -1.
        -13    1    4    4    0    0  0.25505335050E+02  0.99807845692E+01 -0.44503787757E+02  0.52256342212E+02  0.00000000000E+00 0.  1.
         14    1    4    4    0    0 -0.63341682087E+01 -0.75204693044E+02 -0.18826371952E+03  0.20282774867E+03  0.00000000000E+00 0. -1.
         -5    1    5    5    0  502 -0.43973656817E+02 -0.39011654368E+02  0.13701898580E+02  0.60542742712E+02  0.47000000000E+01 0.  1.
         11    1    6    6    0    0  0.11023741304E+02  0.46828347226E+02  0.53062225122E+01  0.48400134025E+02  0.00000000000E+00 0. -1.
        -12    1    6    6    0    0 -0.75997181697E+02  0.52812714842E+02  0.67655748098E+01  0.92792927949E+02  0.00000000000E+00 0.  1.
</event>
<event>
12    1  0.1598254E-001  0.2479544E+03  0.7818608E-02  0.1115984E+00
         21   -1    0    0  501  502  0.00000000000E+00  0.00000000000E+00  0.15616717095E+04  0.15616717095E+04  0.00000000000E+00 0.  1.
         21   -1    0    0  502  503 -0.00000000000E+00 -0.00000000000E+00 -0.38615145588E+02  0.38615145588E+02  0.00000000000E+00 0.  1.
         -6    2    1    2    0  503  0.17188267861E+03  0.48905221694E+02  0.65030967347E+03  0.69300051558E+03  0.15941037376E+03 0.  0.
        -24    2    3    3    0    0  0.10885740213E+03  0.90317489460E+02  0.45480366622E+03  0.48340125444E+03  0.82602754718E+02 0.  0.
          6    2    1    2  501    0 -0.17188267861E+03 -0.48905221694E+02  0.87274689040E+03  0.90728633947E+03  0.17188947372E+03 0.  0.
         24    2    5    5    0    0 -0.18657232385E+03 -0.58713658285E+02  0.64267349871E+03  0.67648805813E+03  0.79689027834E+02 0.  0.
          5    1    5    5  501    0  0.14689645240E+02  0.98084365908E+01  0.23007339169E+03  0.23079828134E+03  0.47000000000E+01 0. -1.
        -13    1    6    6    0    0 -0.66415173587E+02 -0.37729979591E+02  0.14277395660E+03  0.16192260289E+03  0.00000000000E+00 0.  1.
         14    1    6    6    0    0 -0.12015715026E+03 -0.20983678694E+02  0.49989954211E+03  0.51456545525E+03  0.00000000000E+00 0. -1.
         -5    1    3    3    0  503  0.63025276482E+02 -0.41412267766E+02  0.19550600725E+03  0.20959926113E+03  0.47000000000E+01 0.  1.
         11    1    4    4    0    0 -0.73436855969E+00  0.36197181505E+02  0.16412065428E+03  0.16806654756E+03  0.00000000000E+00 0. -1.
        -12    1    4    4    0    0  0.10959177069E+03  0.54120307956E+02  0.29068301194E+03  0.31533470689E+03  0.00000000000E+00 0.  1.
</event>
<event>
12    1  0.1598254E-001  0.2050729E+03  0.7818608E-02  0.1146023E+00
         21   -1    0    0  501  502  0.00000000000E+00  0.00000000000E+00  0.10925457473E+03  0.10925457473E+03  0.00000000000E+00 0. -1.
         21   -1    0    0  502  503 -0.00000000000E+00 -0.00000000000E+00 -0.53435909726E+03  0.53435909726E+03  0.00000000000E+00 0. -1.
         -6    2    1    2    0  503  0.38103417025E+02 -0.10177436722E+03 -0.38616793657E+03  0.43724200755E+03  0.17391091318E+03 0.  0.
        -24    2    3    3    0    0  0.10408414272E+02  0.16318126379E+02 -0.19161101208E+03  0.20792271685E+03  0.78373847015E+02 0.  0.
          6    2    1    2  501    0 -0.38103417025E+02  0.10177436722E+03 -0.38936585963E+02  0.20637166445E+03  0.17106523302E+03 0.  0.
         24    2    5    5    0    0 -0.33709867172E+02 -0.12000783943E+02 -0.26055482538E+02  0.91689054049E+02  0.80297076548E+02 0.  0.
          5    1    5    5  501    0 -0.43935498530E+01  0.11377515116E+03 -0.12881103426E+02  0.11468261040E+03  0.47000000000E+01 0. -1.
        -13    1    6    6    0    0 -0.42065237763E+02  0.18030338680E+02 -0.36790381490E+02  0.58720605507E+02  0.00000000000E+00 0.  1.
         14    1    6    6    0    0  0.83553705907E+01 -0.30031122623E+02  0.10734898952E+02  0.32968448542E+02  0.00000000000E+00 0. -1.
         -5    1    3    3    0  503  0.27695002754E+02 -0.11809249360E+03 -0.19455692449E+03  0.22931929070E+03  0.47000000000E+01 0.  1.
         13    1    4    4    0    0 -0.15405317279E+02 -0.17352166933E+02 -0.18464611616E+02  0.29654061777E+02  0.00000000000E+00 0. -1.
        -14    1    4    4    0    0  0.25813731550E+02  0.33670293311E+02 -0.17314640046E+03  0.17826865507E+03  0.00000000000E+00 0.  1.
</event>
<event>
12    1  0.1598254E-001  0.2014552E+03  0.7818608E-02  0.1149160E+00
         21   -1    0    0  501  502  0.00000000000E+00  0.00000000000E+00  0.13559973390E+03  0.13559973390E+03  0.00000000000E+00 0.  1.
         21   -1    0    0  502  503 -0.00000000000E+00 -0.00000000000E+00 -0.43322742971E+03  0.43322742971E+03  0.00000000000E+00 0.  1.
         -6    2    1    2    0  503 -0.68673956672E+01  0.98451626301E+02 -0.30882064839E+03  0.36706125031E+03  0.17211590501E+03 0.  0.
        -24    2    3    3    0    0  0.55839763171E+02  0.39688012887E+02 -0.21161611204E+03  0.23722996779E+03  0.82483096613E+02 0.  0.
          6    2    1    2  501    0  0.68673956672E+01 -0.98451626301E+02  0.11192952590E+02  0.20176591330E+03  0.17562550424E+03 0.  0.
         24    2    5    5    0    0 -0.52625614801E+02 -0.10296643017E+03  0.21855180684E+02  0.14097467334E+03  0.77618738225E+02 0.  0.
          5    1    5    5  501    0  0.59493010468E+02  0.45148038739E+01 -0.10662228094E+02  0.60791239965E+02  0.47000000000E+01 0. -1.
        -13    1    6    6    0    0 -0.30065774712E+02 -0.10884377237E+03  0.29013179365E+02  0.11658765873E+03  0.00000000000E+00 0.  1.
         14    1    6    6    0    0 -0.22559840089E+02  0.58773421935E+01 -0.71579986803E+01  0.24387014602E+02  0.00000000000E+00 0. -1.
         -5    1    3    3    0  503 -0.62707158838E+02  0.58763613414E+02 -0.97204536359E+02  0.12983128252E+03  0.47000000000E+01 0.  1.
         13    1    4    4    0    0  0.20432524050E+02 -0.23659434176E+02 -0.39024616329E+02  0.50001775411E+02  0.00000000000E+00 0. -1.
        -14    1    4    4    0    0  0.35407239120E+02  0.63347447063E+02 -0.17259149571E+03  0.18722819238E+03  0.00000000000E+00 0.  1.
</event>
<event>
12    1  0.1598254E-001  0.2006687E+03  0.7818608E-02  0.1149497E+00
         21   -1    0    0  503  502  0.00000000000E+00  0.00000000000E+00  0.29316350088E+03  0.29316350088E+03  0.00000000000E+00 0. -1.
         21   -1    0    0  501  503 -0.00000000000E+00 -0.00000000000E+00 -0.17327596534E+03  0.17327596534E+03  0.00000000000E+00 0. -1.
          6    2    1    2  501    0  0.48268258379E+01 -0.10332755609E+03 -0.47944262179E+02  0.20483781433E+03  0.17017636677E+03 0.  0.
         24    2    3    3    0    0  0.84031038187E+00  0.11541745754E+02 -0.17586501547E+01  0.80877943525E+02  0.80026438643E+02 0.  0.
         -6    2    1    2    0  502 -0.48268258379E+01  0.10332755609E+03  0.16783179772E+03  0.26160165189E+03  0.17195356888E+03 0.  0.
        -24    2    5    5    0    0  0.46776970058E+02  0.38211798125E+02  0.35122848508E+02  0.10495948360E+03  0.78324021005E+02 0.  0.
          5    1    3    3  501    0  0.39865154560E+01 -0.11486930185E+03 -0.46185612025E+02  0.12395987081E+03  0.47000000000E+01 0. -1.
        -13    1    4    4    0    0  0.27144941438E+02  0.33096466158E+02  0.11587156083E+02  0.44345079816E+02  0.00000000000E+00 0.  1.
         14    1    4    4    0    0 -0.26304631056E+02 -0.21554720404E+02 -0.13345806237E+02  0.36532863709E+02  0.00000000000E+00 0. -1.
         -5    1    5    5    0  502 -0.51603795896E+02  0.65115757968E+02  0.13270894921E+03  0.15664216829E+03  0.47000000000E+01 0.  1.
         11    1    6    6    0    0 -0.21318054873E+02  0.12280126932E+02  0.16907394652E+02  0.29851649452E+02  0.00000000000E+00 0. -1.
        -12    1    6    6    0    0  0.68095024932E+02  0.25931671193E+02  0.18215453856E+02  0.75107834148E+02  0.00000000000E+00 0.  1.
</event>
<event>
12    1  0.1598254E-001  0.3284511E+03  0.7818608E-02  0.1072133E+00
         21   -1    0    0  501  502  0.00000000000E+00  0.00000000000E+00  0.16936576954E+04  0.16936576954E+04  0.00000000000E+00 0.  1.
         21   -1    0    0  502  503 -0.00000000000E+00 -0.00000000000E+00 -0.71403676691E+02  0.71403676691E+02  0.00000000000E+00 0. -1.
         -6    2    1    2    0  503  0.24757924360E+03 -0.12968559953E+03  0.51433761926E+03  0.61026492522E+03  0.17252899982E+03 0.  0.
        -24    2    3    3    0    0  0.10924027476E+03 -0.40506272178E+01  0.27219381225E+03  0.30436047961E+03  0.81215669133E+02 0.  0.
          6    2    1    2  501    0 -0.24757924360E+03  0.12968559953E+03  0.11079163994E+04  0.11547964469E+04  0.16721916443E+03 0.  0.
         24    2    5    5    0    0 -0.87824167264E+02  0.55267393825E+02  0.66863839913E+03  0.68146040839E+03  0.80891348397E+02 0.  0.
          5    1    5    5  501    0 -0.15975507634E+03  0.74418205706E+02  0.43927800032E+03  0.47333603848E+03  0.47000000000E+01 0. -1.
        -13    1    6    6    0    0 -0.34581860118E+02 -0.19032753338E+02  0.17101373626E+03  0.17551025251E+03  0.00000000000E+00 0.  1.
         14    1    6    6    0    0 -0.53242307146E+02  0.74300147163E+02  0.49762466287E+03  0.50595015588E+03  0.00000000000E+00 0. -1.
         -5    1    3    3    0  503  0.13833896884E+03 -0.12563497231E+03  0.24214380701E+03  0.30590444561E+03  0.47000000000E+01 0.  1.
         13    1    4    4    0    0  0.27010873427E+02  0.33902276824E+00  0.88245043136E+01  0.28417848196E+02  0.00000000000E+00 0. -1.
        -14    1    4    4    0    0  0.82229401332E+02 -0.43896499860E+01  0.26336930794E+03  0.27594263142E+03  0.00000000000E+00 0.  1.
</event>
<event>
12    1  0.1598254E-001  0.1810430E+03  0.7818608E-02  0.1167927E+00
         21   -1    0    0  501  502  0.00000000000E+00  0.00000000000E+00  0.13130390787E+03  0.13130390787E+03  0.00000000000E+00 0.  1.
         21   -1    0    0  502  503 -0.00000000000E+00 -0.00000000000E+00 -0.41604086737E+03  0.41604086737E+03  0.00000000000E+00 0.  1.
         -6    2    1    2    0  503  0.24659339288E+02 -0.29494766871E+02 -0.31980119631E+03  0.36749066179E+03  0.17691398209E+03 0.  0.
        -24    2    3    3    0    0  0.78519627505E+02 -0.37811561651E+02 -0.16256996675E+03  0.20101589112E+03  0.79895859068E+02 0.  0.
          6    2    1    2  501    0 -0.24659339288E+02  0.29494766871E+02  0.35064236809E+02  0.17985411344E+03  0.17216264732E+03 0.  0.
         24    2    5    5    0    0 -0.42621433341E+02 -0.33306998718E+02  0.53695321849E+02  0.11176662624E+03  0.81747467289E+02 0.  0.
          5    1    5    5  501    0  0.17962094053E+02  0.62801765589E+02 -0.18631085040E+02  0.68087487203E+02  0.47000000000E+01 0. -1.
        -13    1    6    6    0    0  0.13876286676E+02  0.90603037123E+01  0.34984735415E+02  0.38711395575E+02  0.00000000000E+00 0.  1.
         14    1    6    6    0    0 -0.56497720017E+02 -0.42367302430E+02  0.18710586434E+02  0.73055230662E+02  0.00000000000E+00 0. -1.
         -5    1    3    3    0  503 -0.53860288218E+02  0.83167947800E+01 -0.15723122956E+03  0.16647477067E+03  0.47000000000E+01 0.  1.
         13    1    4    4    0    0 -0.64779582832E+01 -0.10458318328E+02  0.32143004017E+01  0.12715034126E+02  0.00000000000E+00 0. -1.
        -14    1    4    4    0    0  0.84997585789E+02 -0.27353243323E+02 -0.16578426715E+03  0.18830085700E+03  0.00000000000E+00 0.  1.
</event>
<event>
12    1  0.1598254E-001  0.2037279E+03  0.7818608E-02  0.1146751E+00
         21   -1    0    0  503  502  0.00000000000E+00  0.00000000000E+00  0.29998749729E+03  0.29998749729E+03  0.00000000000E+00 0.  1.
         21   -1    0    0  501  503 -0.00000000000E+00 -0.00000000000E+00 -0.14661430173E+03  0.14661430173E+03  0.00000000000E+00 0.  1.
          6    2    1    2  501    0 -0.24270580586E+02  0.10677326432E+03  0.22544967225E+02  0.20497150493E+03  0.17180061476E+03 0.  0.
         24    2    3    3    0    0 -0.59943504352E+02  0.92473779343E+02 -0.27466439854E+02  0.14172386783E+03  0.84773968969E+02 0.  0.
         -6    2    1    2    0  502  0.24270580586E+02 -0.10677326432E+03  0.13082822834E+03  0.24163029410E+03  0.17111277755E+03 0.  0.
        -24    2    5    5    0    0  0.42184479576E+02 -0.13413753999E+03  0.13169242090E+03  0.20857657738E+03  0.79930500804E+02 0.  0.
          5    1    3    3  501    0  0.35672923766E+02  0.14299484975E+02  0.50011407079E+02  0.63247637099E+02  0.47000000000E+01 0. -1.
        -13    1    4    4    0    0 -0.20444961156E+02  0.95041697203E+02 -0.30860922025E+02  0.10199665265E+03  0.00000000000E+00 0.  1.
         14    1    4    4    0    0 -0.39498543196E+02 -0.25679178594E+01  0.33944821707E+01  0.39727215180E+02  0.00000000000E+00 0. -1.
         -5    1    5    5    0  502 -0.17913898991E+02  0.27364275670E+02 -0.86419256306E+00  0.33053716716E+02  0.47000000000E+01 0.  1.
         13    1    6    6    0    0 -0.22255702759E+02 -0.25264910811E+02  0.16578100448E+02  0.37529527549E+02  0.00000000000E+00 0. -1.
        -14    1    6    6    0    0  0.64440182336E+02 -0.10887262918E+03  0.11511432045E+03  0.17104704983E+03  0.00000000000E+00 0.  1.
</event>
<event>
12    1  0.1598254E-001  0.2008657E+03  0.7818608E-02  0.1152374E+00
         21   -1    0    0  501  502  0.00000000000E+00  0.00000000000E+00  0.54311374903E+03  0.54311374903E+03  0.00000000000E+00 0.  1.
         21   -1    0    0  502  503 -0.00000000000E+00 -0.00000000000E+00 -0.69021788120E+02  0.69021788120E+02  0.00000000000E+00 0.  1.
         -6    2    1    2    0  503  0.55928039040E+02  0.88460991781E+02  0.22597233172E+03  0.30234175103E+03  0.17144604718E+03 0.  0.
        -24    2    3    3    0    0 -0.93758828206E+01  0.10661751359E+03  0.16536671627E+03  0.21129565216E+03  0.76449332179E+02 0.  0.
          6    2    1    2  501    0 -0.55928039040E+02 -0.88460991781E+02  0.24811962919E+03  0.30979378612E+03  0.15315203855E+03 0.  0.
         24    2    5    5    0    0 -0.81735378624E+02 -0.10174439086E+03  0.23313939691E+03  0.27679431906E+03  0.72308529806E+02 0.  0.
          5    1    5    5  501    0  0.25807339583E+02  0.13283399077E+02  0.14980232286E+02  0.32999467068E+02  0.47000000000E+01 0. -1.
        -13    1    6    6    0    0 -0.39250231480E+02 -0.60978494733E+02  0.60667724747E+02  0.94549089457E+02  0.00000000000E+00 0.  1.
         14    1    6    6    0    0 -0.42485147144E+02 -0.40765896125E+02  0.17247167216E+03  0.18224522960E+03  0.00000000000E+00 0. -1.
         -5    1    3    3    0  503  0.65303921861E+02 -0.18156521805E+02  0.60605615452E+02  0.91046098867E+02  0.47000000000E+01 0.  1.
         11    1    4    4    0    0  0.20595754065E+02  0.78687324581E+02  0.69295221259E+02  0.10685367483E+03  0.00000000000E+00 0. -1.
        -12    1    4    4    0    0 -0.29971636886E+02  0.27930189005E+02  0.96071495008E+02  0.10444197733E+03  0.00000000000E+00 0.  1.
</event>
<event>
12    1  0.1598254E-001  0.1729284E+03  0.7818608E-02  0.1175140E+00
         21   -1    0    0  503  502  0.00000000000E+00  0.00000000000E+00  0.21343298718E+03  0.21343298718E+03  0.00000000000E+00 0. -1.
         21   -1    0    0  501  503 -0.00000000000E+00 -0.00000000000E+00 -0.16844814172E+03  0.16844814172E+03  0.00000000000E+00 0. -1.
          6    2    1    2  501    0  0.10109311517E+02  0.41647399200E+01 -0.57106043426E+02  0.18211350885E+03  0.17258240545E+03 0.  0.
         24    2    3    3    0    0  0.38279557413E+02  0.59708951284E+02 -0.51637674552E+02  0.11941809252E+03  0.81016961243E+02 0.  0.
         -6    2    1    2    0  502 -0.10109311517E+02 -0.41647399200E+01  0.10209088889E+03  0.19976762005E+03  0.17136221634E+03 0.  0.
        -24    2    5    5    0    0 -0.21635855957E+02 -0.40610307884E+02  0.12450500423E+03  0.15520728772E+03  0.80439410196E+02 0.  0.
          5    1    3    3  501    0 -0.28170245896E+02 -0.55544211364E+02 -0.54683688744E+01  0.62695416324E+02  0.47000000000E+01 0. -1.
        -11    1    4    4    0    0  0.36260332238E+02  0.55446616977E+02  0.13072844022E+01  0.66263474258E+02  0.00000000000E+00 0.  1.
         12    1    4    4    0    0  0.20192251749E+01  0.42623343067E+01 -0.52944958954E+02  0.53154618263E+02  0.00000000000E+00 0. -1.
         -5    1    5    5    0  502  0.11526544440E+02  0.36445567964E+02 -0.22414115342E+02  0.44560332332E+02  0.47000000000E+01 0.  1.
         13    1    6    6    0    0  0.26235646843E+02  0.45192975328E+01  0.41259328161E+02  0.49102600499E+02  0.00000000000E+00 0. -1.
        -14    1    6    6    0    0 -0.47871502800E+02 -0.45129605417E+02  0.83245676072E+02  0.10610468722E+03  0.00000000000E+00 0.  1.
</event>
<event>
12    1  0.1598254E-001  0.2704039E+03  0.7818608E-02  0.1102532E+00
         21   -1    0    0  503  502  0.00000000000E+00  0.00000000000E+00  0.23891706342E+03  0.23891706342E+03  0.00000000000E+00 0. -1.
         21   -1    0    0  501  503 -0.00000000000E+00 -0.00000000000E+00 -0.29488178127E+03  0.29488178127E+03  0.00000000000E+00 0.  1.
          6    2    1    2  501    0  0.20723061542E+03  0.27448702479E+02 -0.36270490930E+02  0.27282566220E+03  0.17152356749E+03 0.  0.
         24    2    3    3    0    0  0.23057457061E+03  0.19341742663E+02 -0.38072441621E+02  0.24760662044E+03  0.79503409074E+02 0.  0.
         -6    2    1    2    0  502 -0.20723061542E+03 -0.27448702479E+02 -0.19694226923E+02  0.26097318249E+03  0.15498767747E+03 0.  0.
        -24    2    5    5    0    0 -0.10104292459E+03  0.65499204294E+01  0.38147607203E+02  0.13527712122E+03  0.81191659188E+02 0.  0.
          5    1    3    3  501    0 -0.23343955182E+02  0.81069598161E+01  0.18019506908E+01  0.25219041760E+02  0.47000000000E+01 0. -1.
        -11    1    4    4    0    0  0.78205065345E+02 -0.26916801312E+02  0.43305860012E+01  0.82820893582E+02  0.00000000000E+00 0.  1.
         12    1    4    4    0    0  0.15236950526E+03  0.46258543975E+02 -0.42403027622E+02  0.16478572686E+03  0.00000000000E+00 0. -1.
         -5    1    5    5    0  502 -0.10618769083E+03 -0.33998622908E+02 -0.57841834126E+02  0.12569606127E+03  0.47000000000E+01 0.  1.
         11    1    6    6    0    0 -0.42229833450E+02 -0.37339856956E+02  0.15084768308E+02  0.58353868643E+02  0.00000000000E+00 0. -1.
        -12    1    6    6    0    0 -0.58813091141E+02  0.43889777385E+02  0.23062838895E+02  0.76923252573E+02  0.00000000000E+00 0.  1.
</event>
<event>
12    1  0.1598254E-001  0.1912037E+03  0.7818608E-02  0.1157880E+00
         21   -1    0    0  503  502  0.00000000000E+00  0.00000000000E+00  0.61369636699E+02  0.61369636699E+02  0.00000000000E+00 0. -1.
         21   -1    0    0  501  503 -0.00000000000E+00 -0.00000000000E+00 -0.60210570913E+03  0.60210570913E+03  0.00000000000E+00 0. -1.
          6    2    1    2  501    0  0.10324087448E+02  0.80924439594E+02 -0.21953571864E+03  0.28967253959E+03  0.17046670270E+03 0.  0.
         24    2    3    3    0    0 -0.21110845972E+02  0.11490460958E+03 -0.15871743422E+03  0.21309734314E+03  0.81058723208E+02 0.  0.
         -6    2    1    2    0  502 -0.10324087448E+02 -0.80924439594E+02 -0.32120035379E+03  0.37380280624E+03  0.17292633973E+03 0.  0.
        -24    2    5    5    0    0 -0.73361923188E+02 -0.45002231533E+02 -0.21713371891E+03  0.24685349249E+03  0.79890063515E+02 0.  0.
          5    1    3    3  501    0  0.31434933420E+02 -0.33980169986E+02 -0.60818284425E+02  0.76575196453E+02  0.47000000000E+01 0. -1.
        -13    1    4    4    0    0 -0.23531680595E+02  0.17988502151E+02 -0.31391148259E+01  0.29785571057E+02  0.00000000000E+00 0.  1.
         14    1    4    4    0    0  0.24208346230E+01  0.96916107429E+02 -0.15557831939E+03  0.18331177208E+03  0.00000000000E+00 0. -1.
         -5    1    5    5    0  502  0.63037835740E+02 -0.35922208061E+02 -0.10406663488E+03  0.12694931375E+03  0.47000000000E+01 0.  1.
         13    1    6    6    0    0 -0.53943370821E+01 -0.47450378146E+02 -0.11048353160E+03  0.12036298440E+03  0.00000000000E+00 0. -1.
        -14    1    6    6    0    0 -0.67967586106E+02  0.24481466127E+01 -0.10665018731E+03  0.12649050808E+03  0.00000000000E+00 0.  1.
</event>
<event>
12    1  0.1598254E-001  0.3493770E+03  0.7818608E-02  0.1062970E+00
         21   -1    0    0  503  502  0.00000000000E+00  0.00000000000E+00  0.58950228279E+03  0.58950228279E+03  0.00000000000E+00 0.  1.
         21   -1    0    0  501  503 -0.00000000000E+00 -0.00000000000E+00 -0.22278958659E+03  0.22278958659E+03  0.00000000000E+00 0. -1.
          6    2    1    2  501    0  0.24831700108E+03 -0.17528414647E+03  0.73753814086E+02  0.35707689710E+03  0.17227425902E+03 0.  0.
         24    2    3    3    0    0  0.89628981960E+02 -0.13104033215E+03  0.79074656423E+01  0.17960229576E+03  0.83603430378E+02 0.  0.
         -6    2    1    2    0  502 -0.24831700108E+03  0.17528414647E+03  0.29295888212E+03  0.45521497228E+03  0.17032292667E+03 0.  0.
        -24    2    5    5    0    0 -0.26487363944E+03  0.16002201820E+03  0.29085283076E+03  0.43211561546E+03  0.79771202766E+02 0.  0.
          5    1    3    3  501    0  0.15868801912E+03 -0.44243814314E+02  0.65846348444E+02  0.17747460134E+03  0.47000000000E+01 0. -1.
        -11    1    4    4    0    0  0.19397968904E+02 -0.67697853817E+02  0.38426412830E+02  0.80223873080E+02  0.00000000000E+00 0.  1.
         12    1    4    4    0    0  0.70231013056E+02 -0.63342478335E+02 -0.30518947187E+02  0.99378422677E+02  0.00000000000E+00 0. -1.
         -5    1    5    5    0  502  0.16556638359E+02  0.15262128270E+02  0.21060513643E+01  0.23099356818E+02  0.47000000000E+01 0.  1.
         13    1    6    6    0    0 -0.15612494730E+03  0.12835974374E+03  0.15181416087E+03  0.25278204529E+03  0.00000000000E+00 0. -1.
        -14    1    6    6    0    0 -0.10874869214E+03  0.31662274455E+02  0.13903866988E+03  0.17933357017E+03  0.00000000000E+00 0.  1.
</event>
<event>
12    1  0.1598254E-001  0.2415509E+03  0.7818608E-02  0.1119034E+00
         21   -1    0    0  501  502  0.00000000000E+00  0.00000000000E+00  0.11309132734E+03  0.11309132734E+03  0.00000000000E+00 0. -1.
         21   -1    0    0  502  503 -0.00000000000E+00 -0.00000000000E+00 -0.62838028615E+03  0.62838028615E+03  0.00000000000E+00 0.  1.
         -6    2    1    2    0  503 -0.15474579492E+03 -0.65907910744E+02 -0.41617335705E+03  0.48037637902E+03  0.17108795592E+03 0.  0.
        -24    2    3    3    0    0 -0.11097179648E+03  0.14631670251E+01 -0.15068077908E+03  0.20295355369E+03  0.78540227260E+02 0.  0.
          6    2    1    2  501    0  0.15474579492E+03  0.65907910744E+02 -0.99115601760E+02  0.26109523447E+03  0.17336869731E+03 0.  0.
         24    2    5    5    0    0  0.58192565099E+02  0.96957498334E+02 -0.40348616457E+02  0.14378261094E+03  0.79109400466E+02 0.  0.
          5    1    5    5  501    0  0.96553229818E+02 -0.31049587590E+02 -0.58766985303E+02  0.11731262353E+03  0.47000000000E+01 0. -1.
        -11    1    6    6    0    0  0.12458561078E+02  0.50715019490E+02  0.19161199627E+02  0.55627156292E+02  0.00000000000E+00 0.  1.
         12    1    6    6    0    0  0.45734004020E+02  0.46242478844E+02 -0.59509816084E+02  0.88155454645E+02  0.00000000000E+00 0. -1.
         -5    1    3    3    0  503 -0.43773998434E+02 -0.67371077769E+02 -0.26549257797E+03  0.27742282533E+03  0.47000000000E+01 0.  1.
         11    1    4    4    0    0 -0.89487214699E+02 -0.28221861569E+02 -0.13163753896E+03  0.16165666311E+03  0.00000000000E+00 0. -1.
        -12    1    4    4    0    0 -0.21484581784E+02  0.29685028594E+02 -0.19043240122E+02  0.41296890578E+02  0.00000000000E+00 0.  1.
</event>
<event>
12    1  0.1598254E-001  0.1734325E+03  0.7818608E-02  0.1175693E+00
         21   -1    0    0  501  502  0.00000000000E+00  0.00000000000E+00  0.86267307531E+03  0.86267307531E+03  0.00000000000E+00 0.  1.
         21   -1    0    0  502  503 -0.00000000000E+00 -0.00000000000E+00 -0.65641783544E+02  0.65641783544E+02  0.00000000000E+00 0.  1.
         -6    2    1    2    0  503 -0.14318416234E+02  0.12653907849E+02  0.72065736036E+02  0.18289291261E+03  0.16700661288E+03 0.  0.
        -24    2    3    3    0    0 -0.11090091517E+02  0.38539904908E+01  0.11388049350E+03  0.13978346390E+03  0.80204779205E+02 0.  0.
          6    2    1    2  501    0  0.14318416234E+02 -0.12653907849E+02  0.72496555573E+03  0.74542194625E+03  0.17237657186E+03 0.  0.
         24    2    5    5    0    0  0.47045303564E+02 -0.31824982051E+02  0.67856769297E+03  0.68531012620E+03  0.77264254770E+02 0.  0.
          5    1    5    5  501    0 -0.32726887330E+02  0.19171074202E+02  0.46397862763E+02  0.60111820047E+02  0.47000000000E+01 0. -1.
        -13    1    6    6    0    0  0.44944689608E+02  0.15496477882E+02  0.38889505856E+03  0.39179016389E+03  0.00000000000E+00 0.  1.
         14    1    6    6    0    0  0.21006139562E+01 -0.47321459933E+02  0.28967263441E+03  0.29351996231E+03  0.00000000000E+00 0. -1.
         -5    1    3    3    0  503 -0.32283247178E+01  0.87999173585E+01 -0.41814757465E+02  0.43109448707E+02  0.47000000000E+01 0.  1.
         11    1    4    4    0    0 -0.29112582376E+02  0.29949603952E+02  0.34063302498E+02  0.53896473044E+02  0.00000000000E+00 0. -1.
        -12    1    4    4    0    0  0.18022490859E+02 -0.26095613461E+02  0.79817191003E+02  0.85886990856E+02  0.00000000000E+00 0.  1.
</event>
<event>
12    1  0.1598254E-001  0.2025447E+03  0.7818608E-02  0.1147995E+00
         21   -1    0    0  501  502  0.00000000000E+00  0.00000000000E+00  0.11616753067E+03  0.11616753067E+03  0.00000000000E+00 0.  1.
         21   -1    0    0  502  503 -0.00000000000E+00 -0.00000000000E+00 -0.44587766916E+03  0.44587766916E+03  0.00000000000E+00 0.  1.
         -6    2    1    2    0  503  0.26037338689E+02  0.10147906649E+03 -0.29580554250E+03  0.35850419488E+03  0.17334472829E+03 0.  0.
        -24    2    3    3    0    0 -0.53572677432E+02  0.53995587830E+02 -0.15115865751E+03  0.18664015922E+03  0.78740421776E+02 0.  0.
          6    2    1    2  501    0 -0.26037338689E+02 -0.10147906649E+03 -0.33904595986E+02  0.20354100496E+03  0.17118257835E+03 0.  0.
         24    2    5    5    0    0 -0.19142536531E+02 -0.32391010177E+02  0.44902442657E+02  0.98406152689E+02  0.79069129788E+02 0.  0.
          5    1    5    5  501    0 -0.68948021582E+01 -0.69088056318E+02 -0.78807038643E+02  0.10513485227E+03  0.47000000000E+01 0. -1.
        -11    1    6    6    0    0  0.28473969022E+02 -0.19267907968E+02  0.46580355777E+01  0.34694617519E+02  0.00000000000E+00 0.  1.
         12    1    6    6    0    0 -0.47616505552E+02 -0.13123102209E+02  0.40244407080E+02  0.63711535171E+02  0.00000000000E+00 0. -1.
         -5    1    3    3    0  503  0.79610016121E+02  0.47483478664E+02 -0.14464688500E+03  0.17186403566E+03  0.47000000000E+01 0.  1.
         13    1    4    4    0    0  0.18606498034E+02  0.13254452737E+02 -0.15300536226E+02  0.27495248594E+02  0.00000000000E+00 0. -1.
        -14    1    4    4    0    0 -0.72179175467E+02  0.40741135094E+02 -0.13585812128E+03  0.15914491063E+03  0.00000000000E+00 0.  1.
</event>
<event>
12    1  0.1598254E-001  0.1920068E+03  0.7818608E-02  0.1157618E+00
         21   -1    0    0  501  502  0.00000000000E+00  0.00000000000E+00  0.29686353506E+02  0.29686353506E+02  0.00000000000E+00 0.  1.
         21   -1    0    0  502  503 -0.00000000000E+00 -0.00000000000E+00 -0.12255090692E+04  0.12255090692E+04  0.00000000000E+00 0.  1.
         -6    2    1    2    0  503  0.52411025852E+02 -0.46400442584E+02 -0.66375054858E+03  0.69096410018E+03  0.17879228253E+03 0.  0.
        -24    2    3    3    0    0  0.93632045956E+02 -0.69975002962E+02 -0.53072986847E+03  0.54964345862E+03  0.82281694456E+02 0.  0.
          6    2    1    2  501    0 -0.52411025852E+02  0.46400442584E+02 -0.53207216708E+03  0.56423132249E+03  0.17423053004E+03 0.  0.
         24    2    5    5    0    0  0.24528888388E+02 -0.18074955622E+02 -0.23559299759E+03  0.25118369781E+03  0.81613841636E+02 0.  0.
          5    1    5    5  501    0 -0.76939914240E+02  0.64475398206E+02 -0.29647916949E+03  0.31304762468E+03  0.47000000000E+01 0. -1.
        -11    1    6    6    0    0 -0.72817540713E+01 -0.43964774400E+02 -0.99038039326E+02  0.10860229539E+03  0.00000000000E+00 0.  1.
         12    1    6    6    0    0  0.31810642460E+02  0.25889818778E+02 -0.13655495826E+03  0.14258140242E+03  0.00000000000E+00 0. -1.
         -5    1    3    3    0  503 -0.41221020104E+02  0.23574560378E+02 -0.13302068011E+03  0.14132064157E+03  0.47000000000E+01 0.  1.
         13    1    4    4    0    0  0.70835955783E+02 -0.78653304758E+02 -0.31006454300E+03  0.32763408829E+03  0.00000000000E+00 0. -1.
        -14    1    4    4    0    0  0.22796090173E+02  0.86783017959E+01 -0.22066532547E+03  0.22200937033E+03  0.00000000000E+00 0.  1.
</event>
<event>
12    1  0.1598254E-001  0.1776030E+03  0.7818608E-02  0.1170251E+00
         21   -1    0    0  503  502  0.00000000000E+00  0.00000000000E+00  0.67043903622E+02  0.67043903622E+02  0.00000000000E+00 0. -1.
         21   -1    0    0  501  503 -0.00000000000E+00 -0.00000000000E+00 -0.92362344943E+03  0.92362344943E+03  0.00000000000E+00 0. -1.
          6    2    1    2  501    0 -0.41213209803E+02 -0.15095847164E+02 -0.77594879953E+03  0.79601466631E+03  0.17209414928E+03 0.  0.
         24    2    3    3    0    0  0.31855093941E+02 -0.32262124824E+02 -0.27462978622E+03  0.28908616917E+03  0.78062167648E+02 0.  0.
         -6    2    1    2    0  502  0.41213209803E+02  0.15095847164E+02 -0.80630746276E+02  0.19465268675E+03  0.17164480169E+03 0.  0.
        -24    2    5    5    0    0  0.86981676711E+02  0.96433961780E+01 -0.88657674697E+02  0.14763137919E+03  0.79221421751E+02 0.  0.
          5    1    3    3  501    0 -0.73068303745E+02  0.17166277660E+02 -0.50131901331E+03  0.50692849714E+03  0.47000000000E+01 0. -1.
        -11    1    4    4    0    0 -0.15401256627E+02  0.15594976227E+02 -0.49748644077E+02  0.54362943046E+02  0.00000000000E+00 0.  1.
         12    1    4    4    0    0  0.47256350568E+02 -0.47857101052E+02 -0.22488114215E+03  0.23472322613E+03  0.00000000000E+00 0. -1.
         -5    1    5    5    0  502 -0.45768466908E+02  0.54524509859E+01  0.80269284206E+01  0.47021307561E+02  0.47000000000E+01 0.  1.
         13    1    6    6    0    0 -0.40319119022E+01 -0.65599263422E+01  0.98744911167E+01  0.12521761937E+02  0.00000000000E+00 0. -1.
        -14    1    6    6    0    0  0.91013588613E+02  0.16203322520E+02 -0.98532165814E+02  0.13510961725E+03  0.00000000000E+00 0.  1.
</event>
<event>
12    1  0.1598254E-001  0.1988619E+03  0.7818608E-02  0.1150918E+00
         21   -1    0    0  501  502  0.00000000000E+00  0.00000000000E+00  0.20144532039E+02  0.20144532039E+02  0.00000000000E+00 0. -1.
         21   -1    0    0  502  503 -0.00000000000E+00 -0.00000000000E+00 -0.19573543116E+04  0.19573543116E+04  0.00000000000E+00 0. -1.
         -6    2    1    2    0  503  0.58985476255E+02  0.82568025243E+02 -0.10167695311E+04  0.10360339468E+04  0.17102425107E+03 0.  0.
        -24    2    3    3    0    0  0.48327230788E+02  0.10880971844E+03 -0.97420364270E+03  0.98469030544E+03  0.79794637079E+02 0.  0.
          6    2    1    2  501    0 -0.58985476255E+02 -0.82568025243E+02 -0.92044024845E+03  0.94146489678E+03  0.16985033322E+03 0.  0.
         24    2    5    5    0    0  0.84142117170E+01  0.26788448040E+01 -0.53290617294E+03  0.53895465284E+03  0.80032202848E+02 0.  0.
          5    1    5    5  501    0 -0.67399687972E+02 -0.85246870047E+02 -0.38753407551E+03  0.40251024394E+03  0.47000000000E+01 0. -1.
        -13    1    6    6    0    0  0.13160622549E+02  0.19622316040E+02 -0.45840032871E+02  0.51570785202E+02  0.00000000000E+00 0.  1.
         14    1    6    6    0    0 -0.47464108321E+01 -0.16943471236E+02 -0.48706614007E+03  0.48738386764E+03  0.00000000000E+00 0. -1.
         -5    1    3    3    0  503  0.10658245467E+02 -0.26241693195E+02 -0.42565888372E+02  0.51343641389E+02  0.47000000000E+01 0.  1.
         13    1    4    4    0    0  0.11244207959E+02  0.44763870063E+02 -0.14448767647E+03  0.15168033797E+03  0.00000000000E+00 0. -1.
        -14    1    4    4    0    0  0.37083022829E+02  0.64045848375E+02 -0.82971596623E+03  0.83300996747E+03  0.00000000000E+00 0.  1.
</event>
<event>
12    1  0.1598254E-001  0.2159301E+03  0.7818608E-02  0.1137108E+00
         21   -1    0    0  501  502  0.00000000000E+00  0.00000000000E+00  0.24124552130E+03  0.24124552130E+03  0.00000000000E+00 0. -1.
         21   -1    0    0  502  503 -0.00000000000E+00 -0.00000000000E+00 -0.40534380004E+03  0.40534380004E+03  0.00000000000E+00 0. -1.
         -6    2    1    2    0  503 -0.10411283420E+03  0.74985235458E+02 -0.31621691740E+03  0.38245698869E+03  0.17267872355E+03 0.  0.
        -24    2    3    3    0    0 -0.13290827554E+03  0.83740240044E+02 -0.30101577020E+03  0.34841301091E+03  0.78128706308E+02 0.  0.
          6    2    1    2  501    0  0.10411283420E+03 -0.74985235458E+02  0.15211863866E+03  0.26413233266E+03  0.17367654172E+03 0.  0.
         24    2    5    5    0    0  0.10142791664E+03 -0.25659378003E+02  0.34162860640E+02  0.13616395936E+03  0.80171670988E+02 0.  0.
          5    1    5    5  501    0  0.26849175638E+01 -0.49325857455E+02  0.11795577802E+03  0.12796837329E+03  0.47000000000E+01 0. -1.
        -11    1    6    6    0    0  0.19897570787E+02  0.27474897927E+02  0.33601554742E+01  0.34089206271E+02  0.00000000000E+00 0.  1.
         12    1    6    6    0    0  0.81530345850E+02 -0.53134275930E+02  0.30802705166E+02  0.10207475309E+03  0.00000000000E+00 0. -1.
         -5    1    3    3    0  503  0.28795441338E+02 -0.87550045852E+01 -0.15201147192E+02  0.34043977780E+02  0.47000000000E+01 0.  1.
         13    1    4    4    0    0 -0.72197353772E+02  0.66477201413E+02 -0.11087889431E+03  0.14807364858E+03  0.00000000000E+00 0. -1.
        -14    1    4    4    0    0 -0.60710921767E+02  0.17263038630E+02 -0.19013687590E+03  0.20033936233E+03  0.00000000000E+00 0.  1.
</event>
<event>
12    1  0.1598254E-001  0.1775898E+03  0.7818608E-02  0.1170200E+00
         21   -1    0    0  501  502  0.00000000000E+00  0.00000000000E+00  0.16574165187E+03  0.16574165187E+03  0.00000000000E+00 0. -1.
         21   -1    0    0  502  503 -0.00000000000E+00 -0.00000000000E+00 -0.23761816827E+03  0.23761816827E+03  0.00000000000E+00 0. -1.
         -6    2    1    2    0  503 -0.34922636656E+02 -0.25261576522E+02  0.54242613338E+02  0.18568899364E+03  0.17228001468E+03 0.  0.
        -24    2    3    3    0    0 -0.88073065533E+02 -0.30432496017E+02  0.29318460622E+02  0.12657038501E+03  0.80482846257E+02 0.  0.
          6    2    1    2  501    0  0.34922636656E+02  0.25261576522E+02 -0.12611912975E+03  0.21767082650E+03  0.17209536897E+03 0.  0.
         24    2    5    5    0    0 -0.41863233532E+02 -0.31144576194E+01 -0.82869135347E+02  0.12496742209E+03  0.83590267505E+02 0.  0.
          5    1    5    5  501    0  0.76785870188E+02  0.28376034141E+02 -0.43249994398E+02  0.92703404412E+02  0.47000000000E+01 0. -1.
        -11    1    6    6    0    0  0.18300522190E+02  0.78881370297E+01  0.23562582544E+01  0.20066982115E+02  0.00000000000E+00 0.  1.
         12    1    6    6    0    0 -0.60163755722E+02 -0.11002594649E+02 -0.85225393602E+02  0.10490043997E+03  0.00000000000E+00 0. -1.
         -5    1    3    3    0  503  0.53150428877E+02  0.51709194952E+01  0.24924152716E+02  0.59118608634E+02  0.47000000000E+01 0.  1.
         11    1    4    4    0    0  0.13159053705E+02  0.35021661350E+01  0.12501775095E+02  0.18485676687E+02  0.00000000000E+00 0. -1.
        -12    1    4    4    0    0 -0.10123211924E+03 -0.33934662152E+02  0.16816685526E+02  0.10808470832E+03  0.00000000000E+00 0.  1.
</event>
<event>
12    1  0.1598254E-001  0.2235221E+03  0.7818608E-02  0.1131662E+00
         21   -1    0    0  503  502  0.00000000000E+00  0.00000000000E+00  0.10611775104E+03  0.10611775104E+03  0.00000000000E+00 0. -1.
         21   -1    0    0  501  503 -0.00000000000E+00 -0.00000000000E+00 -0.48515553305E+03  0.48515553305E+03  0.00000000000E+00 0.  1.
          6    2    1    2  501    0 -0.72210852221E+02  0.12028434626E+03 -0.24666090495E+03  0.33149303161E+03  0.17135721999E+03 0.  0.
         24    2    3    3    0    0 -0.29371148751E+02 -0.57565907083E+01 -0.12287031497E+03  0.14964760782E+03  0.80009308896E+02 0.  0.
         -6    2    1    2    0  502  0.72210852221E+02 -0.12028434626E+03 -0.13237687705E+03  0.25978025248E+03  0.17400980107E+03 0.  0.
        -24    2    5    5    0    0  0.72147115086E+02 -0.31219695634E+02 -0.25047768508E+02  0.12023046354E+03  0.87453404991E+02 0.  0.
          5    1    3    3  501    0 -0.42839703470E+02  0.12604093697E+03 -0.12379058998E+03  0.18184542379E+03  0.47000000000E+01 0. -1.
        -13    1    4    4    0    0 -0.35508063765E+02  0.17373673288E+02 -0.11901527668E+03  0.12540854516E+03  0.00000000000E+00 0.  1.
         14    1    4    4    0    0  0.61369150134E+01 -0.23130263996E+02 -0.38550382898E+01  0.24239062660E+02  0.00000000000E+00 0. -1.
         -5    1    5    5    0  502  0.63737135799E-01 -0.89064650626E+02 -0.10732910854E+03  0.13954978894E+03  0.47000000000E+01 0.  1.
         11    1    6    6    0    0  0.15644788297E+02 -0.53393245276E+02 -0.20748478009E+02  0.59380951337E+02  0.00000000000E+00 0. -1.
        -12    1    6    6    0    0  0.56502326789E+02  0.22173549642E+02 -0.42992904991E+01  0.60849512201E+02  0.00000000000E+00 0.  1.
</event>
<event>
12    1  0.1598254E-001  0.1857915E+03  0.7818608E-02  0.1162329E+00
         21   -1    0    0  501  502  0.00000000000E+00  0.00000000000E+00  0.53285169563E+03  0.53285169563E+03  0.00000000000E+00 0.  1.
         21   -1    0    0  502  503 -0.00000000000E+00 -0.00000000000E+00 -0.69679514748E+02  0.69679514748E+02  0.00000000000E+00 0.  1.
         -6    2    1    2    0  503 -0.63103639097E+02 -0.18741419703E+02  0.31169840802E+03  0.36286962743E+03  0.17373876617E+03 0.  0.
        -24    2    3    3    0    0 -0.55642667600E+02  0.45887770500E+02  0.25389479477E+03  0.27571490279E+03  0.79714157290E+02 0.  0.
          6    2    1    2  501    0  0.63103639097E+02  0.18741419703E+02  0.15147377287E+03  0.23966158295E+03  0.17366652066E+03 0.  0.
         24    2    5    5    0    0 -0.18937335473E+02  0.13003675626E+00  0.12727733584E+03  0.15199937531E+03  0.80905193235E+02 0.  0.
          5    1    5    5  501    0  0.82040974570E+02  0.18611382947E+02  0.24196437028E+02  0.87662207641E+02  0.47000000000E+01 0. -1.
        -13    1    6    6    0    0 -0.35843493256E+02 -0.12799911984E+01  0.15721068659E+02  0.39160520758E+02  0.00000000000E+00 0.  1.
         14    1    6    6    0    0  0.16906157783E+02  0.14100279547E+01  0.11155626718E+03  0.11283885455E+03  0.00000000000E+00 0. -1.
         -5    1    3    3    0  503 -0.74609714973E+01 -0.64629190203E+02  0.57803613254E+02  0.87154724641E+02  0.47000000000E+01 0.  1.
         11    1    4    4    0    0 -0.34376733004E+02 -0.18312031553E+02  0.76029056521E+02  0.85425451167E+02  0.00000000000E+00 0. -1.
        -12    1    4    4    0    0 -0.21265934596E+02  0.64199802052E+02  0.17786573824E+03  0.19028945162E+03  0.00000000000E+00 0.  1.
</event>
<event>
12    1  0.1598254E-001  0.2204938E+03  0.7818608E-02  0.1133844E+00
         21   -1    0    0  503  502  0.00000000000E+00  0.00000000000E+00  0.75236507925E+03  0.75236507925E+03  0.00000000000E+00 0.  1.
         21   -1    0    0  501  503 -0.00000000000E+00 -0.00000000000E+00 -0.73941051543E+02  0.73941051543E+02  0.00000000000E+00 0.  1.
          6    2    1    2  501    0  0.11906880852E+03 -0.60724510654E+02  0.18734446150E+03  0.28799707652E+03  0.17314595424E+03 0.  0.
         24    2    3    3    0    0  0.45925550030E+02  0.31413127685E+02  0.50290658341E+02  0.10731748270E+03  0.76759045334E+02 0.  0.
         -6    2    1    2    0  502 -0.11906880852E+03  0.60724510654E+02  0.49107956621E+03  0.53830905428E+03  0.17536433563E+03 0.  0.
        -24    2    5    5    0    0 -0.12066041096E+03  0.49164665184E+02  0.21298644555E+03  0.25993154624E+03  0.72284740196E+02 0.  0.
          5    1    3    3  501    0  0.73143258491E+02 -0.92137638339E+02  0.13705380316E+03  0.18067959381E+03  0.47000000000E+01 0. -1.
        -11    1    4    4    0    0  0.22797800706E+02  0.85663241417E+01 -0.18928027046E+02  0.30844640283E+02  0.00000000000E+00 0.  1.
         12    1    4    4    0    0  0.23127749324E+02  0.22846803544E+02  0.69218685387E+02  0.76472842419E+02  0.00000000000E+00 0. -1.
         -5    1    5    5    0  502  0.15916024359E+01  0.11559845470E+02  0.27809312066E+03  0.27837750804E+03  0.47000000000E+01 0.  1.
         11    1    6    6    0    0  0.36643322475E+01  0.73073562572E+01  0.50226325878E+02  0.50887214479E+02  0.00000000000E+00 0. -1.
        -12    1    6    6    0    0 -0.12432474320E+03  0.41857308926E+02  0.16276011967E+03  0.20904433176E+03  0.00000000000E+00 0.  1.
</event>
<event>
12    1  0.1598254E-001  0.1767953E+03  0.7818608E-02  0.1171156E+00
         21   -1    0    0  501  502  0.00000000000E+00  0.00000000000E+00  0.13460641631E+02  0.13460641631E+02  0.00000000000E+00 0. -1.
         21   -1    0    0  502  503 -0.00000000000E+00 -0.00000000000E+00 -0.23235992319E+04  0.23235992319E+04  0.00000000000E+00 0. -1.
         -6    2    1    2    0  503  0.39491284097E+02  0.99744105258E+00 -0.10652670032E+04  0.10796968205E+04  0.17143768417E+03 0.  0.
        -24    2    3    3    0    0  0.65818419335E+02 -0.21597682176E+02 -0.10007438722E+04  0.10062871339E+04  0.79542277523E+02 0.  0.
          6    2    1    2  501    0 -0.39491284097E+02 -0.99744105258E+00 -0.12448715870E+04  0.12573630531E+04  0.17232533934E+03 0.  0.
         24    2    5    5    0    0  0.42539777275E+02 -0.29999002253E+01 -0.52963669202E+03  0.53742128464E+03  0.80547995583E+02 0.  0.
          5    1    5    5  501    0 -0.82031061372E+02  0.20024591727E+01 -0.71523489501E+03  0.71994176841E+03  0.47000000000E+01 0. -1.
        -11    1    6    6    0    0 -0.10926009087E+02  0.25316977077E+02 -0.10792854702E+03  0.11139523448E+03  0.00000000000E+00 0.  1.
         12    1    6    6    0    0  0.53465786362E+02 -0.28316877302E+02 -0.42170814501E+03  0.42602605016E+03  0.00000000000E+00 0. -1.
         -5    1    3    3    0  503 -0.26327135238E+02  0.22595123228E+02 -0.64523131008E+02  0.73409686544E+02  0.47000000000E+01 0.  1.
         13    1    4    4    0    0  0.31193376336E+02  0.30038672738E+02 -0.41342328333E+03  0.41568516907E+03  0.00000000000E+00 0. -1.
        -14    1    4    4    0    0  0.34625042999E+02 -0.51636354914E+02 -0.58732058889E+03  0.59060196486E+03  0.00000000000E+00 0.  1.
</event>
<event>
12    1  0.1598254E-001  0.1985775E+03  0.7818608E-02  0.1151417E+00
         21   -1    0    0  503  502  0.00000000000E+00  0.00000000000E+00  0.19814260503E+03  0.19814260503E+03  0.00000000000E+00 0. -1.
         21   -1    0    0  501  503 -0.00000000000E+00 -0.00000000000E+00 -0.22712385282E+03  0.22712385282E+03  0.00000000000E+00 0.  1.
          6    2    1    2  501    0  0.14930521547E+02  0.98784787779E+02 -0.92243926078E+02  0.21895653816E+03  0.17161488553E+03 0.  0.
         24    2    3    3    0    0  0.61893850807E+02  0.10983723069E+03 -0.77842065315E+02  0.16838763089E+03  0.79999631808E+02 0.  0.
         -6    2    1    2    0  502 -0.14930521547E+02 -0.98784787779E+02  0.63262678284E+02  0.20630991969E+03  0.16905697776E+03 0.  0.
        -24    2    5    5    0    0  0.17224801850E+02 -0.10469985397E+03  0.77427775207E+01  0.14170727105E+03  0.93606873917E+02 0.  0.
          5    1    3    3  501    0 -0.46963329260E+02 -0.11052442914E+02 -0.14401860764E+02  0.50568907275E+02  0.47000000000E+01 0. -1.
        -11    1    4    4    0    0  0.87532498940E+01 -0.20129192999E+01 -0.36877857549E+02  0.37955863911E+02  0.00000000000E+00 0.  1.
         12    1    4    4    0    0  0.53140600913E+02  0.11185014999E+03 -0.40964207766E+02  0.13043176698E+03  0.00000000000E+00 0. -1.
         -5    1    5    5    0  502 -0.32155323397E+02  0.59150661860E+01  0.55519900763E+02  0.64602648642E+02  0.47000000000E+01 0.  1.
         13    1    6    6    0    0 -0.31266961697E+02 -0.81160676849E+02  0.11200508716E+02  0.87693384903E+02  0.00000000000E+00 0. -1.
        -14    1    6    6    0    0  0.48491763547E+02 -0.23539177117E+02 -0.34577311958E+01  0.54013886143E+02  0.00000000000E+00 0.  1.
</event>
<event>
12    1  0.1598254E-001  0.1848906E+03  0.7818608E-02  0.1165893E+00
         21   -1    0    0  501  502  0.00000000000E+00  0.00000000000E+00  0.17190883522E+03  0.17190883522E+03  0.00000000000E+00 0.  1.
         21   -1    0    0  502  503 -0.00000000000E+00 -0.00000000000E+00 -0.25178910382E+03  0.25178910382E+03  0.00000000000E+00 0.  1.
         -6    2    1    2    0  503 -0.24624803562E+02 -0.42975108699E+01 -0.14842945720E+03  0.23709880961E+03  0.18319304627E+03 0.  0.
        -24    2    3    3    0    0  0.54388897150E+02  0.23856529264E+02 -0.67202173887E+02  0.12024087692E+03  0.80090262744E+02 0.  0.
          6    2    1    2  501    0  0.24624803562E+02  0.42975108699E+01  0.68549188599E+02  0.18659912943E+03  0.17174223213E+03 0.  0.
         24    2    5    5    0    0  0.37355759718E+02  0.58471036507E+02  0.13097221158E+02  0.10789805690E+03  0.81585161561E+02 0.  0.
          5    1    5    5  501    0 -0.12730956156E+02 -0.54173525637E+02  0.55451967441E+02  0.78701072532E+02  0.47000000000E+01 0. -1.
        -11    1    6    6    0    0  0.64157912340E+01  0.61271076241E+02  0.34084973325E+02  0.70406623037E+02  0.00000000000E+00 0.  1.
         12    1    6    6    0    0  0.30939968484E+02 -0.28000397338E+01 -0.20987752167E+02  0.37491433865E+02  0.00000000000E+00 0. -1.
         -5    1    3    3    0  503 -0.79013700712E+02 -0.28154040134E+02 -0.81227283316E+02  0.11685793268E+03  0.47000000000E+01 0.  1.
         11    1    4    4    0    0 -0.55338973572E+01  0.32739495957E+02 -0.52905048792E+01  0.33622731260E+02  0.00000000000E+00 0. -1.
        -12    1    4    4    0    0  0.59922794507E+02 -0.88829666927E+01 -0.61911669008E+02  0.86618145664E+02  0.00000000000E+00 0.  1.
</event>
<event>
12    1  0.1598254E-001  0.2542404E+03  0.7818608E-02  0.1110811E+00
         21   -1    0    0  501  502  0.00000000000E+00  0.00000000000E+00  0.87025647006E+02  0.87025647006E+02  0.00000000000E+00 0.  1.
         21   -1    0    0  502  503 -0.00000000000E+00 -0.00000000000E+00 -0.90284688217E+03  0.90284688217E+03  0.00000000000E+00 0. -1.
         -6    2    1    2    0  503  0.14612080124E+03 -0.11458993322E+03 -0.61891061880E+03  0.66909531885E+03  0.17365497484E+03 0.  0.
        -24    2    3    3    0    0  0.10017237759E+03 -0.14258308365E+03 -0.39179624963E+03  0.43564746430E+03  0.76941347502E+02 0.  0.
          6    2    1    2  501    0 -0.14612080124E+03  0.11458993322E+03 -0.19691061637E+03  0.32077721033E+03  0.17216877324E+03 0.  0.
         24    2    5    5    0    0 -0.10815497403E+03  0.11535631148E+03 -0.21527357089E+03  0.27833572744E+03  0.78252730548E+02 0.  0.
          5    1    5    5  501    0 -0.37965827208E+02 -0.76637825678E+00  0.18362954526E+02  0.42441482893E+02  0.47000000000E+01 0. -1.
        -11    1    6    6    0    0 -0.59319005618E+01 -0.11181332145E+02 -0.85063836428E+01  0.15250186736E+02  0.00000000000E+00 0.  1.
         12    1    6    6    0    0 -0.10222307347E+03  0.12653764362E+03 -0.20676718725E+03  0.26308554070E+03  0.00000000000E+00 0. -1.
         -5    1    3    3    0  503  0.45948423657E+02  0.27993150428E+02 -0.22711436917E+03  0.23344785454E+03  0.47000000000E+01 0.  1.
         13    1    4    4    0    0  0.73846777922E+02 -0.10561128677E+03 -0.35351919346E+03  0.37627504654E+03  0.00000000000E+00 0. -1.
        -14    1    4    4    0    0  0.26325599663E+02 -0.36971796881E+02 -0.38277056170E+02  0.59372417765E+02  0.00000000000E+00 0.  1.
</event>
<event>
12    1  0.1598254E-001  0.2787087E+03  0.7818608E-02  0.1096471E+00
         21   -1    0    0  503  502  0.00000000000E+00  0.00000000000E+00  0.71612401115E+02  0.71612401115E+02  0.00000000000E+00 0. -1.
         21   -1    0    0  501  503 -0.00000000000E+00 -0.00000000000E+00 -0.11726753061E+04  0.11726753061E+04  0.00000000000E+00 0. -1.
          6    2    1    2  501    0  0.67200357970E+02 -0.20905677458E+03 -0.72345715537E+03  0.77528628240E+03  0.17163315795E+03 0.  0.
         24    2    3    3    0    0  0.30257413734E+02 -0.13178094534E+03 -0.62358626117E+03  0.64363287218E+03  0.84390286115E+02 0.  0.
         -6    2    1    2    0  502 -0.67200357970E+02  0.20905677458E+03 -0.37760574956E+03  0.46900142477E+03  0.17075014268E+03 0.  0.
        -24    2    5    5    0    0  0.23461822402E+02  0.14441987671E+03 -0.21329806206E+03  0.27046511653E+03  0.79042761102E+02 0.  0.
          5    1    3    3  501    0  0.36942944236E+02 -0.77275829237E+02 -0.99870894197E+02  0.13165341021E+03  0.47000000000E+01 0. -1.
        -13    1    4    4    0    0 -0.13116899180E+02  0.63367914851E+01 -0.61771012062E+02  0.63465470152E+02  0.00000000000E+00 0.  1.
         14    1    4    4    0    0  0.43374312914E+02 -0.13811773682E+03 -0.56181524911E+03  0.58016740203E+03  0.00000000000E+00 0. -1.
         -5    1    5    5    0  502 -0.90662180372E+02  0.64636897862E+02 -0.16430768750E+03  0.19853630824E+03  0.47000000000E+01 0.  1.
         11    1    6    6    0    0  0.22323610267E+01  0.12633389341E+03 -0.12447882290E+03  0.17737027206E+03  0.00000000000E+00 0. -1.
        -12    1    6    6    0    0  0.21229461375E+02  0.18085983300E+02 -0.88819239161E+02  0.93094844472E+02  0.00000000000E+00 0.  1.
</event>
<event>
12    1  0.1598254E-001  0.1905188E+03  0.7818608E-02  0.1159916E+00
         21   -1    0    0  501  502  0.00000000000E+00  0.00000000000E+00  0.27814392860E+03  0.27814392860E+03  0.00000000000E+00 0.  1.
         21   -1    0    0  502  503 -0.00000000000E+00 -0.00000000000E+00 -0.22319868839E+03  0.22319868839E+03  0.00000000000E+00 0. -1.
         -6    2    1    2    0  503  0.17656859251E+02 -0.78853181592E+02  0.19419753650E+03  0.27204796678E+03  0.17253354491E+03 0.  0.
        -24    2    3    3    0    0 -0.49373837547E+02 -0.55558243755E+02  0.15787459593E+03  0.19219050342E+03  0.80550029685E+02 0.  0.
          6    2    1    2  501    0 -0.17656859251E+02  0.78853181592E+02 -0.13925229628E+03  0.22929465021E+03  0.16326434293E+03 0.  0.
         24    2    5    5    0    0  0.38178279637E+02  0.67438878121E+02 -0.12786284198E+03  0.17098805773E+03  0.82960389393E+02 0.  0.
          5    1    5    5  501    0 -0.55835138888E+02  0.11414303470E+02 -0.11389454302E+02  0.58306592489E+02  0.47000000000E+01 0. -1.
        -13    1    6    6    0    0  0.50248872443E+01  0.23625965917E+02  0.71776492582E+01  0.25198301653E+02  0.00000000000E+00 0.  1.
         14    1    6    6    0    0  0.33153392393E+02  0.43812912205E+02 -0.13504049123E+03  0.14578975607E+03  0.00000000000E+00 0. -1.
         -5    1    3    3    0  503  0.67030696798E+02 -0.23294937836E+02  0.36322940567E+02  0.79857463355E+02  0.47000000000E+01 0.  1.
         11    1    4    4    0    0 -0.36255942603E+01  0.19825512793E+02  0.19078806521E+02  0.27752418804E+02  0.00000000000E+00 0. -1.
        -12    1    4    4    0    0 -0.45748243287E+02 -0.75383756548E+02  0.13879578941E+03  0.16443808462E+03  0.00000000000E+00 0.  1.
</event>
<event>
12    1  0.1598254E-001  0.2419477E+03  0.7818608E-02  0.1119347E+00
         21   -1    0    0  501  502  0.00000000000E+00  0.00000000000E+00  0.22162353480E+04  0.22162353480E+04  0.00000000000E+00 0. -1.
         21   -1    0    0  502  503 -0.00000000000E+00 -0.00000000000E+00 -0.70720514699E+02  0.70720514699E+02  0.00000000000E+00 0.  1.
         -6    2    1    2    0  503  0.14641373380E+03 -0.88906523790E+02  0.16623520682E+03  0.29355206627E+03  0.17087223357E+03 0.  0.
        -24    2    3    3    0    0  0.10033485135E+03 -0.12640700661E+03  0.10593768552E+03  0.20877335022E+03  0.79483991060E+02 0.  0.
          6    2    1    2  501    0 -0.14641373380E+03  0.88906523790E+02  0.19792796265E+04  0.19934037965E+04  0.16361388821E+03 0.  0.
         24    2    5    5    0    0 -0.32261390893E+02  0.49144789069E+01  0.78614424350E+03  0.79187162745E+03  0.89291395542E+02 0.  0.
          5    1    5    5  501    0 -0.11415234290E+03  0.83992044883E+02  0.11931353830E+04  0.12015321690E+04  0.47000000000E+01 0. -1.
        -11    1    6    6    0    0  0.36158652628E+01 -0.78436797660E+01  0.66114022007E+03  0.66119663368E+03  0.00000000000E+00 0.  1.
         12    1    6    6    0    0 -0.35877256156E+02  0.12758158673E+02  0.12500402343E+03  0.13067499377E+03  0.00000000000E+00 0. -1.
         -5    1    3    3    0  503  0.46078882450E+02  0.37500482816E+02  0.60297521306E+02  0.84778716050E+02  0.47000000000E+01 0.  1.
         13    1    4    4    0    0  0.21402942971E+02  0.30351369956E+01  0.35583229343E+02  0.41634892036E+02  0.00000000000E+00 0. -1.
        -14    1    4    4    0    0  0.78931908376E+02 -0.12944214360E+03  0.70354456175E+02  0.16713845818E+03  0.00000000000E+00 0.  1.
</event>
<event>
12    1  0.1598254E-001  0.2574358E+03  0.7818608E-02  0.1109092E+00
         21   -1    0    0  503  502  0.00000000000E+00  0.00000000000E+00  0.46910717248E+03  0.46910717248E+03  0.00000000000E+00 0.  1.
         21   -1    0    0  501  503 -0.00000000000E+00 -0.00000000000E+00 -0.42192065024E+03  0.42192065024E+03  0.00000000000E+00 0.  1.
          6    2    1    2  501    0  0.18329559557E+03  0.38935539327E+02 -0.34071522830E+03  0.42547337375E+03  0.17270632123E+03 0.  0.
         24    2    3    3    0    0  0.17614787850E+03  0.35467360706E+02 -0.35662847728E+03  0.40707664537E+03  0.79003263365E+02 0.  0.
         -6    2    1    2    0  502 -0.18329559557E+03 -0.38935539327E+02  0.38790175054E+03  0.46555444897E+03  0.17652174172E+03 0.  0.
        -24    2    5    5    0    0 -0.10338459715E+03  0.47870443020E+02  0.19742538354E+03  0.24144647806E+03  0.79622016156E+02 0.  0.
          5    1    3    3  501    0  0.71477170692E+01  0.34681786211E+01  0.15913248974E+02  0.18396728382E+02  0.47000000000E+01 0. -1.
        -13    1    4    4    0    0  0.91338448503E+02  0.13993704881E+02 -0.10100144473E+03  0.13689349067E+03  0.00000000000E+00 0.  1.
         14    1    4    4    0    0  0.84809430000E+02  0.21473655824E+02 -0.25562703255E+03  0.27018315470E+03  0.00000000000E+00 0. -1.
         -5    1    5    5    0  502 -0.79910998420E+02 -0.86805982347E+02  0.19047636700E+03  0.22410797091E+03  0.47000000000E+01 0.  1.
         11    1    6    6    0    0 -0.50125178737E+01  0.28868679531E+02  0.14071332583E+02  0.32504282702E+02  0.00000000000E+00 0. -1.
        -12    1    6    6    0    0 -0.98372079278E+02  0.19001763489E+02  0.18335405096E+03  0.20894219536E+03  0.00000000000E+00 0.  1.
</event>
<event>
12    1  0.1598254E-001  0.1868098E+03  0.7818608E-02  0.1163944E+00
         21   -1    0    0  501  502  0.00000000000E+00  0.00000000000E+00  0.12911537490E+03  0.12911537490E+03  0.00000000000E+00 0. -1.
         21   -1    0    0  502  503 -0.00000000000E+00 -0.00000000000E+00 -0.49725745804E+03  0.49725745804E+03  0.00000000000E+00 0. -1.
         -6    2    1    2    0  503  0.18868557331E+02 -0.12698747778E+02 -0.40549565760E+03  0.44645787812E+03  0.18542013900E+03 0.  0.
        -24    2    3    3    0    0  0.83754509661E+02  0.12090413256E+02 -0.23491347314E+03  0.26221602356E+03  0.80074385220E+02 0.  0.
          6    2    1    2  501    0 -0.18868557331E+02  0.12698747778E+02  0.37353574464E+02  0.17991495482E+03  0.17451882647E+03 0.  0.
         24    2    5    5    0    0 -0.59007742003E+02 -0.40672081318E+02  0.12992761291E+02  0.10867494666E+03  0.80655442284E+02 0.  0.
          5    1    5    5  501    0  0.40139184673E+02  0.53370829097E+02  0.24360813172E+02  0.71240008163E+02  0.47000000000E+01 0. -1.
        -13    1    6    6    0    0 -0.70464695288E+02 -0.90714345950E+01  0.21069897506E+02  0.74104688034E+02  0.00000000000E+00 0.  1.
         14    1    6    6    0    0  0.11456953285E+02 -0.31600646723E+02 -0.80771362148E+01  0.34570258624E+02  0.00000000000E+00 0. -1.
         -5    1    3    3    0  503 -0.64885952330E+02 -0.24789161034E+02 -0.17058218446E+03  0.18424185456E+03  0.47000000000E+01 0.  1.
         13    1    4    4    0    0  0.42923704052E+02  0.40304016574E+02 -0.17371602074E+03  0.18342331908E+03  0.00000000000E+00 0. -1.
        -14    1    4    4    0    0  0.40830805609E+02 -0.28213603318E+02 -0.61197452401E+02  0.78792704480E+02  0.00000000000E+00 0.  1.
</event>
<event>
12    1  0.1598254E-001  0.1808010E+03  0.7818608E-02  0.1167051E+00
         21   -1    0    0  503  502  0.00000000000E+00  0.00000000000E+00  0.45586259840E+03  0.45586259840E+03  0.00000000000E+00 0. -1.
         21   -1    0    0  501  503 -0.00000000000E+00 -0.00000000000E+00 -0.77008889656E+02  0.77008889656E+02  0.00000000000E+00 0. -1.
          6    2    1    2  501    0  0.37165873300E+02 -0.39966217318E+02  0.11925639111E+03  0.21651763856E+03  0.17227652284E+03 0.  0.
         24    2    3    3    0    0  0.15103061686E+02 -0.45415459376E+02 -0.36304365671E+01  0.91458755181E+02  0.77851508700E+02 0.  0.
         -6    2    1    2    0  502 -0.37165873300E+02  0.39966217318E+02  0.25959731764E+03  0.31635384950E+03  0.17236702151E+03 0.  0.
        -24    2    5    5    0    0 -0.53033839040E+02  0.14423215124E+02  0.62420533347E+02  0.11684191612E+03  0.82067613352E+02 0.  0.
          5    1    3    3  501    0  0.22062811614E+02  0.54492420579E+01  0.12288682768E+03  0.12505888338E+03  0.47000000000E+01 0. -1.
        -13    1    4    4    0    0  0.44300243083E+02 -0.43552754475E+02 -0.19616855640E+01  0.62154663299E+02  0.00000000000E+00 0.  1.
         14    1    4    4    0    0 -0.29197181397E+02 -0.18627049009E+01 -0.16687510031E+01  0.29304091881E+02  0.00000000000E+00 0. -1.
         -5    1    5    5    0  502  0.15867965740E+02  0.25543002194E+02  0.19717678429E+03  0.19951193338E+03  0.47000000000E+01 0.  1.
         13    1    6    6    0    0  0.14402249338E+02  0.25699538269E+02  0.11646217591E+02  0.31678469619E+02  0.00000000000E+00 0. -1.
        -14    1    6    6    0    0 -0.67436088378E+02 -0.11276323146E+02  0.50774315755E+02  0.85163446500E+02  0.00000000000E+00 0.  1.
</event>
<event>
12    1  0.1598254E-001  0.1765374E+03  0.7818608E-02  0.1171656E+00
         21   -1    0    0  503  502  0.00000000000E+00  0.00000000000E+00  0.68514195349E+03  0.68514195349E+03  0.00000000000E+00 0.  1.
         21   -1    0    0  501  503 -0.00000000000E+00 -0.00000000000E+00 -0.60037381368E+02  0.60037381368E+02  0.00000000000E+00 0.  1.
          6    2    1    2  501    0 -0.31105742782E+02 -0.24308806168E+02  0.50015747872E+03  0.53039885735E+03  0.17206672853E+03 0.  0.
         24    2    3    3    0    0 -0.10161675337E+02  0.46077843726E+02  0.19762052875E+03  0.21904113617E+03  0.81845700078E+02 0.  0.
         -6    2    1    2    0  502  0.31105742782E+02  0.24308806168E+02  0.12494709341E+03  0.21478047751E+03  0.17017753106E+03 0.  0.
        -24    2    5    5    0    0 -0.17714087332E+02 -0.19297728279E+02  0.12328217368E+03  0.14913165714E+03  0.79721801324E+02 0.  0.
          5    1    3    3  501    0 -0.20944067444E+02 -0.70386649893E+02  0.30253694996E+03  0.31135772118E+03  0.47000000000E+01 0. -1.
        -13    1    4    4    0    0 -0.60589139457E+00  0.64356410292E+02  0.18235985819E+03  0.19338364080E+03  0.00000000000E+00 0.  1.
         14    1    4    4    0    0 -0.95557839427E+01 -0.18278566566E+02  0.15260670559E+02  0.25657495364E+02  0.00000000000E+00 0. -1.
         -5    1    5    5    0  502  0.48819830114E+02  0.43606534447E+02  0.16649197252E+01  0.65648820374E+02  0.47000000000E+01 0.  1.
         13    1    6    6    0    0  0.23224348744E+02  0.15295749620E+02  0.60486190851E+02  0.66572589064E+02  0.00000000000E+00 0. -1.
        -14    1    6    6    0    0 -0.40938436077E+02 -0.34593477899E+02  0.62795982832E+02  0.82559068075E+02  0.00000000000E+00 0.  1.
</event>
<event>
12    1  0.1598254E-001  0.2247723E+03  0.7818608E-02  0.1130494E+00
         21   -1    0    0  501  502  0.00000000000E+00  0.00000000000E+00  0.20601303911E+02  0.20601303911E+02  0.00000000000E+00 0.  1.
         21   -1    0    0  502  503 -0.00000000000E+00 -0.00000000000E+00 -0.25772045280E+04  0.25772045280E+04  0.00000000000E+00 0.  1.
         -6    2    1    2    0  503 -0.87559575397E+02 -0.11670616261E+03 -0.15704841202E+04  0.15863942141E+04  0.17011532261E+03 0.  0.
        -24    2    3    3    0    0 -0.11460182647E+03 -0.12446586125E+03 -0.14749022430E+04  0.14866471263E+04  0.78471157313E+02 0.  0.
          6    2    1    2  501    0  0.87559575397E+02  0.11670616261E+03 -0.98611910384E+03  0.10114116178E+04  0.17098411043E+03 0.  0.
         24    2    5    5    0    0  0.45594710176E+02  0.13486694693E+03 -0.89237863893E+03  0.90700745714E+03  0.77813373687E+02 0.  0.
          5    1    5    5  501    0  0.41964865221E+02 -0.18160784321E+02 -0.93740464917E+02  0.10440416066E+03  0.47000000000E+01 0. -1.
        -13    1    6    6    0    0  0.43238839133E+02  0.20504042283E+02 -0.26113101083E+03  0.26547959955E+03  0.00000000000E+00 0.  1.
         14    1    6    6    0    0  0.23558710435E+01  0.11436290465E+03 -0.63124762809E+03  0.64152785758E+03  0.00000000000E+00 0. -1.
         -5    1    3    3    0  503  0.27042251071E+02  0.77596986431E+01 -0.95581877275E+02  0.99747087824E+02  0.47000000000E+01 0.  1.
         11    1    4    4    0    0 -0.25352250049E+02  0.53045608584E+01 -0.32142395695E+03  0.32246586648E+03  0.00000000000E+00 0. -1.
        -12    1    4    4    0    0 -0.89249576419E+02 -0.12977042211E+03 -0.11534782860E+04  0.11641812598E+04  0.00000000000E+00 0.  1.
</event>
<event>
12    1  0.1598254E-001  0.1911332E+03  0.7818608E-02  0.1157465E+00
         21   -1    0    0  503  502  0.00000000000E+00  0.00000000000E+00  0.18368892852E+03  0.18368892852E+03  0.00000000000E+00 0. -1.
         21   -1    0    0  501  503 -0.00000000000E+00 -0.00000000000E+00 -0.19926073446E+03  0.19926073446E+03  0.00000000000E+00 0. -1.
          6    2    1    2  501    0  0.79913361148E+02 -0.20393589188E+02  0.16497537678E+01  0.19114035284E+03  0.17242351646E+03 0.  0.
         24    2    3    3    0    0  0.11031336436E+03 -0.67160541983E+01  0.38334023868E+02  0.14135018482E+03  0.79348809845E+02 0.  0.
         -6    2    1    2    0  502 -0.79913361148E+02  0.20393589188E+02 -0.17221559707E+02  0.19180931013E+03  0.17231420592E+03 0.  0.
        -24    2    5    5    0    0 -0.79345415838E+02  0.72078247529E+02 -0.41074190561E+01  0.13827710342E+03  0.87250889156E+02 0.  0.
          5    1    3    3  501    0 -0.30400003210E+02 -0.13677534990E+02 -0.36684270101E+02  0.49790168019E+02  0.47000000000E+01 0. -1.
        -13    1    4    4    0    0  0.54956891475E+02  0.35789941518E+02  0.11542591355E+02  0.66591375190E+02  0.00000000000E+00 0.  1.
         14    1    4    4    0    0  0.55356472882E+02 -0.42505995716E+02  0.26791432513E+02  0.74758809634E+02  0.00000000000E+00 0. -1.
         -5    1    5    5    0  502 -0.56794531000E+00 -0.51684658341E+02 -0.13114140651E+02  0.53532206705E+02  0.47000000000E+01 0.  1.
         13    1    6    6    0    0 -0.98507845515E+02  0.59097940827E+02 -0.61662648025E+01  0.11504079737E+03  0.00000000000E+00 0. -1.
        -14    1    6    6    0    0  0.19162429677E+02  0.12980306702E+02  0.20588457464E+01  0.23236306053E+02  0.00000000000E+00 0.  1.
</event>
<event>
12    1  0.1598254E-001  0.2115090E+03  0.7818608E-02  0.1141049E+00
         21   -1    0    0  501  502  0.00000000000E+00  0.00000000000E+00  0.31393488473E+02  0.31393488473E+02  0.00000000000E+00 0.  1.
         21   -1    0    0  502  503 -0.00000000000E+00 -0.00000000000E+00 -0.18148537844E+04  0.18148537844E+04  0.00000000000E+00 0.  1.
         -6    2    1    2    0  503  0.58259675947E+02  0.10034345365E+03 -0.13374726203E+04  0.13540934466E+04  0.17684188880E+03 0.  0.
        -24    2    3    3    0    0  0.38067420753E+02  0.12422970131E+03 -0.12752031167E+04  0.12842517609E+04  0.79230354895E+02 0.  0.
          6    2    1    2  501    0 -0.58259675947E+02 -0.10034345365E+03 -0.44598767569E+03  0.49215382630E+03  0.17276395267E+03 0.  0.
         24    2    5    5    0    0  0.32265858138E+02 -0.42262127430E+02 -0.20930751571E+03  0.23213863269E+03  0.85155948946E+02 0.  0.
          5    1    5    5  501    0 -0.90525534086E+02 -0.58081326223E+02 -0.23668015998E+03  0.26001519361E+03  0.47000000000E+01 0. -1.
        -11    1    6    6    0    0  0.20757978175E+02 -0.63220646340E+02 -0.99100459737E+02  0.11936768785E+03  0.00000000000E+00 0.  1.
         12    1    6    6    0    0  0.11507879963E+02  0.20958518910E+02 -0.11020705597E+03  0.11277094485E+03  0.00000000000E+00 0. -1.
         -5    1    3    3    0  503  0.20192255195E+02 -0.23886247657E+02 -0.62269503544E+02  0.69841685752E+02  0.47000000000E+01 0.  1.
         13    1    4    4    0    0  0.23862249643E+02  0.16938389602E+02 -0.10339196969E+03  0.10745331729E+03  0.00000000000E+00 0. -1.
        -14    1    4    4    0    0  0.14205171110E+02  0.10729131171E+03 -0.11718111470E+04  0.11767984436E+04  0.00000000000E+00 0.  1.
</event>
<event>
12    1  0.1598254E-001  0.2107692E+03  0.7818608E-02  0.1141332E+00
         21   -1    0    0  503  502  0.00000000000E+00  0.00000000000E+00  0.21675694311E+03  0.21675694311E+03  0.00000000000E+00 0. -1.
         21   -1    0    0  501  503 -0.00000000000E+00 -0.00000000000E+00 -0.21903681008E+03  0.21903681008E+03  0.00000000000E+00 0.  1.
          6    2    1    2  501    0  0.10359908288E+03 -0.61313733636E+02 -0.59892935407E+02  0.21911371635E+03  0.17300726307E+03 0.  0.
         24    2    3    3    0    0  0.10471558223E+03 -0.70410174497E+02  0.84526111403E+01  0.14999645700E+03  0.80650757238E+02 0.  0.
         -6    2    1    2    0  502 -0.10359908288E+03  0.61313733636E+02  0.57613068441E+02  0.21668003684E+03  0.17070099239E+03 0.  0.
        -24    2    5    5    0    0 -0.10278132304E+02  0.11655671803E+02 -0.21672558647E+02  0.84456651673E+02  0.80135706927E+02 0.  0.
          5    1    3    3  501    0 -0.11164993452E+01  0.90964408611E+01 -0.68345546547E+02  0.69117259349E+02  0.47000000000E+01 0. -1.
        -11    1    4    4    0    0  0.10049010315E+03 -0.77967010365E+02 -0.12032174470E+02  0.12775714758E+03  0.00000000000E+00 0.  1.
         12    1    4    4    0    0  0.42254790791E+01  0.75568358677E+01  0.20484785610E+02  0.22239309416E+02  0.00000000000E+00 0. -1.
         -5    1    5    5    0  502 -0.93320950580E+02  0.49658061833E+02  0.79285627088E+02  0.13222338517E+03  0.47000000000E+01 0.  1.
         13    1    6    6    0    0  0.74975698928E+01 -0.31975059513E+02 -0.60485728896E+00  0.32847889391E+02  0.00000000000E+00 0. -1.
        -14    1    6    6    0    0 -0.17775702196E+02  0.43630731316E+02 -0.21067701359E+02  0.51608762282E+02  0.00000000000E+00 0.  1.
</event>
<event>
12    1  0.1598254E-001  0.1764817E+03  0.7818608E-02  0.1171425E+00
         21   -1    0    0  501  502  0.00000000000E+00  0.00000000000E+00  0.49996447433E+03  0.49996447433E+03  0.00000000000E+00 0.  1.
         21   -1    0    0  502  503 -0.00000000000E+00 -0.00000000000E+00 -0.83646976705E+02  0.83646976705E+02  0.00000000000E+00 0.  1.
         -6    2    1    2    0  503 -0.39887040306E+02 -0.92686121994E+01  0.59582988122E+02  0.18560981573E+03  0.17095025026E+03 0.  0.
        -24    2    3    3    0    0 -0.35507212991E+02  0.12710178220E+02  0.10408456982E+03  0.13556252920E+03  0.78238678692E+02 0.  0.
          6    2    1    2  501    0  0.39887040306E+02  0.92686121994E+01  0.35673450950E+03  0.39800163531E+03  0.17166510502E+03 0.  0.
         24    2    5    5    0    0 -0.11338677073E+02  0.28410083788E+02  0.32115261142E+03  0.33259038607E+03  0.80880570137E+02 0.  0.
          5    1    5    5  501    0  0.51225717379E+02 -0.19141471589E+02  0.35581898080E+02  0.65411249236E+02  0.47000000000E+01 0. -1.
        -11    1    6    6    0    0 -0.20487750540E+01  0.41737357363E+02  0.74626966556E+02  0.85530045108E+02  0.00000000000E+00 0.  1.
         12    1    6    6    0    0 -0.92899020191E+01 -0.13327273575E+02  0.24652564486E+03  0.24706034096E+03  0.00000000000E+00 0. -1.
         -5    1    3    3    0  503 -0.43798273152E+01 -0.21978790419E+02 -0.44501581695E+02  0.50047286529E+02  0.47000000000E+01 0.  1.
         11    1    4    4    0    0 -0.14686742230E+02  0.45595205884E+02  0.55656976469E+02  0.73432433070E+02  0.00000000000E+00 0. -1.
        -12    1    4    4    0    0 -0.20820470761E+02 -0.32885027665E+02  0.48427593348E+02  0.62130096127E+02  0.00000000000E+00 0.  1.
</event>
<event>
12    1  0.1598254E-001  0.2473259E+03  0.7818608E-02  0.1116636E+00
         21   -1    0    0  501  502  0.00000000000E+00  0.00000000000E+00  0.71417614365E+03  0.71417614365E+03  0.00000000000E+00 0.  1.
         21   -1    0    0  502  503 -0.00000000000E+00 -0.00000000000E+00 -0.21153093670E+03  0.21153093670E+03  0.00000000000E+00 0.  1.
         -6    2    1    2    0  503  0.99831362381E+02 -0.13091164290E+03 -0.11251314131E+03  0.26269132474E+03  0.17100691789E+03 0.  0.
        -24    2    3    3    0    0  0.28135715625E+02 -0.38427573053E+02  0.37359342027E+01  0.97677669257E+02  0.85197846233E+02 0.  0.
          6    2    1    2  501    0 -0.99831362381E+02  0.13091164290E+03  0.61515834825E+03  0.66301575562E+03  0.18456960640E+03 0.  0.
         24    2    5    5    0    0 -0.23679064997E+02  0.94800236277E+02  0.52259995405E+03  0.53774663563E+03  0.80702845279E+02 0.  0.
          5    1    5    5  501    0 -0.76152297384E+02  0.36111406625E+02  0.92558394198E+02  0.12526911999E+03  0.47000000000E+01 0. -1.
        -11    1    6    6    0    0 -0.51184266115E+02  0.81272891057E+02  0.40126325003E+03  0.41259824012E+03  0.00000000000E+00 0.  1.
         12    1    6    6    0    0  0.27505201118E+02  0.13527345220E+02  0.12133670402E+03  0.12514839551E+03  0.00000000000E+00 0. -1.
         -5    1    3    3    0  503  0.71695646756E+02 -0.92484069849E+02 -0.11624907551E+03  0.16501365548E+03  0.47000000000E+01 0.  1.
         13    1    4    4    0    0  0.20866183423E+02 -0.10694384974E+02  0.43049319999E+02  0.49020520530E+02  0.00000000000E+00 0. -1.
        -14    1    4    4    0    0  0.72695322020E+01 -0.27733188080E+02 -0.39313385797E+02  0.48657148727E+02  0.00000000000E+00 0.  1.
</event>
<event>
12    1  0.1598254E-001  0.1826607E+03  0.7818608E-02  0.1165325E+00
         21   -1    0    0  501  502  0.00000000000E+00  0.00000000000E+00  0.33626735249E+03  0.33626735249E+03  0.00000000000E+00 0.  1.
         21   -1    0    0  502  503 -0.00000000000E+00 -0.00000000000E+00 -0.35081733846E+03  0.35081733846E+03  0.00000000000E+00 0.  1.
         -6    2    1    2    0  503  0.31911200068E+02  0.50402062486E+02 -0.29830096844E+03  0.34962425538E+03  0.17232225504E+03 0.  0.
        -24    2    3    3    0    0  0.76649629706E+01  0.24821070277E+01 -0.48208456568E+02  0.93787282601E+02  0.80044278874E+02 0.  0.
          6    2    1    2  501    0 -0.31911200068E+02 -0.50402062486E+02  0.28375098247E+03  0.33746043557E+03  0.17264481728E+03 0.  0.
         24    2    5    5    0    0  0.14710799065E+02 -0.13036112872E+02  0.26036339323E+03  0.27312619645E+03  0.80140344401E+02 0.  0.
          5    1    5    5  501    0 -0.46621999132E+02 -0.37365949614E+02  0.23387589232E+02  0.64334239124E+02  0.47000000000E+01 0. -1.
        -11    1    6    6    0    0 -0.48923487942E+01  0.17012397564E+02  0.21286926280E+03  0.21360402569E+03  0.00000000000E+00 0.  1.
         12    1    6    6    0    0  0.19603147859E+02 -0.30048510437E+02  0.47494130438E+02  0.59522170756E+02  0.00000000000E+00 0. -1.
         -5    1    3    3    0  503  0.24246237097E+02  0.47919955458E+02 -0.25009251188E+03  0.25583697278E+03  0.47000000000E+01 0.  1.
         13    1    4    4    0    0  0.15080735094E+02 -0.35045996754E+02 -0.38752646600E+02  0.54382148522E+02  0.00000000000E+00 0. -1.
        -14    1    4    4    0    0 -0.74157721231E+01  0.37528103782E+02 -0.94558099684E+01  0.39405134079E+02  0.00000000000E+00 0.  1.
</event>
<event>
12    1  0.1598254E-001  0.2232209E+03  0.7818608E-02  0.1131706E+00
         21   -1    0    0  501  502  0.00000000000E+00  0.00000000000E+00  0.25154082304E+03  0.25154082304E+03  0.00000000000E+00 0. -1.
         21   -1    0    0  502  503 -0.00000000000E+00 -0.00000000000E+00 -0.19807204038E+03  0.19807204038E+03  0.00000000000E+00 0. -1.
         -6    2    1    2    0  503 -0.11760731756E+03  0.78742815607E+02  0.42422859731E+02  0.22721639617E+03  0.17261425059E+03 0.  0.
        -24    2    3    3    0    0 -0.11897391779E+03  0.89016586723E+02  0.79424265441E+02  0.18850448594E+03  0.84539821702E+02 0.  0.
          6    2    1    2  501    0  0.11760731756E+03 -0.78742815607E+02  0.11045922934E+02  0.22239646725E+03  0.17119072428E+03 0.  0.
         24    2    5    5    0    0  0.70854409744E+02  0.22102451098E+02  0.14245623356E+02  0.11109538779E+03  0.81427155660E+02 0.  0.
          5    1    5    5  501    0  0.46752907820E+02 -0.10084526671E+03 -0.31997004226E+01  0.11130107946E+03  0.47000000000E+01 0. -1.
        -11    1    6    6    0    0  0.72914504986E+02  0.75973221798E+01 -0.18165898942E+02  0.75526447196E+02  0.00000000000E+00 0.  1.
         12    1    6    6    0    0 -0.20600952417E+01  0.14505128918E+02  0.32411522298E+02  0.35568940595E+02  0.00000000000E+00 0. -1.
         -5    1    3    3    0  503  0.13666002233E+01 -0.10273771116E+02 -0.37001405709E+02  0.38711910229E+02  0.47000000000E+01 0.  1.
         13    1    4    4    0    0  0.10714379157E+02  0.97112279589E+01  0.21325361808E+02  0.25765809233E+02  0.00000000000E+00 0. -1.
        -14    1    4    4    0    0 -0.12968829695E+03  0.79305358764E+02  0.58098903633E+02  0.16273867671E+03  0.00000000000E+00 0.  1.
</event>
<event>
12    1  0.1598254E-001  0.2142712E+03  0.7818608E-02  0.1138604E+00
         21   -1    0    0  501  502  0.00000000000E+00  0.00000000000E+00  0.36747522188E+03  0.36747522188E+03  0.00000000000E+00 0.  1.
         21   -1    0    0  502  503 -0.00000000000E+00 -0.00000000000E+00 -0.31081930056E+03  0.31081930056E+03  0.00000000000E+00 0. -1.
         -6    2    1    2    0  503  0.11063948372E+03  0.56922612492E+02 -0.23478826412E+03  0.31655998731E+03  0.17205643674E+03 0.  0.
        -24    2    3    3    0    0  0.13370526682E+03  0.60368634208E+01 -0.13158898593E+03  0.19911395362E+03  0.66461742471E+02 0.  0.
          6    2    1    2  501    0 -0.11063948372E+03 -0.56922612492E+02  0.29144418544E+03  0.36173453513E+03  0.17444449407E+03 0.  0.
         24    2    5    5    0    0 -0.25976569447E+00  0.16190761425E+02  0.11818090048E+03  0.14362560934E+03  0.79996138566E+02 0.  0.
          5    1    5    5  501    0 -0.11037971803E+03 -0.73113373917E+02  0.17326328496E+03  0.21810892580E+03  0.47000000000E+01 0. -1.
        -13    1    6    6    0    0  0.98305068752E+01 -0.12517205292E+02  0.11129413188E+03  0.11242643410E+03  0.00000000000E+00 0.  1.
         14    1    6    6    0    0 -0.10090272570E+02  0.28707966717E+02  0.68867685971E+01  0.31199175233E+02  0.00000000000E+00 0. -1.
         -5    1    3    3    0  503 -0.23065783102E+02  0.50885749071E+02 -0.10319927820E+03  0.11744603369E+03  0.47000000000E+01 0.  1.
         11    1    4    4    0    0  0.66117809190E+02  0.17399106461E+02 -0.10563283830E+03  0.12582762068E+03  0.00000000000E+00 0. -1.
        -12    1    4    4    0    0  0.67587457635E+02 -0.11362243040E+02 -0.25956147622E+02  0.73286332940E+02  0.00000000000E+00 0.  1.
</event>
<event>
12    1  0.1598254E-001  0.1760096E+03  0.7818608E-02  0.1172208E+00
         21   -1    0    0  503  502  0.00000000000E+00  0.00000000000E+00  0.10797121612E+04  0.10797121612E+04  0.00000000000E+00 0. -1.
         21   -1    0    0  501  503 -0.00000000000E+00 -0.00000000000E+00 -0.38410919379E+02  0.38410919379E+02  0.00000000000E+00 0. -1.
          6    2    1    2  501    0 -0.31433716870E+02  0.83465192082E+01  0.23704718944E+03  0.29524693397E+03  0.17297872429E+03 0.  0.
         24    2    3    3    0    0  0.26309642322E+02 -0.26972711194E+02  0.20060572611E+03  0.21822866460E+03  0.77209897530E+02 0.  0.
         -6    2    1    2    0  502  0.31433716870E+02 -0.83465192082E+01  0.80425405237E+03  0.82287614661E+03  0.17100534774E+03 0.  0.
        -24    2    5    5    0    0  0.83056225828E+02  0.11643154974E+02  0.46737376737E+03  0.48144549929E+03  0.79483524403E+02 0.  0.
          5    1    3    3  501    0 -0.57743359192E+02  0.35319230402E+02  0.36441463337E+02  0.77018269372E+02  0.47000000000E+01 0. -1.
        -11    1    4    4    0    0 -0.12256828665E+02 -0.29602699802E+02  0.15576382907E+03  0.15902490412E+03  0.00000000000E+00 0.  1.
         12    1    4    4    0    0  0.38566470987E+02  0.26299886078E+01  0.44841897035E+02  0.59203760473E+02  0.00000000000E+00 0. -1.
         -5    1    5    5    0  502 -0.51622508957E+02 -0.19989674182E+02  0.33688028500E+03  0.34143064732E+03  0.47000000000E+01 0.  1.
         13    1    6    6    0    0  0.90610482695E+02 -0.61778827202E+01  0.31449270721E+03  0.32734399139E+03  0.00000000000E+00 0. -1.
        -14    1    6    6    0    0 -0.75542568672E+01  0.17821037694E+02  0.15288106016E+03  0.15410150790E+03  0.00000000000E+00 0.  1.
</event>
<event>
12    1  0.1598254E-001  0.2387642E+03  0.7818608E-02  0.1120916E+00
         21   -1    0    0  503  502  0.00000000000E+00  0.00000000000E+00  0.16278631414E+03  0.16278631414E+03  0.00000000000E+00 0. -1.
         21   -1    0    0  501  503 -0.00000000000E+00 -0.00000000000E+00 -0.42410612495E+03  0.42410612495E+03  0.00000000000E+00 0.  1.
          6    2    1    2  501    0 -0.68074787404E+02 -0.14830043132E+03 -0.25488013807E+03  0.34804139392E+03  0.17187708541E+03 0.  0.
         24    2    3    3    0    0 -0.62991393548E+02 -0.17762184086E+03 -0.23676288855E+03  0.31288587258E+03  0.79520248075E+02 0.  0.
         -6    2    1    2    0  502  0.68074787404E+02  0.14830043132E+03 -0.64396727347E+01  0.23885104517E+03  0.17430191561E+03 0.  0.
        -24    2    5    5    0    0  0.93467649145E+02  0.16134159024E+03  0.98918070492E+01  0.20562941840E+03  0.86129551771E+02 0.  0.
          5    1    3    3  501    0 -0.50833938557E+01  0.29321409541E+02 -0.18117249518E+02  0.35155521339E+02  0.47000000000E+01 0. -1.
        -11    1    4    4    0    0 -0.20723615105E+02 -0.94429724245E+02 -0.17814771373E+03  0.20268953834E+03  0.00000000000E+00 0.  1.
         12    1    4    4    0    0 -0.42267778443E+02 -0.83192116615E+02 -0.58615174821E+02  0.11019633424E+03  0.00000000000E+00 0. -1.
         -5    1    5    5    0  502 -0.25392861741E+02 -0.13041158918E+02 -0.16331479784E+02  0.33221626770E+02  0.47000000000E+01 0.  1.
         11    1    6    6    0    0 -0.14024486762E+02  0.31332415886E+02 -0.10035213393E+02  0.35764675618E+02  0.00000000000E+00 0. -1.
        -12    1    6    6    0    0  0.10749213591E+03  0.13000917435E+03  0.19927020442E+02  0.16986474278E+03  0.00000000000E+00 0.  1.
</event>
<event>
12    1  0.1598254E-001  0.1870385E+03  0.7818608E-02  0.1163486E+00
         21   -1    0    0  503  502  0.00000000000E+00  0.00000000000E+00  0.44033988550E+03  0.44033988550E+03  0.00000000000E+00 0. -1.
         21   -1    0    0  501  503 -0.00000000000E+00 -0.00000000000E+00 -0.12448917435E+03  0.12448917435E+03  0.00000000000E+00 0. -1.
          6    2    1    2  501    0  0.72616370137E+02  0.12414229528E+02  0.33793069160E+03  0.38623898281E+03  0.17191901934E+03 0.  0.
         24    2    3    3    0    0  0.75997196758E+02  0.39320231827E+02  0.12625667075E+03  0.17278326363E+03  0.81189006250E+02 0.  0.
         -6    2    1    2    0  502 -0.72616370137E+02 -0.12414229528E+02 -0.22079980452E+02  0.17859007704E+03  0.16118200822E+03 0.  0.
        -24    2    5    5    0    0 -0.54366833206E+02 -0.59839789221E+02  0.17359860660E+02  0.11409340753E+03  0.78609083151E+02 0.  0.
          5    1    3    3  501    0 -0.33808266207E+01 -0.26906002299E+02  0.21167402085E+03  0.21345571918E+03  0.47000000000E+01 0. -1.
        -13    1    4    4    0    0  0.17035335078E+02  0.32552438913E+02  0.40949618666E+01  0.36967994713E+02  0.00000000000E+00 0.  1.
         14    1    4    4    0    0  0.58961861680E+02  0.67677929139E+01  0.12216170889E+03  0.13581526892E+03  0.00000000000E+00 0. -1.
         -5    1    5    5    0  502 -0.18249536931E+02  0.47425559693E+02 -0.39439841112E+02  0.64496669506E+02  0.47000000000E+01 0.  1.
         11    1    6    6    0    0  0.98415259049E+01 -0.47073339747E+01 -0.19058367275E+02  0.21959872233E+02  0.00000000000E+00 0. -1.
        -12    1    6    6    0    0 -0.64208359111E+02 -0.55132455246E+02  0.36418227935E+02  0.92133535302E+02  0.00000000000E+00 0.  1.
</event>
<event>
12    1  0.1598254E-001  0.2064586E+03  0.7818608E-02  0.1144634E+00
         21   -1    0    0  501  502  0.00000000000E+00  0.00000000000E+00  0.23752611827E+03  0.23752611827E+03  0.00000000000E+00 0.  1.
         21   -1    0    0  502  503 -0.00000000000E+00 -0.00000000000E+00 -0.17846115439E+03  0.17846115439E+03  0.00000000000E+00 0.  1.
         -6    2    1    2    0  503 -0.80886852573E+02 -0.79157577396E+02  0.29578770202E+02  0.20743372844E+03  0.17130453313E+03 0.  0.
        -24    2    3    3    0    0 -0.93662514923E+02 -0.48487846932E+02 -0.27458021457E+02  0.14125869147E+03  0.89868442581E+02 0.  0.
          6    2    1    2  501    0  0.80886852573E+02  0.79157577396E+02  0.29486193677E+02  0.20855354422E+03  0.17267466581E+03 0.  0.
         24    2    5    5    0    0  0.71352889303E+02  0.11480171197E+03 -0.76705508357E+01  0.15597869807E+03  0.77458692339E+02 0.  0.
          5    1    5    5  501    0  0.95339632699E+01 -0.35644134573E+02  0.37156744513E+02  0.52574846152E+02  0.47000000000E+01 0. -1.
        -11    1    6    6    0    0  0.60086839344E+02  0.58390723751E+02 -0.36786548407E+02  0.91504945365E+02  0.00000000000E+00 0.  1.
         12    1    6    6    0    0  0.11266049959E+02  0.56410988218E+02  0.29115997571E+02  0.64473752706E+02  0.00000000000E+00 0. -1.
         -5    1    3    3    0  503  0.12775662350E+02 -0.30669730463E+02  0.57036791659E+02  0.66175036970E+02  0.47000000000E+01 0.  1.
         13    1    4    4    0    0 -0.58971697331E+02  0.19534201967E+02 -0.14767002632E+02  0.63853821337E+02  0.00000000000E+00 0. -1.
        -14    1    4    4    0    0 -0.34690817592E+02 -0.68022048899E+02 -0.12691018826E+02  0.77404870134E+02  0.00000000000E+00 0.  1.
</event>
<event>
12    1  0.1598254E-001  0.1750816E+03  0.7818608E-02  0.1173606E+00
         21   -1    0    0  503  502  0.00000000000E+00  0.00000000000E+00  0.97877675936E+02  0.97877675936E+02  0.00000000000E+00 0.  1.
         21   -1    0    0  501  503 -0.00000000000E+00 -0.00000000000E+00 -0.30763651775E+03  0.30763651775E+03  0.00000000000E+00 0.  1.
          6    2    1    2  501    0 -0.32397072517E+02  0.14443014847E+02 -0.91295734290E+02  0.19412099528E+03  0.16760035419E+03 0.  0.
         24    2    3    3    0    0 -0.33403244659E+02  0.68452218703E+02 -0.18921833826E+02  0.10368826917E+03  0.67762366913E+02 0.  0.
         -6    2    1    2    0  502  0.32397072517E+02 -0.14443014847E+02 -0.11846310753E+03  0.21139319840E+03  0.17145088364E+03 0.  0.
        -24    2    5    5    0    0 -0.40232569200E+02 -0.14572186671E+02 -0.26690142704E+02  0.94263148402E+02  0.79637737162E+02 0.  0.
          5    1    3    3  501    0  0.10061721424E+01 -0.54009203856E+02 -0.72373900464E+02  0.90432726111E+02  0.47000000000E+01 0. -1.
        -13    1    4    4    0    0 -0.74750852716E+01 -0.10953703844E+02  0.85223155870E+01  0.15763577978E+02  0.00000000000E+00 0.  1.
         14    1    4    4    0    0 -0.25928159388E+02  0.79405922547E+02 -0.27444149413E+02  0.87924691195E+02  0.00000000000E+00 0. -1.
         -5    1    5    5    0  502  0.72629641717E+02  0.12917182412E+00 -0.91772964821E+02  0.11713005000E+03  0.47000000000E+01 0.  1.
         13    1    6    6    0    0  0.93128868922E+00 -0.18315350126E+01  0.26065299883E+02  0.26146159892E+02  0.00000000000E+00 0. -1.
        -14    1    6    6    0    0 -0.41163857889E+02 -0.12740651659E+02 -0.52755442587E+02  0.68116988510E+02  0.00000000000E+00 0.  1.
</event>
<event>
12    1  0.1598254E-001  0.1745975E+03  0.7818608E-02  0.1173208E+00
         21   -1    0    0  503  502  0.00000000000E+00  0.00000000000E+00  0.13425789918E+03  0.13425789918E+03  0.00000000000E+00 0. -1.
         21   -1    0    0  501  503 -0.00000000000E+00 -0.00000000000E+00 -0.24938105688E+03  0.24938105688E+03  0.00000000000E+00 0. -1.
          6    2    1    2  501    0 -0.30060779962E+02 -0.70856092370E+01  0.34048858922E+00  0.17431591947E+03  0.17155776724E+03 0.  0.
         24    2    3    3    0    0 -0.10021835985E+02  0.18242349501E+02 -0.62662362780E+02  0.10336160988E+03  0.79522513641E+02 0.  0.
         -6    2    1    2    0  502  0.30060779962E+02  0.70856092370E+01 -0.11546364629E+03  0.20932303659E+03  0.17184418432E+03 0.  0.
        -24    2    5    5    0    0 -0.23727783900E+02 -0.41493255412E+02 -0.10066914518E+03  0.13520095516E+03  0.76552749861E+02 0.  0.
          5    1    3    3  501    0 -0.20038943976E+02 -0.25327958738E+02  0.63002851369E+02  0.70954309596E+02  0.47000000000E+01 0. -1.
        -11    1    4    4    0    0 -0.38965985826E+02  0.29364639104E+02 -0.25803151913E+02  0.55194499090E+02  0.00000000000E+00 0.  1.
         12    1    4    4    0    0  0.28944149841E+02 -0.11122289603E+02 -0.36859210867E+02  0.48167110789E+02  0.00000000000E+00 0. -1.
         -5    1    5    5    0  502  0.53788563862E+02  0.48578864649E+02 -0.14794501109E+02  0.74122081433E+02  0.47000000000E+01 0.  1.
         13    1    6    6    0    0 -0.50847934502E+02 -0.36396319246E+02 -0.66537416427E+02  0.91309541027E+02  0.00000000000E+00 0. -1.
        -14    1    6    6    0    0  0.27120150602E+02 -0.50969361660E+01 -0.34131728750E+02  0.43891414131E+02  0.00000000000E+00 0.  1.
</event>
<event>
12    1  0.1598254E-001  0.1888394E+03  0.7818608E-02  0.1159566E+00
         21   -1    0    0  501  502  0.00000000000E+00  0.00000000000E+00  0.15321149699E+03  0.15321149699E+03  0.00000000000E+00 0.  1.
         21   -1    0    0  502  503 -0.00000000000E+00 -0.00000000000E+00 -0.41869446901E+03  0.41869446901E+03  0.00000000000E+00 0.  1.
         -6    2    1    2    0  503  0.56674143664E+02 -0.54299171258E+02 -0.32349881167E+03  0.37458216882E+03  0.17175552824E+03 0.  0.
        -24    2    3    3    0    0  0.66705262861E+01 -0.16641805548E+02 -0.29358116889E+03  0.30504373130E+03  0.80872304666E+02 0.  0.
          6    2    1    2  501    0 -0.56674143664E+02  0.54299171258E+02  0.58015839658E+02  0.19732379718E+03  0.17149485334E+03 0.  0.
         24    2    5    5    0    0 -0.97819967633E+02  0.16904042862E+02  0.61678753547E+02  0.14140527256E+03  0.79603327411E+02 0.  0.
          5    1    5    5  501    0  0.41145823968E+02  0.37395128396E+02 -0.36629138895E+01  0.55918524623E+02  0.47000000000E+01 0. -1.
        -13    1    6    6    0    0 -0.92303650673E+02  0.32794944708E+02  0.25065103611E+02  0.10111247077E+03  0.00000000000E+00 0.  1.
         14    1    6    6    0    0 -0.55163169599E+01 -0.15890901846E+02  0.36613649936E+02  0.40292801788E+02  0.00000000000E+00 0. -1.
         -5    1    3    3    0  503  0.50003617378E+02 -0.37657365710E+02 -0.29917642780E+02  0.69538437519E+02  0.47000000000E+01 0.  1.
         13    1    4    4    0    0 -0.28470028888E+02  0.11461567360E+02 -0.62574532787E+02  0.69695639926E+02  0.00000000000E+00 0. -1.
        -14    1    4    4    0    0  0.35140555174E+02 -0.28103372908E+02 -0.23100663611E+03  0.23534809137E+03  0.00000000000E+00 0.  1.
</event>
<event>
12    1  0.1598254E-001  0.4687437E+03  0.7818608E-02  0.1022431E+00
         21   -1    0    0  503  502  0.00000000000E+00  0.00000000000E+00  0.14121204133E+04  0.14121204133E+04  0.00000000000E+00 0. -1.
         21   -1    0    0  501  503 -0.00000000000E+00 -0.00000000000E+00 -0.15584316894E+03  0.15584316894E+03  0.00000000000E+00 0. -1.
          6    2    1    2  501    0  0.25387547696E+03 -0.35389872717E+03  0.69154074133E+03  0.83543354650E+03  0.17327304121E+03 0.  0.
         24    2    3    3    0    0  0.19412017248E+03 -0.31489885248E+03  0.47436186623E+03  0.60678438200E+03  0.79524697089E+02 0.  0.
         -6    2    1    2    0  502 -0.25387547696E+03  0.35389872717E+03  0.56473650304E+03  0.73253003574E+03  0.16725988314E+03 0.  0.
        -24    2    5    5    0    0 -0.76474448508E+02  0.74715297123E+02  0.19717254027E+03  0.23802030962E+03  0.79661410072E+02 0.  0.
          5    1    3    3  501    0  0.59755304477E+02 -0.38999874691E+02  0.21717887510E+03  0.22864916451E+03  0.47000000000E+01 0. -1.
        -11    1    4    4    0    0  0.12431832005E+02 -0.41021443121E+02  0.23615566178E+02  0.48938780212E+02  0.00000000000E+00 0.  1.
         12    1    4    4    0    0  0.18168834047E+03 -0.27387740936E+03  0.45074630005E+03  0.55784560179E+03  0.00000000000E+00 0. -1.
         -5    1    5    5    0  502 -0.17740102845E+03  0.27918343005E+03  0.36756396277E+03  0.49450972612E+03  0.47000000000E+01 0.  1.
         11    1    6    6    0    0 -0.50353397980E+02  0.41599739405E+02  0.43038535983E+02  0.78219681579E+02  0.00000000000E+00 0. -1.
        -12    1    6    6    0    0 -0.26121050527E+02  0.33115557718E+02  0.15413400429E+03  0.15980062804E+03  0.00000000000E+00 0.  1.
</event>
<event>
12    1  0.1598254E-001  0.2056425E+03  0.7818608E-02  0.1145176E+00
         21   -1    0    0  501  502  0.00000000000E+00  0.00000000000E+00  0.35346440834E+03  0.35346440834E+03  0.00000000000E+00 0. -1.
         21   -1    0    0  502  503 -0.00000000000E+00 -0.00000000000E+00 -0.11986647090E+03  0.11986647090E+03  0.00000000000E+00 0. -1.
         -6    2    1    2    0  503 -0.29823611976E+02 -0.10891059492E+03  0.10069073782E+03  0.22847754913E+03  0.17120864539E+03 0.  0.
        -24    2    3    3    0    0 -0.44352579447E+02 -0.13546592840E+03  0.53345947605E+02  0.17208698438E+03  0.80311711522E+02 0.  0.
          6    2    1    2  501    0  0.29823611976E+02  0.10891059492E+03  0.13290719962E+03  0.24485333012E+03  0.17186583152E+03 0.  0.
         24    2    5    5    0    0  0.48770941482E+02  0.53394079137E+02  0.92680806851E+01  0.10792339712E+03  0.79574052978E+02 0.  0.
          5    1    5    5  501    0 -0.18947329506E+02  0.55516515781E+02  0.12363911893E+03  0.13692993299E+03  0.47000000000E+01 0. -1.
        -13    1    6    6    0    0  0.11819996831E+02 -0.20268580405E+02 -0.57443399614E+01  0.24156264577E+02  0.00000000000E+00 0.  1.
         14    1    6    6    0    0  0.36950944651E+02  0.73662659542E+02  0.15012420647E+02  0.83767132547E+02  0.00000000000E+00 0. -1.
         -5    1    3    3    0  503  0.14528967471E+02  0.26555333477E+02  0.47344790217E+02  0.56390564748E+02  0.47000000000E+01 0.  1.
         13    1    4    4    0    0 -0.55018762323E+02 -0.79082221894E+02  0.61251427689E+02  0.11416128688E+03  0.00000000000E+00 0. -1.
        -14    1    4    4    0    0  0.10666182876E+02 -0.56383706502E+02 -0.79054800836E+01  0.57925697504E+02  0.00000000000E+00 0.  1.
</event>
<event>
12    1  0.1598254E-001  0.1972465E+03  0.7818608E-02  0.1152124E+00
         21   -1    0    0  503  502  0.00000000000E+00  0.00000000000E+00  0.17130092211E+03  0.17130092211E+03  0.00000000000E+00 0.  1.
         21   -1    0    0  501  503 -0.00000000000E+00 -0.00000000000E+00 -0.44686729878E+03  0.44686729878E+03  0.00000000000E+00 0.  1.
          6    2    1    2  501    0 -0.83668081955E+02  0.44366446017E+02 -0.35466838622E+03  0.40582737823E+03  0.17302447014E+03 0.  0.
         24    2    3    3    0    0 -0.91773277368E+02 -0.27211550667E+02 -0.22171200879E+03  0.25453761618E+03  0.80438674032E+02 0.  0.
         -6    2    1    2    0  502  0.83668081955E+02 -0.44366446017E+02  0.79102009549E+02  0.21234084266E+03  0.17280849539E+03 0.  0.
        -24    2    5    5    0    0 -0.23645287018E+02 -0.16850235773E+02  0.46447332459E+02  0.96747940967E+02  0.79748224714E+02 0.  0.
          5    1    3    3  501    0  0.81051954128E+01  0.71577996684E+02 -0.13295637742E+03  0.15128976205E+03  0.47000000000E+01 0. -1.
        -11    1    4    4    0    0 -0.91641406996E+02  0.51881916043E+01 -0.17615015968E+03  0.19863016780E+03  0.00000000000E+00 0.  1.
         12    1    4    4    0    0 -0.13187037151E+00 -0.32399742272E+02 -0.45561849118E+02  0.55907448378E+02  0.00000000000E+00 0. -1.
         -5    1    5    5    0  502  0.10731336897E+03 -0.27516210244E+02  0.32654677090E+02  0.11559290170E+03  0.47000000000E+01 0.  1.
         11    1    6    6    0    0 -0.14702899760E+01 -0.47098932953E+02  0.22225685696E+02  0.52100406357E+02  0.00000000000E+00 0. -1.
        -12    1    6    6    0    0 -0.22174997042E+02  0.30248697179E+02  0.24221646763E+02  0.44647534610E+02  0.00000000000E+00 0.  1.
</event>
<event>
12    1  0.1598254E-001  0.2872556E+03  0.7818608E-02  0.1091987E+00
         21   -1    0    0  503  502  0.00000000000E+00  0.00000000000E+00  0.21760599145E+03  0.21760599145E+03  0.00000000000E+00 0. -1.
         21   -1    0    0  501  503 -0.00000000000E+00 -0.00000000000E+00 -0.38159933813E+03  0.38159933813E+03  0.00000000000E+00 0.  1.
          6    2    1    2  501    0 -0.90664723762E+02 -0.20910681773E+03 -0.11420303337E+03  0.30912474992E+03  0.17484285753E+03 0.  0.
         24    2    3    3    0    0 -0.11327771571E+02 -0.17659242334E+03 -0.46765984842E+02  0.19993966239E+03  0.80471167938E+02 0.  0.
         -6    2    1    2    0  502  0.90664723762E+02  0.20910681773E+03 -0.49790313312E+02  0.29008057966E+03  0.17240044676E+03 0.  0.
        -24    2    5    5    0    0 -0.18234213583E+02  0.85433440264E+02 -0.38995322793E+02  0.12487554140E+03  0.80261487520E+02 0.  0.
          5    1    3    3  501    0 -0.79336952191E+02 -0.32514394387E+02 -0.67437048525E+02  0.10918508753E+03  0.47000000000E+01 0. -1.
        -13    1    4    4    0    0  0.18337844551E+02 -0.10439139427E+03 -0.58408696962E+02  0.12101824499E+03  0.00000000000E+00 0.  1.
         14    1    4    4    0    0 -0.29665616122E+02 -0.72201029073E+02  0.11642712120E+02  0.78921417401E+02  0.00000000000E+00 0. -1.
         -5    1    5    5    0  502  0.10889893734E+03  0.12367337746E+03 -0.10794990519E+02  0.16520503827E+03  0.47000000000E+01 0.  1.
         13    1    6    6    0    0 -0.50034394897E+01  0.57319142675E+02  0.17722101293E+02  0.60204579543E+02  0.00000000000E+00 0. -1.
        -14    1    6    6    0    0 -0.13230774093E+02  0.28114297589E+02 -0.56717424086E+02  0.64670961852E+02  0.00000000000E+00 0.  1.
</event>
<event>
12    1  0.1598254E-001  0.2464001E+03  0.7818608E-02  0.1115648E+00
         21   -1    0    0  501  502  0.00000000000E+00  0.00000000000E+00  0.99347000206E+02  0.99347000206E+02  0.00000000000E+00 0. -1.
         21   -1    0    0  502  503 -0.00000000000E+00 -0.00000000000E+00 -0.62865757319E+03  0.62865757319E+03  0.00000000000E+00 0.  1.
         -6    2    1    2    0  503 -0.13219388515E+03 -0.11557868183E+03 -0.32682430140E+03  0.40930079658E+03  0.17285648129E+03 0.  0.
        -24    2    3    3    0    0 -0.32112298986E+02 -0.62937391147E+02 -0.67806668937E+02  0.12663552934E+03  0.80290086485E+02 0.  0.
          6    2    1    2  501    0  0.13219388515E+03  0.11557868183E+03 -0.20248627158E+03  0.31870377682E+03  0.17244637489E+03 0.  0.
         24    2    5    5    0    0  0.57560917088E+02 -0.87997172405E+01 -0.70474541891E+02  0.12251699629E+03  0.81566286700E+02 0.  0.
          5    1    5    5  501    0  0.74632968065E+02  0.12437839907E+03 -0.13201172969E+03  0.19618678053E+03  0.47000000000E+01 0. -1.
        -11    1    6    6    0    0  0.38722587121E+02  0.25466993608E+02 -0.69332606610E+02  0.83396743679E+02  0.00000000000E+00 0.  1.
         12    1    6    6    0    0  0.18838329967E+02 -0.34266710849E+02 -0.11419352809E+01  0.39120252613E+02  0.00000000000E+00 0. -1.
         -5    1    3    3    0  503 -0.10008158617E+03 -0.52641290685E+02 -0.25901763247E+03  0.28266526724E+03  0.47000000000E+01 0.  1.
         13    1    4    4    0    0  0.68739923845E+01 -0.56782671178E+02 -0.65701458272E+02  0.87110304421E+02  0.00000000000E+00 0. -1.
        -14    1    4    4    0    0 -0.38986291371E+02 -0.61547199694E+01 -0.21052106651E+01  0.39525224916E+02  0.00000000000E+00 0.  1.
</event>
<event>
12    1  0.1598254E-001  0.1761092E+03  0.7818608E-02  0.1171861E+00
         21   -1    0    0  503  502  0.00000000000E+00  0.00000000000E+00  0.28180569844E+03  0.28180569844E+03  0.00000000000E+00 0. -1.
         21   -1    0    0  501  503 -0.00000000000E+00 -0.00000000000E+00 -0.31347901353E+03  0.31347901353E+03  0.00000000000E+00 0. -1.
          6    2    1    2  501    0  0.34015863190E+02 -0.21292845524E+02 -0.25596929037E+03  0.31070037604E+03  0.17147589288E+03 0.  0.
         24    2    3    3    0    0  0.65015999014E+02  0.37709347703E+02 -0.14091265593E+03  0.17765006091E+03  0.77808049128E+02 0.  0.
         -6    2    1    2    0  502 -0.34015863190E+02  0.21292845524E+02  0.22429597527E+03  0.28458433593E+03  0.17049661438E+03 0.  0.
        -24    2    5    5    0    0 -0.67189904852E+02 -0.81189988032E+01  0.21485697276E+03  0.23901287123E+03  0.79895133851E+02 0.  0.
          5    1    3    3  501    0 -0.31000135824E+02 -0.59002193227E+02 -0.11505663444E+03  0.13305031513E+03  0.47000000000E+01 0. -1.
        -11    1    4    4    0    0  0.35021616287E+02  0.32880949570E+02 -0.18424133563E+02  0.51450161803E+02  0.00000000000E+00 0.  1.
         12    1    4    4    0    0  0.29994382727E+02  0.48283981325E+01 -0.12248852237E+03  0.12619989911E+03  0.00000000000E+00 0. -1.
         -5    1    5    5    0  502  0.33174041662E+02  0.29411844327E+02  0.94390025146E+01  0.45571464705E+02  0.47000000000E+01 0.  1.
         13    1    6    6    0    0  0.46866597982E+01 -0.28148251622E+02  0.79289063207E+02  0.84267694840E+02  0.00000000000E+00 0. -1.
        -14    1    6    6    0    0 -0.71876564650E+02  0.20029252819E+02  0.13556790955E+03  0.15474517639E+03  0.00000000000E+00 0.  1.
</event>
<event>
12    1  0.1598254E-001  0.1775380E+03  0.7818608E-02  0.1170258E+00
         21   -1    0    0  503  502  0.00000000000E+00  0.00000000000E+00  0.94990532902E+03  0.94990532902E+03  0.00000000000E+00 0.  1.
         21   -1    0    0  501  503 -0.00000000000E+00 -0.00000000000E+00 -0.33955964783E+02  0.33955964783E+02  0.00000000000E+00 0. -1.
          6    2    1    2  501    0  0.50516062454E+01 -0.41200857200E+02  0.53432091943E+03  0.56304403167E+03  0.17261722772E+03 0.  0.
         24    2    3    3    0    0 -0.20287205486E+02  0.31265119878E+01  0.11857565987E+03  0.14414883967E+03  0.79355876161E+02 0.  0.
         -6    2    1    2    0  502 -0.50516062454E+01  0.41200857200E+02  0.38162844481E+03  0.42081726213E+03  0.17240611607E+03 0.  0.
        -24    2    5    5    0    0 -0.41927688018E+02  0.80207524127E+02  0.21095932509E+03  0.24184406889E+03  0.76115299815E+02 0.  0.
          5    1    3    3  501    0  0.25338811732E+02 -0.44327369187E+02  0.41574525956E+03  0.41889519200E+03  0.47000000000E+01 0. -1.
        -13    1    4    4    0    0  0.28175203486E+02 -0.11159217198E+02  0.56469328614E+02  0.64087091477E+02  0.00000000000E+00 0.  1.
         14    1    4    4    0    0 -0.48462408972E+02  0.14285729186E+02  0.62106331256E+02  0.80061748194E+02  0.00000000000E+00 0. -1.
         -5    1    5    5    0  502  0.36876081772E+02 -0.39006666927E+02  0.17066911973E+03  0.17897319324E+03  0.47000000000E+01 0.  1.
         13    1    6    6    0    0 -0.72773401926E+01  0.24071861411E+02  0.50824300454E+01  0.25656291377E+02  0.00000000000E+00 0. -1.
        -14    1    6    6    0    0 -0.34650347825E+02  0.56135662716E+02  0.20587689504E+03  0.21618777751E+03  0.00000000000E+00 0.  1.
</event>
<event>
12    1  0.1598254E-001  0.1801414E+03  0.7818608E-02  0.1167675E+00
         21   -1    0    0  503  502  0.00000000000E+00  0.00000000000E+00  0.21406084639E+02  0.21406084639E+02  0.00000000000E+00 0.  1.
         21   -1    0    0  501  503 -0.00000000000E+00 -0.00000000000E+00 -0.18023413044E+04  0.18023413044E+04  0.00000000000E+00 0. -1.
          6    2    1    2  501    0  0.27073093684E+02  0.45212571855E+02 -0.52687042715E+03  0.55681539460E+03  0.17226087076E+03 0.  0.
         24    2    3    3    0    0 -0.39470956852E+02  0.44206689833E+02 -0.41447240386E+03  0.42610759796E+03  0.79171482365E+02 0.  0.
         -6    2    1    2    0  502 -0.27073093684E+02 -0.45212571855E+02 -0.12540647926E+04  0.12669319945E+04  0.17222382364E+03 0.  0.
        -24    2    5    5    0    0  0.42298656783E+02 -0.84685081047E+01 -0.44895710521E+03  0.45799253793E+03  0.79585114769E+02 0.  0.
          5    1    3    3  501    0  0.66544050536E+02  0.10058820216E+01 -0.11239802329E+03  0.13070779663E+03  0.47000000000E+01 0. -1.
        -13    1    4    4    0    0 -0.52990147143E+02  0.51668874034E+02 -0.24504350770E+03  0.25597646163E+03  0.00000000000E+00 0.  1.
         14    1    4    4    0    0  0.13519190291E+02 -0.74621842002E+01 -0.16942889616E+03  0.17013113634E+03  0.00000000000E+00 0. -1.
         -5    1    5    5    0  502 -0.69371750467E+02 -0.36744063750E+02 -0.80510768742E+03  0.80893945653E+03  0.47000000000E+01 0.  1.
         11    1    6    6    0    0  0.15945075106E+02 -0.42667839998E+02 -0.27566472547E+03  0.27940263216E+03  0.00000000000E+00 0. -1.
        -12    1    6    6    0    0  0.26353581677E+02  0.34199331894E+02 -0.17329237974E+03  0.17858990577E+03  0.00000000000E+00 0.  1.
</event>
<event>
12    1  0.1598254E-001  0.1732324E+03  0.7818608E-02  0.1174707E+00
         21   -1    0    0  503  502  0.00000000000E+00  0.00000000000E+00  0.47898586236E+03  0.47898586236E+03  0.00000000000E+00 0. -1.
         21   -1    0    0  501  503 -0.00000000000E+00 -0.00000000000E+00 -0.13095688923E+03  0.13095688923E+03  0.00000000000E+00 0. -1.
          6    2    1    2  501    0 -0.20843702369E+02  0.21376549967E+01 -0.46844389180E+02  0.17874159031E+03  0.17121661664E+03 0.  0.
         24    2    3    3    0    0  0.50127079351E+02  0.17766464859E+02 -0.69324967988E+01  0.95698464716E+02  0.79257588149E+02 0.  0.
         -6    2    1    2    0  502  0.20843702369E+02 -0.21376549967E+01  0.39487336231E+03  0.43120116128E+03  0.17196057610E+03 0.  0.
        -24    2    5    5    0    0 -0.28395999615E+02  0.43470453706E+02  0.16847316287E+03  0.19501524269E+03  0.83377006047E+02 0.  0.
          5    1    3    3  501    0 -0.70970781721E+02 -0.15628809862E+02 -0.39911892381E+02  0.83043125599E+02  0.47000000000E+01 0. -1.
        -11    1    4    4    0    0  0.11496203644E+02 -0.15378720090E+02  0.28008892769E+02  0.33958295068E+02  0.00000000000E+00 0.  1.
         12    1    4    4    0    0  0.38630875707E+02  0.33145184949E+02 -0.34941389568E+02  0.61740169648E+02  0.00000000000E+00 0. -1.
         -5    1    5    5    0  502  0.49239701984E+02 -0.45608108703E+02  0.22640019944E+03  0.23618591859E+03  0.47000000000E+01 0.  1.
         13    1    6    6    0    0 -0.47947695863E+02  0.12364115863E+02  0.14010391002E+03  0.14859663018E+03  0.00000000000E+00 0. -1.
        -14    1    6    6    0    0  0.19551696249E+02  0.31106337843E+02  0.28369252849E+02  0.46418612510E+02  0.00000000000E+00 0.  1.
</event>
<event>
12    1  0.1598254E-001  0.2736832E+03  0.7818608E-02  0.1099783E+00
         21   -1    0    0  503  502  0.00000000000E+00  0.00000000000E+00  0.34205448338E+03  0.34205448338E+03  0.00000000000E+00 0. -1.
         21   -1    0    0  501  503 -0.00000000000E+00 -0.00000000000E+00 -0.19312246093E+04  0.19312246093E+04  0.00000000000E+00 0. -1.
          6    2    1    2  501    0 -0.29804629979E+02 -0.21011837554E+03 -0.18652001156E+04  0.18845696533E+04  0.16611218793E+03 0.  0.
         24    2    3    3    0    0 -0.28041255900E+02 -0.63257452946E+02 -0.47920824613E+03  0.49080970537E+03  0.80410237748E+02 0.  0.
         -6    2    1    2    0  502  0.29804629979E+02  0.21011837554E+03  0.27602998965E+03  0.38870943946E+03  0.17281326753E+03 0.  0.
        -24    2    5    5    0    0 -0.35154946967E+02  0.14173297610E+03  0.11678725339E+03  0.20356990143E+03  0.80481894867E+02 0.  0.
          5    1    3    3  501    0 -0.17633740788E+01 -0.14686092259E+03 -0.13859918695E+04  0.13937599479E+04  0.47000000000E+01 0. -1.
        -11    1    4    4    0    0  0.25125053480E+02 -0.30279819851E+02 -0.12272455506E+03  0.12887766376E+03  0.00000000000E+00 0.  1.
         12    1    4    4    0    0 -0.53166309380E+02 -0.32977633095E+02 -0.35648369108E+03  0.36193204161E+03  0.00000000000E+00 0. -1.
         -5    1    5    5    0  502  0.64959576945E+02  0.68385399438E+02  0.15924273626E+03  0.18513953803E+03  0.47000000000E+01 0.  1.
         13    1    6    6    0    0 -0.38471114196E+01  0.11889968311E+03  0.11392533353E+03  0.16471465184E+03  0.00000000000E+00 0. -1.
        -14    1    6    6    0    0 -0.31307835547E+02  0.22833292989E+02  0.28619198651E+01  0.38855249589E+02  0.00000000000E+00 0.  1.
</event>
<event>
12    1  0.1598254E-001  0.2409622E+03  0.7818608E-02  0.1119615E+00
         21   -1    0    0  503  502  0.00000000000E+00  0.00000000000E+00  0.61731095593E+02  0.61731095593E+02  0.00000000000E+00 0. -1.
         21   -1    0    0  501  503 -0.00000000000E+00 -0.00000000000E+00 -0.10459378349E+04  0.10459378349E+04  0.00000000000E+00 0. -1.
          6    2    1    2  501    0  0.36011758031E+02  0.16264857314E+03 -0.30501927708E+03  0.38700367223E+03  0.17024593347E+03 0.  0.
         24    2    3    3    0    0  0.29342068318E+02  0.85357431828E+02 -0.26917490945E+03  0.30141562412E+03  0.10123931277E+03 0.  0.
         -6    2    1    2    0  502 -0.36011758031E+02 -0.16264857314E+03 -0.67918746226E+03  0.72066525830E+03  0.17410169605E+03 0.  0.
        -24    2    5    5    0    0 -0.90546928238E+02 -0.12076796403E+03 -0.45556275025E+03  0.48666061725E+03  0.80730970646E+02 0.  0.
          5    1    3    3  501    0  0.66696897128E+01  0.77291141315E+02 -0.35844367634E+02  0.85588048102E+02  0.47000000000E+01 0. -1.
        -11    1    4    4    0    0  0.23467868925E+02  0.95055079030E+02 -0.27253633237E+03  0.28958981574E+03  0.00000000000E+00 0.  1.
         12    1    4    4    0    0  0.58741993930E+01 -0.96976472025E+01  0.33614229245E+01  0.11825808380E+02  0.00000000000E+00 0. -1.
         -5    1    5    5    0  502  0.54535170207E+02 -0.41880609117E+02 -0.22362471201E+03  0.23400464105E+03  0.47000000000E+01 0.  1.
         11    1    6    6    0    0 -0.86773762290E+02 -0.65217115788E+02 -0.36054539996E+03  0.37653146409E+03  0.00000000000E+00 0. -1.
        -12    1    6    6    0    0 -0.37731659483E+01 -0.55550848238E+02 -0.95017350282E+02  0.11012915316E+03  0.00000000000E+00 0.  1.
</event>
<event>
12    1  0.1598254E-001  0.2450502E+03  0.7818608E-02  0.1116576E+00
         21   -1    0    0  501  502  0.00000000000E+00  0.00000000000E+00  0.22712778791E+03  0.22712778791E+03  0.00000000000E+00 0. -1.
         21   -1    0    0  502  503 -0.00000000000E+00 -0.00000000000E+00 -0.26470697579E+03  0.26470697579E+03  0.00000000000E+00 0.  1.
         -6    2    1    2    0  503 -0.40679643599E+01 -0.17280068393E+03 -0.36365103360E+01  0.24444495022E+03  0.17281054591E+03 0.  0.
        -24    2    3    3    0    0 -0.49779617068E+02 -0.37380700400E+02  0.55165247242E+01  0.10114807243E+03  0.79530959214E+02 0.  0.
          6    2    1    2  501    0  0.40679643599E+01  0.17280068393E+03 -0.33942677541E+02  0.24738981348E+03  0.17370374134E+03 0.  0.
         24    2    5    5    0    0 -0.24635240312E+02  0.27980553777E+02  0.14027303506E+02  0.92083815086E+02  0.83023233509E+02 0.  0.
          5    1    5    5  501    0  0.28703204672E+02  0.14482013015E+03 -0.47969981047E+02  0.15530599840E+03  0.47000000000E+01 0. -1.
        -13    1    6    6    0    0 -0.50243274024E+02  0.37722178995E+02  0.41699807422E+01  0.62966166408E+02  0.00000000000E+00 0.  1.
         14    1    6    6    0    0  0.25608033711E+02 -0.97416252181E+01  0.98573227640E+01  0.29117648678E+02  0.00000000000E+00 0. -1.
         -5    1    3    3    0  503  0.45711652708E+02 -0.13541998353E+03 -0.91530350601E+01  0.14329687779E+03  0.47000000000E+01 0.  1.
         11    1    4    4    0    0 -0.37550356006E+02 -0.48066406511E+02  0.32906526474E+02  0.69305469882E+02  0.00000000000E+00 0. -1.
        -12    1    4    4    0    0 -0.12229261061E+02  0.10685706110E+02 -0.27390001750E+02  0.31842602548E+02  0.00000000000E+00 0.  1.
</event>
<event>
12    1  0.1598254E-001  0.2283119E+03  0.7818608E-02  0.1128172E+00
         21   -1    0    0  503  502  0.00000000000E+00  0.00000000000E+00  0.16476191462E+03  0.16476191462E+03  0.00000000000E+00 0.  1.
         21   -1    0    0  501  503 -0.00000000000E+00 -0.00000000000E+00 -0.41696651068E+03  0.41696651068E+03  0.00000000000E+00 0. -1.
          6    2    1    2  501    0 -0.58988071069E+02  0.13707789823E+03 -0.27121107761E+03  0.35451624706E+03  0.17278998263E+03 0.  0.
         24    2    3    3    0    0 -0.73781542756E+02  0.16332922933E+03 -0.24542402524E+03  0.31457827942E+03  0.81279693131E+02 0.  0.
         -6    2    1    2    0  502  0.58988071069E+02 -0.13707789823E+03  0.19006481543E+02  0.22721217824E+03  0.17027678904E+03 0.  0.
        -24    2    5    5    0    0  0.59080989695E+02 -0.16640677766E+03  0.27016401368E+02  0.19644790320E+03  0.81731962744E+02 0.  0.
          5    1    3    3  501    0  0.14793471686E+02 -0.26251331098E+02 -0.25787052368E+02  0.39937967634E+02  0.47000000000E+01 0. -1.
        -13    1    4    4    0    0 -0.17546859326E+02  0.47523354910E+02 -0.18981113924E+02  0.54098467815E+02  0.00000000000E+00 0.  1.
         14    1    4    4    0    0 -0.56234683429E+02  0.11580587442E+03 -0.22644291132E+03  0.26047981161E+03  0.00000000000E+00 0. -1.
         -5    1    5    5    0  502 -0.92918625969E-01  0.29328879435E+02 -0.80099198248E+01  0.30764275035E+02  0.47000000000E+01 0.  1.
         13    1    6    6    0    0  0.32176010126E+02 -0.65444146136E+02 -0.28297263143E+02  0.78223826245E+02  0.00000000000E+00 0. -1.
        -14    1    6    6    0    0  0.26904979570E+02 -0.10096263153E+03  0.55313664511E+02  0.11822407696E+03  0.00000000000E+00 0.  1.
</event>
<event>
12    1  0.1598254E-001  0.2029080E+03  0.7818608E-02  0.1147519E+00
         21   -1    0    0  501  502  0.00000000000E+00  0.00000000000E+00  0.24606263002E+03  0.24606263002E+03  0.00000000000E+00 0.  1.
         21   -1    0    0  502  503 -0.00000000000E+00 -0.00000000000E+00 -0.30620303635E+03  0.30620303635E+03  0.00000000000E+00 0.  1.
         -6    2    1    2    0  503 -0.90398699563E+02 -0.55425139630E+02 -0.21655347848E+03  0.29606904784E+03  0.17180687140E+03 0.  0.
        -24    2    3    3    0    0 -0.30363121705E+02 -0.94610593549E+02 -0.11403616153E+03  0.17088254424E+03  0.79520527032E+02 0.  0.
          6    2    1    2  501    0  0.90398699563E+02  0.55425139630E+02  0.15641307215E+03  0.25619661853E+03  0.17299649483E+03 0.  0.
         24    2    5    5    0    0  0.11972064198E+03  0.69989081314E+02  0.93999983294E+02  0.18556115743E+03  0.79783724333E+02 0.  0.
          5    1    5    5  501    0 -0.29321942417E+02 -0.14563941684E+02  0.62413088853E+02  0.70635461099E+02  0.47000000000E+01 0. -1.
        -11    1    6    6    0    0  0.89138532013E+02  0.87355884720E+02  0.72295167808E+02  0.14423355980E+03  0.00000000000E+00 0.  1.
         12    1    6    6    0    0  0.30582109967E+02 -0.17366803405E+02  0.21704815486E+02  0.41327597629E+02  0.00000000000E+00 0. -1.
         -5    1    3    3    0  503 -0.60035577858E+02  0.39185453919E+02 -0.10251731695E+03  0.12518650360E+03  0.47000000000E+01 0.  1.
         11    1    4    4    0    0 -0.34369721317E+02 -0.64867608756E+02 -0.26011757026E+02  0.77882577722E+02  0.00000000000E+00 0. -1.
        -12    1    4    4    0    0  0.40065996120E+01 -0.29742984794E+02 -0.88024404502E+02  0.92999966521E+02  0.00000000000E+00 0.  1.
</event>
<event>
12    1  0.1598254E-001  0.2718384E+03  0.7818608E-02  0.1101067E+00
         21   -1    0    0  501  502  0.00000000000E+00  0.00000000000E+00  0.14275920319E+03  0.14275920319E+03  0.00000000000E+00 0. -1.
         21   -1    0    0  502  503 -0.00000000000E+00 -0.00000000000E+00 -0.67596930396E+03  0.67596930396E+03  0.00000000000E+00 0.  1.
         -6    2    1    2    0  503  0.19909213389E+03 -0.40551148998E+02 -0.46934096422E+03  0.53948782955E+03  0.17170935934E+03 0.  0.
        -24    2    3    3    0    0  0.14076034957E+03  0.38910103294E+02 -0.29897887699E+03  0.34260710820E+03  0.81632037536E+02 0.  0.
          6    2    1    2  501    0 -0.19909213389E+03  0.40551148998E+02 -0.63869136553E+02  0.27924067760E+03  0.18059351030E+03 0.  0.
         24    2    5    5    0    0 -0.16296349525E+03  0.94840707916E+02 -0.34508631458E+02  0.20756945607E+03  0.79639015468E+02 0.  0.
          5    1    5    5  501    0 -0.36128638638E+02 -0.54289558918E+02 -0.29360505095E+02  0.71671221538E+02  0.47000000000E+01 0. -1.
        -13    1    6    6    0    0  0.58313045254E+01  0.14304672570E+02  0.53464717067E+01  0.16346636642E+02  0.00000000000E+00 0.  1.
         14    1    6    6    0    0 -0.16879479977E+03  0.80536035346E+02 -0.39855103165E+02  0.19122281942E+03  0.00000000000E+00 0. -1.
         -5    1    3    3    0  503  0.58331784316E+02 -0.79461252292E+02 -0.17036208723E+03  0.19688072136E+03  0.47000000000E+01 0.  1.
         13    1    4    4    0    0  0.51172632956E+02 -0.21404808243E+02 -0.68994566176E+02  0.88527139011E+02  0.00000000000E+00 0. -1.
        -14    1    4    4    0    0  0.89587716615E+02  0.60314911537E+02 -0.22998431081E+03  0.25407996919E+03  0.00000000000E+00 0.  1.
</event>
<event>
12    1  0.1598254E-001  0.1820248E+03  0.7818608E-02  0.1167332E+00
         21   -1    0    0  503  502  0.00000000000E+00  0.00000000000E+00  0.22831027206E+04  0.22831027206E+04  0.00000000000E+00 0.  1.
         21   -1    0    0  501  503 -0.00000000000E+00 -0.00000000000E+00 -0.15024902696E+02  0.15024902696E+02  0.00000000000E+00 0.  1.
          6    2    1    2  501    0  0.41058058527E+02  0.64937706882E+01  0.82076491894E+03  0.83941323815E+03  0.17097250943E+03 0.  0.
         24    2    3    3    0    0  0.63308372317E+02 -0.28422878723E+02  0.75074276554E+03  0.75793047410E+03  0.77640798003E+02 0.  0.
         -6    2    1    2    0  502 -0.41058058527E+02 -0.64937706882E+01  0.14473128990E+04  0.14587143852E+04  0.17721483210E+03 0.  0.
        -24    2    5    5    0    0 -0.70381677820E+02 -0.13827949639E+02  0.13904914663E+04  0.13941819899E+04  0.71638748678E+02 0.  0.
          5    1    3    3  501    0 -0.22250313790E+02  0.34916649411E+02  0.70022153401E+02  0.81482764047E+02  0.47000000000E+01 0. -1.
        -11    1    4    4    0    0  0.52748282034E+02  0.98446982321E+01  0.25411244947E+03  0.25971606866E+03  0.00000000000E+00 0.  1.
         12    1    4    4    0    0  0.10560090283E+02 -0.38267576955E+02  0.49663031607E+03  0.49821440544E+03  0.00000000000E+00 0. -1.
         -5    1    5    5    0  502  0.29323619293E+02  0.73341789504E+01  0.56821432716E+02  0.64532395316E+02  0.47000000000E+01 0.  1.
         11    1    6    6    0    0  0.71269903861E+01  0.15995652834E+02  0.31670268724E+03  0.31718645464E+03  0.00000000000E+00 0. -1.
        -12    1    6    6    0    0 -0.77508668206E+02 -0.29823602473E+02  0.10737887791E+04  0.10769955352E+04  0.00000000000E+00 0.  1.
</event>
<event>
12    1  0.1598254E-001  0.1923508E+03  0.7818608E-02  0.1156701E+00
         21   -1    0    0  503  502  0.00000000000E+00  0.00000000000E+00  0.53620737513E+03  0.53620737513E+03  0.00000000000E+00 0. -1.
         21   -1    0    0  501  503 -0.00000000000E+00 -0.00000000000E+00 -0.70289526945E+03  0.70289526945E+03  0.00000000000E+00 0. -1.
          6    2    1    2  501    0  0.49828532895E+02  0.66641844542E+02 -0.67192307164E+03  0.69849056301E+03  0.17171032082E+03 0.  0.
         24    2    3    3    0    0  0.30987645914E+02  0.27713416349E+01 -0.15565017888E+03  0.17791952082E+03  0.80377006479E+02 0.  0.
         -6    2    1    2    0  502 -0.49828532895E+02 -0.66641844542E+02  0.50523517732E+03  0.54061208158E+03  0.17342093359E+03 0.  0.
        -24    2    5    5    0    0  0.18860710173E+01  0.24591903719E+02  0.22327317889E+03  0.23974224986E+03  0.83768221673E+02 0.  0.
          5    1    3    3  501    0  0.18840886981E+02  0.63870502908E+02 -0.51627289276E+03  0.52057104219E+03  0.47000000000E+01 0. -1.
        -13    1    4    4    0    0 -0.72730936673E+01 -0.24077508481E+02 -0.14062793995E+02  0.28816427278E+02  0.00000000000E+00 0.  1.
         14    1    4    4    0    0  0.38260739581E+02  0.26848850116E+02 -0.14158738488E+03  0.14910309354E+03  0.00000000000E+00 0. -1.
         -5    1    5    5    0  502 -0.51714603912E+02 -0.91233748261E+02  0.28196199843E+03  0.30086983172E+03  0.47000000000E+01 0.  1.
         11    1    6    6    0    0  0.13068895721E+02 -0.20398542343E+02  0.20495469641E+02  0.31732646295E+02  0.00000000000E+00 0. -1.
        -12    1    6    6    0    0 -0.11182824704E+02  0.44990446062E+02  0.20277770925E+03  0.20800960356E+03  0.00000000000E+00 0.  1.
</event>
<event>
12    1  0.1598254E-001  0.1800320E+03  0.7818608E-02  0.1169187E+00
         21   -1    0    0  501  502  0.00000000000E+00  0.00000000000E+00  0.41806667561E+03  0.41806667561E+03  0.00000000000E+00 0. -1.
         21   -1    0    0  502  503 -0.00000000000E+00 -0.00000000000E+00 -0.97943992560E+02  0.97943992560E+02  0.00000000000E+00 0. -1.
         -6    2    1    2    0  503  0.24085994760E+02 -0.25589295416E+02  0.33403339365E+02  0.17745562721E+03  0.17070374736E+03 0.  0.
        -24    2    3    3    0    0  0.54940897469E+01  0.48898294863E+02  0.79128973099E+01  0.96425307733E+02  0.82546942796E+02 0.  0.
          6    2    1    2  501    0 -0.24085994760E+02  0.25589295416E+02  0.28671934369E+03  0.33855504097E+03  0.17656892857E+03 0.  0.
         24    2    5    5    0    0  0.65012630729E+01  0.38437945853E+01  0.40044545617E+02  0.88997446109E+02  0.79119773773E+02 0.  0.
          5    1    5    5  501    0 -0.30587257833E+02  0.21745500831E+02  0.24667479807E+03  0.24955759486E+03  0.47000000000E+01 0. -1.
        -13    1    6    6    0    0 -0.34362404228E+02 -0.20894948682E+00  0.44428109359E+01  0.34649055589E+02  0.00000000000E+00 0.  1.
         14    1    6    6    0    0  0.40863667301E+02  0.40527440721E+01  0.35601734681E+02  0.54348390520E+02  0.00000000000E+00 0. -1.
         -5    1    3    3    0  503  0.18591905014E+02 -0.74487590279E+02  0.25490442055E+02  0.81030319472E+02  0.47000000000E+01 0.  1.
         11    1    4    4    0    0  0.36327263553E+02  0.32635066032E+02  0.27900772760E+02  0.56242072622E+02  0.00000000000E+00 0. -1.
        -12    1    4    4    0    0 -0.30833173806E+02  0.16263228831E+02 -0.19987875450E+02  0.40183235111E+02  0.00000000000E+00 0.  1.
</event>
<event>
12    1  0.1598254E-001  0.3329786E+03  0.7818608E-02  0.1070000E+00
         21   -1    0    0  503  502  0.00000000000E+00  0.00000000000E+00  0.35736463925E+03  0.35736463925E+03  0.00000000000E+00 0. -1.
         21   -1    0    0  501  503 -0.00000000000E+00 -0.00000000000E+00 -0.32040036675E+03  0.32040036675E+03  0.00000000000E+00 0.  1.
          6    2    1    2  501    0 -0.28145474471E+03  0.37347775911E+02 -0.46003727766E+02  0.33614151082E+03  0.17396304964E+03 0.  0.
         24    2    3    3    0    0 -0.15851876585E+03  0.43658885874E+02  0.38987021920E+02  0.18647988401E+03  0.78869904392E+02 0.  0.
         -6    2    1    2    0  502  0.28145474471E+03 -0.37347775911E+02  0.82968000272E+02  0.34162349518E+03  0.17091311741E+03 0.  0.
        -24    2    5    5    0    0  0.19648642956E+03 -0.54646586515E+02  0.11951714111E+03  0.24740676033E+03  0.73024596001E+02 0.  0.
          5    1    3    3  501    0 -0.12293597886E+03 -0.63111099637E+01 -0.84990749686E+02  0.14966162681E+03  0.47000000000E+01 0. -1.
        -11    1    4    4    0    0 -0.12740605929E+02  0.31388906604E+02 -0.37208996580E+01  0.34079782738E+02  0.00000000000E+00 0.  1.
         12    1    4    4    0    0 -0.14577815992E+03  0.12269979270E+02  0.42707921578E+02  0.15240010127E+03  0.00000000000E+00 0. -1.
         -5    1    5    5    0  502  0.84968315156E+02  0.17298810604E+02 -0.36549140843E+02  0.94216734847E+02  0.47000000000E+01 0.  1.
         13    1    6    6    0    0  0.17529248391E+03 -0.71674784312E+02  0.10636272796E+03  0.21720441874E+03  0.00000000000E+00 0. -1.
        -14    1    6    6    0    0  0.21193945652E+02  0.17028197797E+02  0.13154413152E+02  0.30202341596E+02  0.00000000000E+00 0.  1.
</event>
<event>
12    1  0.1598254E-001  0.1741829E+03  0.7818608E-02  0.1174077E+00
         21   -1    0    0  501  502  0.00000000000E+00  0.00000000000E+00  0.47851353075E+02  0.47851353075E+02  0.00000000000E+00 0. -1.
         21   -1    0    0  502  503 -0.00000000000E+00 -0.00000000000E+00 -0.12816138866E+04  0.12816138866E+04  0.00000000000E+00 0. -1.
         -6    2    1    2    0  503 -0.25978898937E+02  0.22904371162E+01 -0.10903124096E+04  0.11038158959E+04  0.17014180057E+03 0.  0.
        -24    2    3    3    0    0  0.18974270589E+02 -0.53666718981E+02 -0.72864662882E+03  0.73506636338E+03  0.78463426004E+02 0.  0.
          6    2    1    2  501    0  0.25978898937E+02 -0.22904371162E+01 -0.14345012390E+03  0.22564934372E+03  0.17221945006E+03 0.  0.
         24    2    5    5    0    0  0.66711465076E+02 -0.24116029304E+02 -0.14964320379E+03  0.17878845750E+03  0.67381166895E+02 0.  0.
          5    1    5    5  501    0 -0.40732566139E+02  0.21825592187E+02  0.61930798872E+01  0.46860886217E+02  0.47000000000E+01 0. -1.
        -13    1    6    6    0    0  0.21856288986E+02 -0.42712924027E+02 -0.59861155894E+02  0.76716681577E+02  0.00000000000E+00 0.  1.
         14    1    6    6    0    0  0.44855176090E+02  0.18596894723E+02 -0.89782047898E+02  0.10207177592E+03  0.00000000000E+00 0. -1.
         -5    1    3    3    0  503 -0.44953169526E+02  0.55957156097E+02 -0.36166578077E+03  0.36874953254E+03  0.47000000000E+01 0.  1.
         13    1    4    4    0    0 -0.21372115912E+02 -0.27649394796E+02 -0.51073368914E+03  0.51192788320E+03  0.00000000000E+00 0. -1.
        -14    1    4    4    0    0  0.40346386501E+02 -0.26017324184E+02 -0.21791293967E+03  0.22313848018E+03  0.00000000000E+00 0.  1.
</event>
<event>
12    1  0.1598254E-001  0.1844195E+03  0.7818608E-02  0.1163739E+00
         21   -1    0    0  503  502  0.00000000000E+00  0.00000000000E+00  0.17586834693E+02  0.17586834693E+02  0.00000000000E+00 0.  1.
         21   -1    0    0  501  503 -0.00000000000E+00 -0.00000000000E+00 -0.20201075658E+04  0.20201075658E+04  0.00000000000E+00 0.  1.
          6    2    1    2  501    0  0.56386845958E+02 -0.37051920622E+02 -0.78454333873E+03  0.80592728310E+03  0.17163395375E+03 0.  0.
         24    2    3    3    0    0  0.11040784874E+02 -0.62719562068E+02 -0.69347925170E+03  0.70090418554E+03  0.79357182289E+02 0.  0.
         -6    2    1    2    0  502 -0.56386845958E+02  0.37051920622E+02 -0.12179773924E+04  0.12317671174E+04  0.17096485584E+03 0.  0.
        -24    2    5    5    0    0 -0.42104586706E+02  0.26680730504E+02 -0.12066525855E+04  0.12102755897E+04  0.79195222280E+02 0.  0.
          5    1    3    3  501    0  0.45346061084E+02  0.25667641446E+02 -0.91064087032E+02  0.10502309756E+03  0.47000000000E+01 0. -1.
        -11    1    4    4    0    0 -0.58793763312E+01 -0.16714501927E+02 -0.25066227041E+02  0.30696211147E+02  0.00000000000E+00 0.  1.
         12    1    4    4    0    0  0.16920161205E+02 -0.46005060140E+02 -0.66841302466E+03  0.67020797440E+03  0.00000000000E+00 0. -1.
         -5    1    5    5    0  502 -0.14282259251E+02  0.10371190117E+02 -0.11324806889E+02  0.21491527746E+02  0.47000000000E+01 0.  1.
         11    1    6    6    0    0 -0.65727085254E+02  0.18087204418E+02 -0.83926797430E+03  0.84203202397E+03  0.00000000000E+00 0. -1.
        -12    1    6    6    0    0  0.23622498548E+02  0.85935260867E+01 -0.36738461123E+03  0.36824356573E+03  0.00000000000E+00 0.  1.
</event>
<event>
12    1  0.1598254E-001  0.2794747E+03  0.7818608E-02  0.1095982E+00
         21   -1    0    0  501  502  0.00000000000E+00  0.00000000000E+00  0.12401753373E+04  0.12401753373E+04  0.00000000000E+00 0. -1.
         21   -1    0    0  502  503 -0.00000000000E+00 -0.00000000000E+00 -0.97193302029E+02  0.97193302029E+02  0.00000000000E+00 0.  1.
         -6    2    1    2    0  503 -0.20276150622E+03  0.85043652245E+02  0.17472735042E+03  0.32959935191E+03  0.17251502717E+03 0.  0.
        -24    2    3    3    0    0 -0.69403914271E+02  0.10013279713E+03  0.87199613427E+02  0.16930236389E+03  0.78841850945E+02 0.  0.
          6    2    1    2  501    0  0.20276150622E+03 -0.85043652245E+02  0.96825468488E+03  0.10077692875E+04  0.17244463098E+03 0.  0.
         24    2    5    5    0    0  0.83344554763E+02  0.20002572366E+02  0.33554744344E+03  0.35536169938E+03  0.79645670824E+02 0.  0.
          5    1    5    5  501    0  0.11941695146E+03 -0.10504622461E+03  0.63270724144E+03  0.65240758807E+03  0.47000000000E+01 0. -1.
        -13    1    6    6    0    0  0.97933070016E+02  0.18344614925E+02  0.31281810830E+03  0.32830257383E+03  0.00000000000E+00 0.  1.
         14    1    6    6    0    0 -0.14588515253E+02  0.16579574409E+01  0.22729335133E+02  0.27059125554E+02  0.00000000000E+00 0. -1.
         -5    1    3    3    0  503 -0.13335759195E+03 -0.15089144882E+02  0.87527736996E+02  0.16029698802E+03  0.47000000000E+01 0.  1.
         11    1    4    4    0    0  0.10534122712E+02  0.41091070485E+02  0.43439990661E+02  0.60716361909E+02  0.00000000000E+00 0. -1.
        -12    1    4    4    0    0 -0.79938036983E+02  0.59041726642E+02  0.43759622766E+02  0.10858600198E+03  0.00000000000E+00 0.  1.
</event>
<event>
12    1  0.1598254E-001  0.2977556E+03  0.7818608E-02  0.1086382E+00
         21   -1    0    0  503  502  0.00000000000E+00  0.00000000000E+00  0.38148470572E+02  0.38148470572E+02  0.00000000000E+00 0. -1.
         21   -1    0    0  501  503 -0.00000000000E+00 -0.00000000000E+00 -0.23570422128E+04  0.23570422128E+04  0.00000000000E+00 0. -1.
          6    2    1    2  501    0  0.24230827672E+03  0.98190188200E+01 -0.13027600733E+04  0.13363299745E+04  0.17258122171E+03 0.  0.
         24    2    3    3    0    0  0.53606061336E+02  0.37432035758E+02 -0.57876578525E+03  0.58762387468E+03  0.77828123464E+02 0.  0.
         -6    2    1    2    0  502 -0.24230827672E+03 -0.98190188200E+01 -0.10161336690E+04  0.10588607089E+04  0.17276762877E+03 0.  0.
        -24    2    5    5    0    0 -0.13172546415E+03  0.56295470853E+02 -0.65763943239E+03  0.67788841090E+03  0.80760737141E+02 0.  0.
          5    1    3    3  501    0  0.18870221538E+03 -0.27613016938E+02 -0.72399428801E+03  0.74870609979E+03  0.47000000000E+01 0. -1.
        -11    1    4    4    0    0 -0.11590697063E+02 -0.11209504031E+01 -0.16027664424E+02  0.19811279996E+02  0.00000000000E+00 0.  1.
         12    1    4    4    0    0  0.65196758399E+02  0.38552986161E+02 -0.56273812083E+03  0.56781259468E+03  0.00000000000E+00 0. -1.
         -5    1    5    5    0  502 -0.11058281257E+03 -0.66114489673E+02 -0.35849423657E+03  0.38097229799E+03  0.47000000000E+01 0.  1.
         13    1    6    6    0    0 -0.60019209463E+02 -0.12493593083E+02 -0.18421217972E+03  0.19414562197E+03  0.00000000000E+00 0. -1.
        -14    1    6    6    0    0 -0.71706254689E+02  0.68789063936E+02 -0.47342725267E+03  0.48374278894E+03  0.00000000000E+00 0.  1.
</event>
<event>
12    1  0.1598254E-001  0.2199917E+03  0.7818608E-02  0.1134233E+00
         21   -1    0    0  501  502  0.00000000000E+00  0.00000000000E+00  0.38514095858E+03  0.38514095858E+03  0.00000000000E+00 0.  1.
         21   -1    0    0  502  503 -0.00000000000E+00 -0.00000000000E+00 -0.21377589779E+03  0.21377589779E+03  0.00000000000E+00 0. -1.
         -6    2    1    2    0  503 -0.11570811949E+03 -0.66650204337E+02 -0.10792516174E+03  0.24338993539E+03  0.17251145312E+03 0.  0.
        -24    2    3    3    0    0 -0.25124563197E+02  0.21196364715E+02 -0.13079239620E+02  0.85465145353E+02  0.77799068170E+02 0.  0.
          6    2    1    2  501    0  0.11570811949E+03  0.66650204337E+02  0.27929022254E+03  0.35552692098E+03  0.17483061655E+03 0.  0.
         24    2    5    5    0    0  0.87783734004E+02 -0.26614943173E+02  0.16469033294E+03  0.20508296550E+03  0.80757524839E+02 0.  0.
          5    1    5    5  501    0  0.27924385487E+02  0.93265147511E+02  0.11459988960E+03  0.15044395548E+03  0.47000000000E+01 0. -1.
        -11    1    6    6    0    0  0.71884694317E+02 -0.29381509127E+02  0.17095902312E+03  0.18777025841E+03  0.00000000000E+00 0.  1.
         12    1    6    6    0    0  0.15899039688E+02  0.27665659539E+01 -0.62686901839E+01  0.17312707090E+02  0.00000000000E+00 0. -1.
         -5    1    3    3    0  503 -0.90583556294E+02 -0.87846569052E+02 -0.94845922124E+02  0.15792479004E+03  0.47000000000E+01 0.  1.
         13    1    4    4    0    0 -0.35123796915E+02 -0.14180478784E+02  0.13378432685E+02  0.40171501707E+02  0.00000000000E+00 0. -1.
        -14    1    4    4    0    0  0.99992337186E+01  0.35376843499E+02 -0.26457672305E+02  0.45293643646E+02  0.00000000000E+00 0.  1.
</event>
<event>
12    1  0.1598254E-001  0.2363091E+03  0.7818608E-02  0.1122739E+00
         21   -1    0    0  503  502  0.00000000000E+00  0.00000000000E+00  0.33657431996E+03  0.33657431996E+03  0.00000000000E+00 0. -1.
         21   -1    0    0  501  503 -0.00000000000E+00 -0.00000000000E+00 -0.16443930209E+03  0.16443930209E+03  0.00000000000E+00 0.  1.
          6    2    1    2  501    0 -0.11757183596E+03  0.10916877442E+03  0.98233674141E+02  0.25341835709E+03  0.16979414318E+03 0.  0.
         24    2    3    3    0    0 -0.14900684982E+03  0.82754881594E+02  0.97250018188E+02  0.21207937538E+03  0.80428127545E+02 0.  0.
         -6    2    1    2    0  502  0.11757183596E+03 -0.10916877442E+03  0.73901343728E+02  0.24759526495E+03  0.17349653800E+03 0.  0.
        -24    2    5    5    0    0  0.11833674577E+02  0.33082884735E+01  0.13816623330E+02  0.81872870336E+02  0.79757677939E+02 0.  0.
          5    1    3    3  501    0  0.31435013859E+02  0.26413892827E+02  0.98365595236E+00  0.41338981720E+02  0.47000000000E+01 0. -1.
        -13    1    4    4    0    0 -0.19855302451E+02  0.51856985394E+02  0.32478119771E+02  0.64328906670E+02  0.00000000000E+00 0.  1.
         14    1    4    4    0    0 -0.12915154737E+03  0.30897896200E+02  0.64771898418E+02  0.14775046870E+03  0.00000000000E+00 0. -1.
         -5    1    5    5    0  502  0.10573816139E+03 -0.11247706289E+03  0.60084720397E+02  0.16572239461E+03  0.47000000000E+01 0.  1.
         11    1    6    6    0    0  0.95218523827E+01  0.23212699628E+02  0.41020791298E+02  0.48085345122E+02  0.00000000000E+00 0. -1.
        -12    1    6    6    0    0  0.23118221942E+01 -0.19904411154E+02 -0.27204167967E+02  0.33787525214E+02  0.00000000000E+00 0.  1.
</event>
<event>
12    1  0.1598254E-001  0.2010000E+03  0.7818608E-02  0.1148937E+00
         21   -1    0    0  501  502  0.00000000000E+00  0.00000000000E+00  0.42500777730E+03  0.42500777730E+03  0.00000000000E+00 0.  1.
         21   -1    0    0  502  503 -0.00000000000E+00 -0.00000000000E+00 -0.11586080226E+03  0.11586080226E+03  0.00000000000E+00 0.  1.
         -6    2    1    2    0  503 -0.53655232406E+02  0.89266219463E+02  0.39803384166E+02  0.20490320354E+03  0.17191181323E+03 0.  0.
        -24    2    3    3    0    0 -0.38636171584E+02  0.12139888438E+03  0.61740651488E+02  0.16293400007E+03  0.80654432309E+02 0.  0.
          6    2    1    2  501    0  0.53655232406E+02 -0.89266219463E+02  0.26934359088E+03  0.33596537601E+03  0.17169572514E+03 0.  0.
         24    2    5    5    0    0 -0.21004481469E+02 -0.64027054958E+02  0.22019754904E+03  0.24296800116E+03  0.77497335290E+02 0.  0.
          5    1    5    5  501    0  0.74659713874E+02 -0.25239164505E+02  0.49146041838E+02  0.92997374850E+02  0.47000000000E+01 0. -1.
        -11    1    6    6    0    0  0.16249615337E+01 -0.76197795177E+02  0.17690910540E+03  0.19262807704E+03  0.00000000000E+00 0.  1.
         12    1    6    6    0    0 -0.22629443002E+02  0.12170740219E+02  0.43288443637E+02  0.50339924122E+02  0.00000000000E+00 0. -1.
         -5    1    3    3    0  503 -0.15019060821E+02 -0.32132664912E+02 -0.21937267322E+02  0.41969203470E+02  0.47000000000E+01 0.  1.
         13    1    4    4    0    0  0.12086551939E+00  0.51708417351E+02  0.65080129399E+02  0.83121587304E+02  0.00000000000E+00 0. -1.
        -14    1    4    4    0    0 -0.38757037104E+02  0.69690467025E+02 -0.33394779101E+01  0.79812412769E+02  0.00000000000E+00 0.  1.
</event>
<event>
12    1  0.1598254E-001  0.1753821E+03  0.7818608E-02  0.1172719E+00
         21   -1    0    0  503  502  0.00000000000E+00  0.00000000000E+00  0.42849106697E+03  0.42849106697E+03  0.00000000000E+00 0.  1.
         21   -1    0    0  501  503 -0.00000000000E+00 -0.00000000000E+00 -0.10892507194E+03  0.10892507194E+03  0.00000000000E+00 0.  1.
          6    2    1    2  501    0 -0.24359043341E+02 -0.20339496423E+02  0.20503221364E+01  0.17539403745E+03  0.17248711965E+03 0.  0.
         24    2    3    3    0    0  0.12631483994E+02 -0.11569397482E+02 -0.60540480542E+02  0.10201207558E+03  0.80298869442E+02 0.  0.
         -6    2    1    2    0  502  0.24359043341E+02  0.20339496423E+02  0.31751567289E+03  0.36202210146E+03  0.17098754723E+03 0.  0.
        -24    2    5    5    0    0  0.72940596491E+02 -0.18674131821E+02  0.21329887612E+03  0.24050888726E+03  0.81725519175E+02 0.  0.
          5    1    3    3  501    0 -0.36990527335E+02 -0.87700989415E+01  0.62590802678E+02  0.73381961870E+02  0.47000000000E+01 0. -1.
        -11    1    4    4    0    0  0.24032889734E+02 -0.10034530717E+02  0.11921527622E+02  0.28642528109E+02  0.00000000000E+00 0.  1.
         12    1    4    4    0    0 -0.11401405740E+02 -0.15348667647E+01 -0.72462008164E+02  0.73369547470E+02  0.00000000000E+00 0. -1.
         -5    1    5    5    0  502 -0.48581553150E+02  0.39013628244E+02  0.10421679677E+03  0.12151321420E+03  0.47000000000E+01 0.  1.
         13    1    6    6    0    0  0.44487872341E+02 -0.40712949663E+02  0.68312924296E+02  0.91122832932E+02  0.00000000000E+00 0. -1.
        -14    1    6    6    0    0  0.28452724150E+02  0.22038817842E+02  0.14498595182E+03  0.14938605433E+03  0.00000000000E+00 0.  1.
</event>
<event>
12    1  0.1598254E-001  0.2375855E+03  0.7818608E-02  0.1121905E+00
         21   -1    0    0  503  502  0.00000000000E+00  0.00000000000E+00  0.10937784606E+04  0.10937784606E+04  0.00000000000E+00 0. -1.
         21   -1    0    0  501  503 -0.00000000000E+00 -0.00000000000E+00 -0.74246955584E+02  0.74246955584E+02  0.00000000000E+00 0.  1.
          6    2    1    2  501    0  0.11405479273E+03  0.11437323202E+03  0.18498384585E+03  0.30110781000E+03  0.17423305677E+03 0.  0.
         24    2    3    3    0    0  0.13895427231E+03  0.10055595447E+03  0.10611454924E+03  0.21712354248E+03  0.80389958122E+02 0.  0.
         -6    2    1    2    0  502 -0.11405479273E+03 -0.11437323202E+03  0.83454765919E+03  0.86691760621E+03  0.17025454049E+03 0.  0.
        -24    2    5    5    0    0 -0.37735884408E+02 -0.50824990721E+02  0.64454234368E+03  0.65247165810E+03  0.79229130871E+02 0.  0.
          5    1    3    3  501    0 -0.24899479583E+02  0.13817277549E+02  0.78869296613E+02  0.83984267519E+02  0.47000000000E+01 0. -1.
        -11    1    4    4    0    0  0.29573699229E+02 -0.64621537988E+01 -0.10748865982E+01  0.30290567822E+02  0.00000000000E+00 0.  1.
         12    1    4    4    0    0  0.10938057308E+03  0.10701810827E+03  0.10718943584E+03  0.18683297466E+03  0.00000000000E+00 0. -1.
         -5    1    5    5    0  502 -0.76318908317E+02 -0.63548241295E+02  0.19000531551E+03  0.21444594811E+03  0.47000000000E+01 0.  1.
         11    1    6    6    0    0 -0.52144786217E+02 -0.29879827639E+02  0.25043855823E+03  0.25754874156E+03  0.00000000000E+00 0. -1.
        -12    1    6    6    0    0  0.14408901809E+02 -0.20945163082E+02  0.39410378545E+03  0.39492291654E+03  0.00000000000E+00 0.  1.
</event>
<event>
12    1  0.1598254E-001  0.1755715E+03  0.7818608E-02  0.1172615E+00
         21   -1    0    0  503  502  0.00000000000E+00  0.00000000000E+00  0.22582066140E+03  0.22582066140E+03  0.00000000000E+00 0.  1.
         21   -1    0    0  501  503 -0.00000000000E+00 -0.00000000000E+00 -0.14278564781E+03  0.14278564781E+03  0.00000000000E+00 0.  1.
          6    2    1    2  501    0 -0.14739211298E+02  0.32362636917E+02  0.84488075028E+02  0.19484251016E+03  0.17193249933E+03 0.  0.
         24    2    3    3    0    0 -0.34487138627E+02  0.66172463512E+02  0.10418217218E+03  0.15076266816E+03  0.79418508253E+02 0.  0.
         -6    2    1    2    0  502  0.14739211298E+02 -0.32362636917E+02 -0.14530614394E+01  0.17376379906E+03  0.17007986905E+03 0.  0.
        -24    2    5    5    0    0 -0.78722397691E+01  0.35192450870E+02 -0.35019284163E+02  0.94873058704E+02  0.80461582431E+02 0.  0.
          5    1    3    3  501    0  0.19747927328E+02 -0.33809826595E+02 -0.19694097150E+02  0.44079841999E+02  0.47000000000E+01 0. -1.
        -11    1    4    4    0    0 -0.58276087514E+02  0.33060450533E+02  0.75328948296E+02  0.10081441473E+03  0.00000000000E+00 0.  1.
         12    1    4    4    0    0  0.23788948887E+02  0.33112012979E+02  0.28853223882E+02  0.49948253433E+02  0.00000000000E+00 0. -1.
         -5    1    5    5    0  502  0.22611451067E+02 -0.67555087787E+02  0.33566222724E+02  0.78890740352E+02  0.47000000000E+01 0.  1.
         11    1    6    6    0    0 -0.94961068205E+01  0.15957177287E+02  0.25389327592E+02  0.31455134832E+02  0.00000000000E+00 0. -1.
        -12    1    6    6    0    0  0.16238670514E+01  0.19235273582E+02 -0.60408611755E+02  0.63417923872E+02  0.00000000000E+00 0.  1.
</event>
<event>
12    1  0.1598254E-001  0.1862219E+03  0.7818608E-02  0.1162268E+00
         21   -1    0    0  503  502  0.00000000000E+00  0.00000000000E+00  0.32774716931E+03  0.32774716931E+03  0.00000000000E+00 0. -1.
         21   -1    0    0  501  503 -0.00000000000E+00 -0.00000000000E+00 -0.12826924729E+03  0.12826924729E+03  0.00000000000E+00 0. -1.
          6    2    1    2  501    0  0.39708708478E+02 -0.59084939086E+02  0.28457194050E+01  0.18624368679E+03  0.17207789281E+03 0.  0.
         24    2    3    3    0    0  0.35819005176E+01 -0.25889942531E+02  0.67284004447E+02  0.10511763284E+03  0.76416361757E+02 0.  0.
         -6    2    1    2    0  502 -0.39708708478E+02  0.59084939086E+02  0.19663220262E+03  0.26977272981E+03  0.17042679100E+03 0.  0.
        -24    2    5    5    0    0 -0.60514208506E+02 -0.14533708332E+02  0.72419372389E+02  0.12381557421E+03  0.78819621990E+02 0.  0.
          5    1    3    3  501    0  0.36126807961E+02 -0.33194996555E+02 -0.64438285042E+02  0.81126053946E+02  0.47000000000E+01 0. -1.
        -11    1    4    4    0    0 -0.92729490962E+01 -0.49268407442E+02  0.58469270560E+02  0.77019602418E+02  0.00000000000E+00 0.  1.
         12    1    4    4    0    0  0.12854849614E+02  0.23378464911E+02  0.88147338873E+01  0.28098030424E+02  0.00000000000E+00 0. -1.
         -5    1    5    5    0  502  0.20805500027E+02  0.73618647418E+02  0.12421283023E+03  0.14595715560E+03  0.47000000000E+01 0.  1.
         11    1    6    6    0    0 -0.16244450721E+02 -0.21027225394E+01  0.75951918711E+02  0.77698118235E+02  0.00000000000E+00 0. -1.
        -12    1    6    6    0    0 -0.44269757785E+02 -0.12430985793E+02 -0.35325463217E+01  0.46117455975E+02  0.00000000000E+00 0.  1.
</event>
<event>
12    1  0.1598254E-001  0.1939596E+03  0.7818608E-02  0.1155728E+00
         21   -1    0    0  501  502  0.00000000000E+00  0.00000000000E+00  0.83141731248E+02  0.83141731248E+02  0.00000000000E+00 0.  1.
         21   -1    0    0  502  503 -0.00000000000E+00 -0.00000000000E+00 -0.66705611985E+03  0.66705611985E+03  0.00000000000E+00 0.  1.
         -6    2    1    2    0  503  0.49771307695E+02 -0.65298146427E+02 -0.51055738657E+03  0.54615855867E+03  0.17572505578E+03 0.  0.
        -24    2    3    3    0    0 -0.23793507195E+02  0.11478636037E+02 -0.17615120598E+03  0.19522261020E+03  0.79904506082E+02 0.  0.
          6    2    1    2  501    0 -0.49771307695E+02  0.65298146427E+02 -0.73357002030E+02  0.20403929243E+03  0.17178402752E+03 0.  0.
         24    2    5    5    0    0 -0.68351783554E+02 -0.99181448210E+01 -0.44408330271E+02  0.12119703178E+03  0.89141936281E+02 0.  0.
          5    1    5    5  501    0  0.18580475859E+02  0.75216291248E+02 -0.28948671759E+02  0.82842260645E+02  0.47000000000E+01 0. -1.
        -11    1    6    6    0    0 -0.69147510332E+02  0.43948752815E+01  0.52744601442E+01  0.69487502788E+02  0.00000000000E+00 0.  1.
         12    1    6    6    0    0  0.79572677744E+00 -0.14313020102E+02 -0.49682790415E+02  0.51709528996E+02  0.00000000000E+00 0. -1.
         -5    1    3    3    0  503  0.73564814890E+02 -0.76776782464E+02 -0.33440618059E+03  0.35093594847E+03  0.47000000000E+01 0.  1.
         13    1    4    4    0    0 -0.51008325244E+02  0.34326825477E+01 -0.79738515990E+02  0.94719921273E+02  0.00000000000E+00 0. -1.
        -14    1    4    4    0    0  0.27214818049E+02  0.80459534894E+01 -0.96412689992E+02  0.10050268892E+03  0.00000000000E+00 0.  1.
</event>
<event>
12    1  0.1598254E-001  0.2085910E+03  0.7818608E-02  0.1142803E+00
         21   -1    0    0  501  502  0.00000000000E+00  0.00000000000E+00  0.13201275793E+04  0.13201275793E+04  0.00000000000E+00 0.  1.
         21   -1    0    0  502  503 -0.00000000000E+00 -0.00000000000E+00 -0.32872712218E+02  0.32872712218E+02  0.00000000000E+00 0.  1.
         -6    2    1    2    0  503 -0.11076988676E+03  0.37691853275E+02  0.65174642142E+03  0.68413468984E+03  0.17197741825E+03 0.  0.
        -24    2    3    3    0    0 -0.73023825474E+02  0.84007526844E+01  0.61284614479E+03  0.62234427603E+03  0.79554691845E+02 0.  0.
          6    2    1    2  501    0  0.11076988676E+03 -0.37691853275E+02  0.63550844566E+03  0.66886560168E+03  0.17268342418E+03 0.  0.
         24    2    5    5    0    0  0.76013385271E+02  0.17664529006E+02  0.20327148134E+03  0.23168917644E+03  0.79186545762E+02 0.  0.
          5    1    5    5  501    0  0.34756501491E+02 -0.55356382281E+02  0.43223696432E+03  0.43717642523E+03  0.47000000000E+01 0. -1.
        -13    1    6    6    0    0  0.40967982773E+02 -0.28613111284E+02  0.67120654133E+02  0.83679555216E+02  0.00000000000E+00 0.  1.
         14    1    6    6    0    0  0.35045402498E+02  0.46277640290E+02  0.13615082721E+03  0.14800962123E+03  0.00000000000E+00 0. -1.
         -5    1    3    3    0  503 -0.37746061288E+02  0.29291100591E+02  0.38900276637E+02  0.61790413811E+02  0.47000000000E+01 0.  1.
         11    1    4    4    0    0 -0.82951530130E+02 -0.13449692707E+02  0.49441920898E+03  0.50150992492E+03  0.00000000000E+00 0. -1.
        -12    1    4    4    0    0  0.99277046558E+01  0.21850445392E+02  0.11842693581E+03  0.12083435111E+03  0.00000000000E+00 0.  1.
</event>
<event>
12    1  0.1598254E-001  0.1778348E+03  0.7818608E-02  0.1170380E+00
         21   -1    0    0  501  502  0.00000000000E+00  0.00000000000E+00  0.65751822575E+03  0.65751822575E+03  0.00000000000E+00 0.  1.
         21   -1    0    0  502  503 -0.00000000000E+00 -0.00000000000E+00 -0.54301578056E+02  0.54301578056E+02  0.00000000000E+00 0.  1.
         -6    2    1    2    0  503 -0.81168551565E+01 -0.43664939789E+02  0.17789497627E+03  0.25153897244E+03  0.17219965671E+03 0.  0.
        -24    2    3    3    0    0 -0.22183318393E+02  0.40088245571E+02  0.10361608430E+03  0.13861463831E+03  0.79865874946E+02 0.  0.
          6    2    1    2  501    0  0.81168551565E+01  0.43664939789E+02  0.42532167142E+03  0.46028083137E+03  0.17025689189E+03 0.  0.
         24    2    5    5    0    0  0.95182721143E+01  0.16686590948E+02  0.42475614290E+03  0.43285447364E+03  0.81093616246E+02 0.  0.
          5    1    5    5  501    0 -0.14014169578E+01  0.26978348841E+02  0.56552852319E+00  0.27426357727E+02  0.47000000000E+01 0. -1.
        -13    1    6    6    0    0  0.10012142360E+02  0.43734030111E+02  0.35837989379E+03  0.36117732024E+03  0.00000000000E+00 0.  1.
         14    1    6    6    0    0 -0.49387024522E+00 -0.27047439163E+02  0.66376249112E+02  0.71677153399E+02  0.00000000000E+00 0. -1.
         -5    1    3    3    0  503  0.14066463237E+02 -0.83753185360E+02  0.74278891971E+02  0.11292433413E+03  0.47000000000E+01 0.  1.
         13    1    4    4    0    0 -0.46088314592E+02  0.25511121398E+02  0.31796279640E+02  0.61530102030E+02  0.00000000000E+00 0. -1.
        -14    1    4    4    0    0  0.23904996199E+02  0.14577124173E+02  0.71819804659E+02  0.77084536281E+02  0.00000000000E+00 0.  1.
</event>
<event>
12    1  0.1598254E-001  0.1960364E+03  0.7818608E-02  0.1153180E+00
         21   -1    0    0  503  502  0.00000000000E+00  0.00000000000E+00  0.16636794794E+03  0.16636794794E+03  0.00000000000E+00 0. -1.
         21   -1    0    0  501  503 -0.00000000000E+00 -0.00000000000E+00 -0.27771782021E+03  0.27771782021E+03  0.00000000000E+00 0.  1.
          6    2    1    2  501    0  0.92259349710E+02 -0.16997217160E+02 -0.14700019765E+03  0.24483410852E+03  0.17185455941E+03 0.  0.
         24    2    3    3    0    0  0.10167153551E+03 -0.36064602726E+02 -0.16802250443E+03  0.21456561308E+03  0.78543514192E+02 0.  0.
         -6    2    1    2    0  502 -0.92259349710E+02  0.16997217160E+02  0.35650325374E+02  0.19925165963E+03  0.17213246401E+03 0.  0.
        -24    2    5    5    0    0  0.11103039572E+02  0.50979682292E+01 -0.16385450983E+02  0.82824911571E+02  0.80263417601E+02 0.  0.
          5    1    3    3  501    0 -0.94121858000E+01  0.19067385567E+02  0.21022306780E+02  0.30268495440E+02  0.47000000000E+01 0. -1.
        -11    1    4    4    0    0  0.11449817017E+03 -0.27939057591E+02 -0.15376498085E+03  0.19373717054E+03  0.00000000000E+00 0.  1.
         12    1    4    4    0    0 -0.12826634660E+02 -0.81255451356E+01 -0.14257523573E+02  0.20828442546E+02  0.00000000000E+00 0. -1.
         -5    1    5    5    0  502 -0.10336238928E+03  0.11899248930E+02  0.52035776357E+02  0.11642674806E+03  0.47000000000E+01 0.  1.
         13    1    6    6    0    0 -0.12799507406E+02 -0.33456476142E+02 -0.76358634751E+01  0.36626078096E+02  0.00000000000E+00 0. -1.
        -14    1    6    6    0    0  0.23902546978E+02  0.38554444371E+02 -0.87495875082E+01  0.46198833475E+02  0.00000000000E+00 0.  1.
</event>
<event>
12    1  0.1598254E-001  0.1816840E+03  0.7818608E-02  0.1166308E+00
         21   -1    0    0  501  502  0.00000000000E+00  0.00000000000E+00  0.62747508648E+03  0.62747508648E+03  0.00000000000E+00 0.  1.
         21   -1    0    0  502  503 -0.00000000000E+00 -0.00000000000E+00 -0.59115874461E+02  0.59115874461E+02  0.00000000000E+00 0.  1.
         -6    2    1    2    0  503 -0.35346799036E+02 -0.43464725794E+02  0.39977531275E+03  0.43912342588E+03  0.17283085337E+03 0.  0.
        -24    2    3    3    0    0 -0.40993388038E+02 -0.58592332957E+02  0.11540576750E+03  0.15425704188E+03  0.73234038894E+02 0.  0.
          6    2    1    2  501    0  0.35346799036E+02  0.43464725794E+02  0.16858389926E+03  0.24746753506E+03  0.17228195270E+03 0.  0.
         24    2    5    5    0    0  0.82590329251E+02  0.22740428921E+01  0.11664750253E+03  0.16593163615E+03  0.84263481249E+02 0.  0.
          5    1    5    5  501    0 -0.47243530216E+02  0.41190682902E+02  0.51936396733E+02  0.81535898908E+02  0.47000000000E+01 0. -1.
        -13    1    6    6    0    0 -0.16177309457E+02 -0.75973344930E+01  0.11080409593E+02  0.21028559376E+02  0.00000000000E+00 0.  1.
         14    1    6    6    0    0  0.98767638709E+02  0.98713773851E+01  0.10556709294E+03  0.14490307677E+03  0.00000000000E+00 0. -1.
         -5    1    3    3    0  503  0.56465890019E+01  0.15127607163E+02  0.28436954525E+03  0.28486638400E+03  0.47000000000E+01 0.  1.
         11    1    4    4    0    0 -0.37841597919E+02 -0.37463224543E+02  0.12097875980E+03  0.13217919673E+03  0.00000000000E+00 0. -1.
        -12    1    4    4    0    0 -0.31517901184E+01 -0.21129108414E+02 -0.55729922953E+01  0.22077845150E+02  0.00000000000E+00 0.  1.
</event>
<event>
12    1  0.1598254E-001  0.2405627E+03  0.7818608E-02  0.1120161E+00
         21   -1    0    0  503  502  0.00000000000E+00  0.00000000000E+00  0.11774264663E+03  0.11774264663E+03  0.00000000000E+00 0.  1.
         21   -1    0    0  501  503 -0.00000000000E+00 -0.00000000000E+00 -0.48520166238E+03  0.48520166238E+03  0.00000000000E+00 0. -1.
          6    2    1    2  501    0  0.11275697196E+03  0.12342945510E+03 -0.20456236025E+03  0.31241764249E+03  0.16676348221E+03 0.  0.
         24    2    3    3    0    0  0.87768869934E+02  0.91608524265E+01 -0.99459278169E+02  0.15509483212E+03  0.79843366599E+02 0.  0.
         -6    2    1    2    0  502 -0.11275697196E+03 -0.12342945510E+03 -0.16289665550E+03  0.29052666653E+03  0.17297820232E+03 0.  0.
        -24    2    5    5    0    0 -0.50437665283E+01 -0.13961853730E+02 -0.27674116832E+02  0.85850054919E+02  0.79899951481E+02 0.  0.
          5    1    3    3  501    0  0.24988102026E+02  0.11426860268E+03 -0.10510308208E+03  0.15732281037E+03  0.47000000000E+01 0. -1.
        -13    1    4    4    0    0  0.55243916378E+02 -0.32733050913E+02 -0.67539435630E+02  0.93192908980E+02  0.00000000000E+00 0.  1.
         14    1    4    4    0    0  0.32524953557E+02  0.41893903339E+02 -0.31919842539E+02  0.61901923141E+02  0.00000000000E+00 0. -1.
         -5    1    5    5    0  502 -0.10771320543E+03 -0.10946760137E+03 -0.13522253867E+03  0.20467661161E+03  0.47000000000E+01 0.  1.
         11    1    6    6    0    0 -0.17706089676E+02  0.19326201836E+02 -0.40290941619E+02  0.48066284083E+02  0.00000000000E+00 0. -1.
        -12    1    6    6    0    0  0.12662323148E+02 -0.33288055566E+02  0.12616824787E+02  0.37783770836E+02  0.00000000000E+00 0.  1.
</event>
<event>
12    1  0.1598254E-001  0.1809814E+03  0.7818608E-02  0.1166892E+00
         21   -1    0    0  503  502  0.00000000000E+00  0.00000000000E+00  0.31943879975E+03  0.31943879975E+03  0.00000000000E+00 0.  1.
         21   -1    0    0  501  503 -0.00000000000E+00 -0.00000000000E+00 -0.14597171075E+03  0.14597171075E+03  0.00000000000E+00 0. -1.
          6    2    1    2  501    0  0.39334178094E+02  0.40584635236E+02 -0.40301769677E+02  0.18541443187E+03  0.17193018561E+03 0.  0.
         24    2    3    3    0    0  0.49771247813E+02  0.85799473026E+02 -0.33539791129E+02  0.13828558365E+03  0.90328613273E+02 0.  0.
         -6    2    1    2    0  502 -0.39334178094E+02 -0.40584635236E+02  0.21376885868E+03  0.27999607863E+03  0.17177423825E+03 0.  0.
        -24    2    5    5    0    0 -0.12741981068E+02  0.16657089300E+02  0.33774853544E+02  0.89198563306E+02  0.79848771177E+02 0.  0.
          5    1    3    3  501    0 -0.10437069719E+02 -0.45214837791E+02 -0.67619785480E+01  0.47128848221E+02  0.47000000000E+01 0. -1.
        -13    1    4    4    0    0  0.53395888034E+02  0.72791416896E+01 -0.24385708180E+02  0.59150397514E+02  0.00000000000E+00 0.  1.
         14    1    4    4    0    0 -0.36246402207E+01  0.78520331337E+02 -0.91540829484E+01  0.79135186135E+02  0.00000000000E+00 0. -1.
         -5    1    5    5    0  502 -0.26592197026E+02 -0.57241724536E+02  0.17999400514E+03  0.19079751533E+03  0.47000000000E+01 0.  1.
         13    1    6    6    0    0  0.26026949201E+02 -0.15597655924E+02  0.39275158269E+01  0.30595985612E+02  0.00000000000E+00 0. -1.
        -14    1    6    6    0    0 -0.38768930268E+02  0.32254745224E+02  0.29847337717E+02  0.58602577694E+02  0.00000000000E+00 0.  1.
</event>
<event>
12    1  0.1598254E-001  0.2074008E+03  0.7818608E-02  0.1144016E+00
         21   -1    0    0  503  502  0.00000000000E+00  0.00000000000E+00  0.38074601032E+03  0.38074601032E+03  0.00000000000E+00 0. -1.
         21   -1    0    0  501  503 -0.00000000000E+00 -0.00000000000E+00 -0.11529118679E+03  0.11529118679E+03  0.00000000000E+00 0.  1.
          6    2    1    2  501    0  0.54318125512E+02  0.99759402413E+02  0.91202996378E+02  0.22656803159E+03  0.17353008172E+03 0.  0.
         24    2    3    3    0    0  0.14471274293E+02  0.12937332764E+03  0.39079582848E+02  0.15443138101E+03  0.73314132054E+02 0.  0.
         -6    2    1    2    0  502 -0.54318125512E+02 -0.99759402413E+02  0.17425182715E+03  0.26946916551E+03  0.17131122196E+03 0.  0.
        -24    2    5    5    0    0  0.23402995173E+02 -0.17870448402E+02  0.10819392210E+03  0.13857947834E+03  0.81432757092E+02 0.  0.
          5    1    3    3  501    0  0.39846851219E+02 -0.29613925232E+02  0.52123413529E+02  0.72136650585E+02  0.47000000000E+01 0. -1.
        -11    1    4    4    0    0  0.31540821101E+02  0.32404146691E+02  0.32623761907E+02  0.55759859751E+02  0.00000000000E+00 0.  1.
         12    1    4    4    0    0 -0.17069546808E+02  0.96969180954E+02  0.64558209410E+01  0.98671521256E+02  0.00000000000E+00 0. -1.
         -5    1    5    5    0  502 -0.77721120685E+02 -0.81888954011E+02  0.66057905051E+02  0.13088968718E+03  0.47000000000E+01 0.  1.
         13    1    6    6    0    0 -0.24424097868E+02 -0.27484985099E+02  0.36077747112E+02  0.51512763459E+02  0.00000000000E+00 0. -1.
        -14    1    6    6    0    0  0.47827093041E+02  0.96145366979E+01  0.72116174987E+02  0.87066714877E+02  0.00000000000E+00 0.  1.
</event>
<event>
12    1  0.1598254E-001  0.2074269E+03  0.7818608E-02  0.1143649E+00
         21   -1    0    0  503  502  0.00000000000E+00  0.00000000000E+00  0.19182354508E+03  0.19182354508E+03  0.00000000000E+00 0. -1.
         21   -1    0    0  501  503 -0.00000000000E+00 -0.00000000000E+00 -0.29765170352E+03  0.29765170352E+03  0.00000000000E+00 0.  1.
          6    2    1    2  501    0 -0.96750312318E+02 -0.64229125223E+02 -0.17455283215E+03  0.27109890840E+03  0.17187182278E+03 0.  0.
         24    2    3    3    0    0 -0.14376683579E+01 -0.44504566002E+02 -0.13867453597E+03  0.16725816268E+03  0.82231032896E+02 0.  0.
         -6    2    1    2    0  502  0.96750312318E+02  0.64229125223E+02  0.68724673716E+02  0.21837634020E+03  0.17169490884E+03 0.  0.
        -24    2    5    5    0    0  0.44098610766E+02 -0.88874252927E+01  0.87343815133E+02  0.12625145723E+03  0.79289435677E+02 0.  0.
          5    1    3    3  501    0 -0.95312643960E+02 -0.19724559221E+02 -0.35878296177E+02  0.10384074572E+03  0.47000000000E+01 0. -1.
        -13    1    4    4    0    0 -0.21775659765E+02 -0.16631844803E+02 -0.12835059554E+03  0.13124280169E+03  0.00000000000E+00 0.  1.
         14    1    4    4    0    0  0.20337991407E+02 -0.27872721199E+02 -0.10323940435E+02  0.36015360995E+02  0.00000000000E+00 0. -1.
         -5    1    5    5    0  502  0.52651701552E+02  0.73116550515E+02 -0.18619141417E+02  0.92124882972E+02  0.47000000000E+01 0.  1.
         11    1    6    6    0    0  0.59989635385E+02 -0.22106067651E+02  0.83600809960E+02  0.10524509493E+03  0.00000000000E+00 0. -1.
        -12    1    6    6    0    0 -0.15891024619E+02  0.13218642358E+02  0.37430051731E+01  0.21006362298E+02  0.00000000000E+00 0.  1.
</event>
<event>
12    1  0.1598254E-001  0.1988824E+03  0.7818608E-02  0.1150836E+00
         21   -1    0    0  501  502  0.00000000000E+00  0.00000000000E+00  0.10032612712E+03  0.10032612712E+03  0.00000000000E+00 0. -1.
         21   -1    0    0  502  503 -0.00000000000E+00 -0.00000000000E+00 -0.47644550927E+03  0.47644550927E+03  0.00000000000E+00 0. -1.
         -6    2    1    2    0  503  0.93486759933E+01 -0.98044251498E+02 -0.30857498932E+03  0.36673248767E+03  0.17197127808E+03 0.  0.
        -24    2    3    3    0    0  0.13827923167E+02 -0.28917448314E+02 -0.27700701534E+03  0.29046188026E+03  0.81288295970E+02 0.  0.
          6    2    1    2  501    0 -0.93486759933E+01  0.98044251498E+02 -0.67544392826E+02  0.21003914872E+03  0.17278346564E+03 0.  0.
         24    2    5    5    0    0 -0.39830179729E+02  0.10573667442E+02 -0.74778439481E+02  0.11700879574E+03  0.80006234815E+02 0.  0.
          5    1    5    5  501    0  0.30481503736E+02  0.87470584056E+02  0.72340466545E+01  0.93030352982E+02  0.47000000000E+01 0. -1.
        -13    1    6    6    0    0 -0.99320275707E+01 -0.31584193265E+02 -0.10935876886E+02  0.34868321427E+02  0.00000000000E+00 0.  1.
         14    1    6    6    0    0 -0.29898152159E+02  0.42157860707E+02 -0.63842562594E+02  0.82140474314E+02  0.00000000000E+00 0. -1.
         -5    1    3    3    0  503 -0.44792471740E+01 -0.69126803184E+02 -0.31567973986E+02  0.76270607413E+02  0.47000000000E+01 0.  1.
         13    1    4    4    0    0 -0.23454771277E+02 -0.30252686368E+02 -0.66978483542E+02  0.77145761943E+02  0.00000000000E+00 0. -1.
        -14    1    4    4    0    0  0.37282694444E+02  0.13352380536E+01 -0.21002853179E+03  0.21331611832E+03  0.00000000000E+00 0.  1.
</event>
<event>
12    1  0.1598254E-001  0.1928731E+03  0.7818608E-02  0.1156072E+00
         21   -1    0    0  503  502  0.00000000000E+00  0.00000000000E+00  0.14999718139E+04  0.14999718139E+04  0.00000000000E+00 0. -1.
         21   -1    0    0  501  503 -0.00000000000E+00 -0.00000000000E+00 -0.49019548936E+02  0.49019548936E+02  0.00000000000E+00 0. -1.
          6    2    1    2  501    0  0.41677862502E+02 -0.75924141712E+02  0.18069121972E+03  0.26429030896E+03  0.17233261736E+03 0.  0.
         24    2    3    3    0    0  0.31820548479E+02 -0.70995536975E+02  0.20708325957E+03  0.23530604509E+03  0.80203147587E+02 0.  0.
         -6    2    1    2    0  502 -0.41677862502E+02  0.75924141712E+02  0.12702610453E+04  0.12847010539E+04  0.17144140473E+03 0.  0.
        -24    2    5    5    0    0  0.29198170366E+02  0.79590578148E+02  0.91744684846E+03  0.92478883924E+03  0.79614597653E+02 0.  0.
          5    1    3    3  501    0  0.98573140226E+01 -0.49286047369E+01 -0.26392039855E+02  0.28984263870E+02  0.47000000000E+01 0. -1.
        -11    1    4    4    0    0  0.32785739402E+01  0.75626119417E+01  0.95677804625E+02  0.96032205246E+02  0.00000000000E+00 0.  1.
         12    1    4    4    0    0  0.28541974539E+02 -0.78558148916E+02  0.11140545495E+03  0.13927383984E+03  0.00000000000E+00 0. -1.
         -5    1    5    5    0  502 -0.70876032868E+02 -0.36664364366E+01  0.35281419683E+03  0.35991221468E+03  0.47000000000E+01 0.  1.
         11    1    6    6    0    0 -0.10134330828E+02  0.42530773786E+02  0.67396995964E+03  0.67538661363E+03  0.00000000000E+00 0. -1.
        -12    1    6    6    0    0  0.39332501195E+02  0.37059804362E+02  0.24347688882E+03  0.24940222561E+03  0.00000000000E+00 0.  1.
</event>
<event>
12    1  0.1598254E-001  0.1760420E+03  0.7818608E-02  0.1171875E+00
         21   -1    0    0  503  502  0.00000000000E+00  0.00000000000E+00  0.40880122437E+03  0.40880122437E+03  0.00000000000E+00 0. -1.
         21   -1    0    0  501  503 -0.00000000000E+00 -0.00000000000E+00 -0.11190717323E+03  0.11190717323E+03  0.00000000000E+00 0. -1.
          6    2    1    2  501    0  0.18152858815E+02 -0.13701846185E+02 -0.28539395539E+00  0.17530082003E+03  0.17381895519E+03 0.  0.
         24    2    3    3    0    0 -0.27737891558E+02 -0.39353657188E+02 -0.46420311195E+02  0.10519734675E+03  0.81200588110E+02 0.  0.
         -6    2    1    2    0  502 -0.18152858815E+02  0.13701846185E+02  0.29717944510E+03  0.34540757756E+03  0.17456662104E+03 0.  0.
        -24    2    5    5    0    0 -0.82964195751E+01  0.71385994217E+02  0.24201286667E+03  0.26484672042E+03  0.80054774596E+02 0.  0.
          5    1    3    3  501    0  0.45890750372E+02  0.25651811003E+02  0.46134917240E+02  0.70103473282E+02  0.47000000000E+01 0. -1.
        -13    1    4    4    0    0  0.51328379444E+01 -0.15811050788E+02  0.20877936453E+02  0.26687517361E+02  0.00000000000E+00 0.  1.
         14    1    4    4    0    0 -0.32870729502E+02 -0.23542606400E+02 -0.67298247647E+02  0.78509829388E+02  0.00000000000E+00 0. -1.
         -5    1    5    5    0  502 -0.98564392395E+01 -0.57684148032E+02  0.55166578428E+02  0.80560857146E+02  0.47000000000E+01 0.  1.
         13    1    6    6    0    0 -0.20784672704E+02  0.16800559541E+02  0.14221719451E+02  0.30274060257E+02  0.00000000000E+00 0. -1.
        -14    1    6    6    0    0  0.12488253129E+02  0.54585434676E+02  0.22779114722E+03  0.23457266016E+03  0.00000000000E+00 0.  1.
</event>
<event>
12    1  0.1598254E-001  0.1781707E+03  0.7818608E-02  0.1169689E+00
         21   -1    0    0  503  502  0.00000000000E+00  0.00000000000E+00  0.68882171777E+02  0.68882171777E+02  0.00000000000E+00 0. -1.
         21   -1    0    0  501  503 -0.00000000000E+00 -0.00000000000E+00 -0.16296337996E+04  0.16296337996E+04  0.00000000000E+00 0. -1.
          6    2    1    2  501    0 -0.18766699886E+02  0.39104413137E+02 -0.15001910647E+04  0.15107342682E+04  0.17281045731E+03 0.  0.
         24    2    3    3    0    0 -0.41219156477E+02  0.17506494311E+02 -0.14384247165E+04  0.14413962938E+04  0.80945134295E+02 0.  0.
         -6    2    1    2    0  502  0.18766699886E+02 -0.39104413137E+02 -0.60560563074E+02  0.18778170319E+03  0.17237471422E+03 0.  0.
        -24    2    5    5    0    0 -0.51067581323E+02 -0.90086066811E+01 -0.58402735157E+02  0.11156273823E+03  0.79663744778E+02 0.  0.
          5    1    3    3  501    0  0.22452456591E+02  0.21597918826E+02 -0.61766348252E+02  0.69337974306E+02  0.47000000000E+01 0. -1.
        -13    1    4    4    0    0 -0.52965898826E+02  0.37154796595E+02 -0.82015141024E+03  0.82269933819E+03  0.00000000000E+00 0.  1.
         14    1    4    4    0    0  0.11746742349E+02 -0.19648302284E+02 -0.61827330624E+03  0.61869695566E+03  0.00000000000E+00 0. -1.
         -5    1    5    5    0  502  0.69834281209E+02 -0.30095806456E+02 -0.21578279167E+01  0.76218964960E+02  0.47000000000E+01 0.  1.
         13    1    6    6    0    0 -0.28583689043E+01 -0.36005163188E+02 -0.84892357034E+01  0.37102684159E+02  0.00000000000E+00 0. -1.
        -14    1    6    6    0    0 -0.48209212418E+02  0.26996556507E+02 -0.49913499454E+02  0.74460054076E+02  0.00000000000E+00 0.  1.
</event>
<event>
12    1  0.1598254E-001  0.2059852E+03  0.7818608E-02  0.1144940E+00
         21   -1    0    0  501  502  0.00000000000E+00  0.00000000000E+00  0.17295264287E+03  0.17295264287E+03  0.00000000000E+00 0. -1.
         21   -1    0    0  502  503 -0.00000000000E+00 -0.00000000000E+00 -0.33092537379E+03  0.33092537379E+03  0.00000000000E+00 0.  1.
         -6    2    1    2    0  503 -0.13145561026E+02 -0.11341962793E+03 -0.20768908858E+03  0.29197802545E+03  0.17052739385E+03 0.  0.
        -24    2    3    3    0    0  0.46187644989E+02 -0.34325318431E+02 -0.60039782298E+02  0.11421766210E+03  0.78290311289E+02 0.  0.
          6    2    1    2  501    0  0.13145561026E+02  0.11341962793E+03  0.49716357662E+02  0.21189999121E+03  0.17144407916E+03 0.  0.
         24    2    5    5    0    0  0.52699110854E+02  0.34124577896E+02 -0.14674766108E+02  0.10226197278E+03  0.79375558048E+02 0.  0.
          5    1    5    5  501    0 -0.39553549829E+02  0.79295050034E+02  0.64391123770E+02  0.10963801843E+03  0.47000000000E+01 0. -1.
        -11    1    6    6    0    0  0.23853070953E+02  0.56936905493E+02 -0.20459243349E+02  0.65033536267E+02  0.00000000000E+00 0.  1.
         12    1    6    6    0    0  0.28846039901E+02 -0.22812327597E+02  0.57844772409E+01  0.37228436514E+02  0.00000000000E+00 0. -1.
         -5    1    3    3    0  503 -0.59333206015E+02 -0.79094309499E+02 -0.14764930628E+03  0.17776036335E+03  0.47000000000E+01 0.  1.
         11    1    4    4    0    0  0.34813600852E+02 -0.59684930594E+02 -0.46628522917E+02  0.83357644483E+02  0.00000000000E+00 0. -1.
        -12    1    4    4    0    0  0.11374044137E+02  0.25359612162E+02 -0.13411259381E+02  0.30860017615E+02  0.00000000000E+00 0.  1.
</event>
<event>
12    1  0.1598254E-001  0.1768064E+03  0.7818608E-02  0.1170956E+00
         21   -1    0    0  501  502  0.00000000000E+00  0.00000000000E+00  0.50309923427E+02  0.50309923427E+02  0.00000000000E+00 0. -1.
         21   -1    0    0  502  503 -0.00000000000E+00 -0.00000000000E+00 -0.89144710238E+03  0.89144710238E+03  0.00000000000E+00 0. -1.
         -6    2    1    2    0  503  0.41432381091E+02  0.53217505885E+01 -0.67984550750E+03  0.70243404466E+03  0.17169365100E+03 0.  0.
        -24    2    3    3    0    0  0.33647904831E+02 -0.27412285543E+02 -0.65228319751E+03  0.65868606043E+03  0.80686687581E+02 0.  0.
          6    2    1    2  501    0 -0.41432381091E+02 -0.53217505885E+01 -0.16129167146E+03  0.23932298115E+03  0.17180082303E+03 0.  0.
         24    2    5    5    0    0 -0.70361928770E+02  0.13413317597E+00 -0.46580969859E+02  0.12080158875E+03  0.86443149405E+02 0.  0.
          5    1    5    5  501    0  0.28929547679E+02 -0.54558837645E+01 -0.11471070160E+03  0.11852139240E+03  0.47000000000E+01 0. -1.
        -13    1    6    6    0    0 -0.53050401674E+02 -0.29497285878E+02  0.26876812915E+01  0.60759020916E+02  0.00000000000E+00 0.  1.
         14    1    6    6    0    0 -0.17311527095E+02  0.29631419054E+02 -0.49268651151E+02  0.60042567831E+02  0.00000000000E+00 0. -1.
         -5    1    3    3    0  503  0.77844762594E+01  0.32734036131E+02 -0.27562309990E+02  0.43747984228E+02  0.47000000000E+01 0.  1.
         13    1    4    4    0    0 -0.73367894742E+01 -0.19370828265E+02 -0.40600787013E+02  0.45579396371E+02  0.00000000000E+00 0. -1.
        -14    1    4    4    0    0  0.40984694305E+02 -0.80414572779E+01 -0.61168241050E+03  0.61310666406E+03  0.00000000000E+00 0.  1.
</event>
<event>
12    1  0.1598254E-001  0.2269191E+03  0.7818608E-02  0.1129228E+00
         21   -1    0    0  503  502  0.00000000000E+00  0.00000000000E+00  0.22892847899E+03  0.22892847899E+03  0.00000000000E+00 0.  1.
         21   -1    0    0  501  503 -0.00000000000E+00 -0.00000000000E+00 -0.29095125401E+03  0.29095125401E+03  0.00000000000E+00 0.  1.
          6    2    1    2  501    0 -0.39442634933E+02  0.13846862408E+03 -0.15676729758E+03  0.27397572654E+03  0.17250342558E+03 0.  0.
         24    2    3    3    0    0 -0.21230333052E+02  0.16126887066E+03 -0.16319665799E+03  0.24372732395E+03  0.79444846137E+02 0.  0.
         -6    2    1    2    0  502  0.39442634933E+02 -0.13846862408E+03  0.94744522563E+02  0.24590400647E+03  0.17539376994E+03 0.  0.
        -24    2    5    5    0    0  0.67338631470E+02 -0.21501506085E+02  0.41840011126E+02  0.11444880252E+03  0.79694013665E+02 0.  0.
          5    1    3    3  501    0 -0.18212301881E+02 -0.22800246574E+02  0.64293604111E+01  0.30248402585E+02  0.47000000000E+01 0. -1.
        -11    1    4    4    0    0  0.92635434785E+01  0.11514054933E+03 -0.14526966341E+03  0.18559750657E+03  0.00000000000E+00 0.  1.
         12    1    4    4    0    0 -0.30493876530E+02  0.46128321327E+02 -0.17926994580E+02  0.58129817383E+02  0.00000000000E+00 0. -1.
         -5    1    5    5    0  502 -0.27895996536E+02 -0.11696711800E+03  0.52904511437E+02  0.13145520395E+03  0.47000000000E+01 0.  1.
         13    1    6    6    0    0 -0.12916532468E+02 -0.18690406427E+02 -0.22612440386E+01  0.22831586191E+02  0.00000000000E+00 0. -1.
        -14    1    6    6    0    0  0.80255163937E+02 -0.28110996578E+01  0.44101255165E+02  0.91617216324E+02  0.00000000000E+00 0.  1.
</event>
<event>
12    1  0.1598254E-001  0.5243692E+03  0.7818608E-02  0.1007611E+00
         21   -1    0    0  503  502  0.00000000000E+00  0.00000000000E+00  0.68603319970E+03  0.68603319970E+03  0.00000000000E+00 0.  1.
         21   -1    0    0  501  503 -0.00000000000E+00 -0.00000000000E+00 -0.52669336504E+03  0.52669336504E+03  0.00000000000E+00 0. -1.
          6    2    1    2  501    0 -0.40182826130E+02 -0.49362244148E+03 -0.21684396585E+03  0.56743665841E+03  0.17229417152E+03 0.  0.
         24    2    3    3    0    0  0.44949303452E+01 -0.35034479155E+03 -0.89731339088E+02  0.37070258212E+03  0.81283539604E+02 0.  0.
         -6    2    1    2    0  502  0.40182826130E+02  0.49362244148E+03  0.37618380050E+03  0.64528990633E+03  0.17206695558E+03 0.  0.
        -24    2    5    5    0    0 -0.45028106332E+02  0.25215456308E+03  0.19033429374E+03  0.32885702486E+03  0.79437682411E+02 0.  0.
          5    1    3    3  501    0 -0.44677756475E+02 -0.14327764992E+03 -0.12711262676E+03  0.19673407629E+03  0.47000000000E+01 0. -1.
        -11    1    4    4    0    0  0.35116795820E+02 -0.21782741226E+03 -0.32002075284E+02  0.22294865710E+03  0.00000000000E+00 0.  1.
         12    1    4    4    0    0 -0.30621865475E+02 -0.13251737929E+03 -0.57729263804E+02  0.14775392502E+03  0.00000000000E+00 0. -1.
         -5    1    5    5    0  502  0.85210932462E+02  0.24146787839E+03  0.18584950677E+03  0.31643288147E+03  0.47000000000E+01 0.  1.
         11    1    6    6    0    0 -0.12239406786E+02  0.15254316407E+02  0.44838073356E+02  0.48917788888E+02  0.00000000000E+00 0. -1.
        -12    1    6    6    0    0 -0.32788699546E+02  0.23690024668E+03  0.14549622038E+03  0.27993923598E+03  0.00000000000E+00 0.  1.
</event>
<event>
12    1  0.1598254E-001  0.2034763E+03  0.7818608E-02  0.1146904E+00
         21   -1    0    0  501  502  0.00000000000E+00  0.00000000000E+00  0.37770922631E+03  0.37770922631E+03  0.00000000000E+00 0.  1.
         21   -1    0    0  502  503 -0.00000000000E+00 -0.00000000000E+00 -0.61180988977E+03  0.61180988977E+03  0.00000000000E+00 0. -1.
         -6    2    1    2    0  503  0.38779444300E+02  0.10213300371E+03 -0.56536173375E+03  0.60075631441E+03  0.17128707938E+03 0.  0.
        -24    2    3    3    0    0 -0.76909376837E+01  0.10782612733E+03 -0.51314168644E+03  0.53046455529E+03  0.79953922997E+02 0.  0.
          6    2    1    2  501    0 -0.38779444300E+02 -0.10213300371E+03  0.33126107029E+03  0.38876280167E+03  0.17166136295E+03 0.  0.
         24    2    5    5    0    0 -0.73715992063E+02 -0.11491494825E+03  0.30401023095E+03  0.34240939057E+03  0.78628731478E+02 0.  0.
          5    1    5    5  501    0  0.34936547763E+02  0.12781944546E+02  0.27250839340E+02  0.46353411101E+02  0.47000000000E+01 0. -1.
        -11    1    6    6    0    0 -0.36329947118E+02 -0.13595924916E+02  0.14566683918E+03  0.15074329925E+03  0.00000000000E+00 0.  1.
         12    1    6    6    0    0 -0.37386044945E+02 -0.10131902334E+03  0.15834339176E+03  0.19166609132E+03  0.00000000000E+00 0. -1.
         -5    1    3    3    0  503  0.46470381984E+02 -0.56931236212E+01 -0.52220047312E+02  0.70291759116E+02  0.47000000000E+01 0.  1.
         11    1    4    4    0    0 -0.15541889383E+02  0.83708104586E+02 -0.21496476601E+03  0.23121082960E+03  0.00000000000E+00 0. -1.
        -12    1    4    4    0    0  0.78509516990E+01  0.24118022741E+02 -0.29817692043E+03  0.29925372569E+03  0.00000000000E+00 0.  1.
</event>
<event>
12    1  0.1598254E-001  0.2004676E+03  0.7818608E-02  0.1149375E+00
         21   -1    0    0  503  502  0.00000000000E+00  0.00000000000E+00  0.64903616306E+03  0.64903616306E+03  0.00000000000E+00 0.  1.
         21   -1    0    0  501  503 -0.00000000000E+00 -0.00000000000E+00 -0.12434403190E+03  0.12434403190E+03  0.00000000000E+00 0.  1.
          6    2    1    2  501    0  0.90301889418E+02  0.51332602901E+02 -0.11693139678E+02  0.20080831968E+03  0.17145782101E+03 0.  0.
         24    2    3    3    0    0  0.85098710411E+02  0.37222115936E+02 -0.71423423005E+02  0.13903473584E+03  0.74847017232E+02 0.  0.
         -6    2    1    2    0  502 -0.90301889418E+02 -0.51332602901E+02  0.53638527084E+03  0.57257187527E+03  0.17128901375E+03 0.  0.
        -24    2    5    5    0    0 -0.81703929216E+02 -0.44048759014E+02  0.54438289844E+03  0.55797628181E+03  0.79805800103E+02 0.  0.
          5    1    3    3  501    0  0.52031790066E+01  0.14110486965E+02  0.59730283327E+02  0.61773583841E+02  0.47000000000E+01 0. -1.
        -13    1    4    4    0    0  0.78798862543E+02 -0.19215241351E+01 -0.55032190048E+02  0.96132694410E+02  0.00000000000E+00 0.  1.
         14    1    4    4    0    0  0.62998478683E+01  0.39143640071E+02 -0.16391232957E+02  0.42902041432E+02  0.00000000000E+00 0. -1.
         -5    1    5    5    0  502 -0.85979602016E+01 -0.72838438870E+01 -0.79976275996E+01  0.14595593466E+02  0.47000000000E+01 0.  1.
         13    1    6    6    0    0  0.12201919944E+02  0.20683284527E+01  0.13012007993E+03  0.13070730673E+03  0.00000000000E+00 0. -1.
        -14    1    6    6    0    0 -0.93905849161E+02 -0.46117087467E+02  0.41426281851E+03  0.42726897507E+03  0.00000000000E+00 0.  1.
</event>
<event>
12    1  0.1598254E-001  0.1725160E+03  0.7818608E-02  0.1175535E+00
         21   -1    0    0  503  502  0.00000000000E+00  0.00000000000E+00  0.21274515633E+03  0.21274515633E+03  0.00000000000E+00 0.  1.
         21   -1    0    0  501  503 -0.00000000000E+00 -0.00000000000E+00 -0.10460121139E+04  0.10460121139E+04  0.00000000000E+00 0.  1.
          6    2    1    2  501    0  0.10920605827E+02 -0.70033548274E+01 -0.10025272510E+04  0.10170739361E+04  0.17090990542E+03 0.  0.
         24    2    3    3    0    0  0.52976407202E+02  0.28408575832E+02 -0.83148418275E+03  0.83735049167E+03  0.78589775605E+02 0.  0.
         -6    2    1    2    0  502 -0.10920605827E+02  0.70033548274E+01  0.16926029348E+03  0.24168333413E+03  0.17202755720E+03 0.  0.
        -24    2    5    5    0    0  0.59419409925E+02  0.19408462287E+02  0.10377882887E+03  0.14467036224E+03  0.79070308623E+02 0.  0.
          5    1    3    3  501    0 -0.42055801376E+02 -0.35411930660E+02 -0.17104306827E+03  0.17972344440E+03  0.47000000000E+01 0. -1.
        -13    1    4    4    0    0  0.43252632519E+02 -0.19638724106E+02 -0.50153994147E+03  0.50378446046E+03  0.00000000000E+00 0.  1.
         14    1    4    4    0    0  0.97237746833E+01  0.48047299939E+02 -0.32994424128E+03  0.33356603121E+03  0.00000000000E+00 0. -1.
         -5    1    5    5    0  502 -0.70340015751E+02 -0.12405107460E+02  0.65481464616E+02  0.97012971891E+02  0.47000000000E+01 0.  1.
         11    1    6    6    0    0  0.25781303113E+02  0.90184310082E+01 -0.71957717707E+01  0.28245120276E+02  0.00000000000E+00 0. -1.
        -12    1    6    6    0    0  0.33638106812E+02  0.10390031279E+02  0.11097460064E+03  0.11642524197E+03  0.00000000000E+00 0.  1.
</event>
<event>
12    1  0.1598254E-001  0.2099147E+03  0.7818608E-02  0.1141668E+00
         21   -1    0    0  503  502  0.00000000000E+00  0.00000000000E+00  0.36783597402E+03  0.36783597402E+03  0.00000000000E+00 0.  1.
         21   -1    0    0  501  503 -0.00000000000E+00 -0.00000000000E+00 -0.22332438816E+03  0.22332438816E+03  0.00000000000E+00 0.  1.
          6    2    1    2  501    0  0.97808103327E+02  0.69367052835E+02 -0.12907831442E+03  0.24642522214E+03  0.17229615712E+03 0.  0.
         24    2    3    3    0    0  0.11464939769E+03  0.66010234926E+02 -0.15245022031E+03  0.21704438813E+03  0.79783214042E+02 0.  0.
         -6    2    1    2    0  502 -0.97808103327E+02 -0.69367052835E+02  0.27358990028E+03  0.34473514004E+03  0.17208332327E+03 0.  0.
        -24    2    5    5    0    0 -0.12142834103E+03 -0.13034899545E+02  0.21400733754E+03  0.25927521431E+03  0.80682994624E+02 0.  0.
          5    1    3    3  501    0 -0.16841294358E+02  0.33568179087E+01  0.23371905889E+02  0.29380834008E+02  0.47000000000E+01 0. -1.
        -13    1    4    4    0    0  0.66468214546E+02  0.79680664038E+02 -0.93327927010E+02  0.13956050203E+03  0.00000000000E+00 0.  1.
         14    1    4    4    0    0  0.48181183139E+02 -0.13670429112E+02 -0.59122293302E+02  0.77483886106E+02  0.00000000000E+00 0. -1.
         -5    1    5    5    0  502  0.23620237705E+02 -0.56332153290E+02  0.59582562736E+02  0.85459925729E+02  0.47000000000E+01 0.  1.
         13    1    6    6    0    0 -0.11100130724E+02 -0.20578815936E+02  0.67099703041E+01  0.24325383222E+02  0.00000000000E+00 0. -1.
        -14    1    6    6    0    0 -0.11032821031E+03  0.75439163911E+01  0.20729736724E+03  0.23494983109E+03  0.00000000000E+00 0.  1.
</event>
<event>
12    1  0.1598254E-001  0.1817509E+03  0.7818608E-02  0.1166174E+00
         21   -1    0    0  501  502  0.00000000000E+00  0.00000000000E+00  0.40264573386E+03  0.40264573386E+03  0.00000000000E+00 0. -1.
         21   -1    0    0  502  503 -0.00000000000E+00 -0.00000000000E+00 -0.10946442537E+03  0.10946442537E+03  0.00000000000E+00 0. -1.
         -6    2    1    2    0  503 -0.59381294980E+02  0.64038481294E+01  0.18257331132E+02  0.18266557099E+03  0.17165731333E+03 0.  0.
        -24    2    3    3    0    0 -0.27737202028E+02  0.27284595352E+02 -0.51896503163E+02  0.10278437990E+03  0.79734435418E+02 0.  0.
          6    2    1    2  501    0  0.59381294980E+02 -0.64038481294E+01  0.27492397735E+03  0.32944458824E+03  0.17141585672E+03 0.  0.
         24    2    5    5    0    0  0.10490437039E+03 -0.18867074095E+02  0.21688746319E+03  0.25449120692E+03  0.79779128207E+02 0.  0.
          5    1    5    5  501    0 -0.45523075408E+02  0.12463225965E+02  0.58036514155E+02  0.74953381321E+02  0.47000000000E+01 0. -1.
        -13    1    6    6    0    0  0.43120640597E+02 -0.92201341402E+01  0.20953530698E+02  0.48820599830E+02  0.00000000000E+00 0.  1.
         14    1    6    6    0    0  0.61783729791E+02 -0.96469399546E+01  0.19593393250E+03  0.20567060709E+03  0.00000000000E+00 0. -1.
         -5    1    3    3    0  503 -0.31644092952E+02 -0.20880747223E+02  0.70153834295E+02  0.79881191088E+02  0.47000000000E+01 0.  1.
         13    1    4    4    0    0 -0.39050975804E+02  0.44095214908E+02 -0.56917555812E+02  0.81908331985E+02  0.00000000000E+00 0. -1.
        -14    1    4    4    0    0  0.11313773776E+02 -0.16810619556E+02  0.50210526484E+01  0.20876047917E+02  0.00000000000E+00 0.  1.
</event>
<event>
12    1  0.1598254E-001  0.2230192E+03  0.7818608E-02  0.1131800E+00
         21   -1    0    0  503  502  0.00000000000E+00  0.00000000000E+00  0.19110675292E+03  0.19110675292E+03  0.00000000000E+00 0. -1.
         21   -1    0    0  501  503 -0.00000000000E+00 -0.00000000000E+00 -0.28505244908E+03  0.28505244908E+03  0.00000000000E+00 0.  1.
          6    2    1    2  501    0 -0.10329249078E+03  0.94295233866E+02 -0.11858520297E+03  0.25258666654E+03  0.17371425955E+03 0.  0.
         24    2    3    3    0    0 -0.92167867850E+02  0.59252793227E+02 -0.69544916956E+01  0.13496338832E+03  0.78491667474E+02 0.  0.
         -6    2    1    2    0  502  0.10329249078E+03 -0.94295233866E+02  0.24639506807E+02  0.22357253545E+03  0.17267496498E+03 0.  0.
        -24    2    5    5    0    0  0.97902071690E+02 -0.28669587488E+02  0.66959895981E+02  0.14515769361E+03  0.78615313123E+02 0.  0.
          5    1    3    3  501    0 -0.11124622934E+02  0.35042440639E+02 -0.11163071127E+03  0.11762327822E+03  0.47000000000E+01 0. -1.
        -13    1    4    4    0    0 -0.29385318415E+02  0.42229617489E+02 -0.36939784294E+02  0.63335497119E+02  0.00000000000E+00 0.  1.
         14    1    4    4    0    0 -0.62782549434E+02  0.17023175738E+02  0.29985292598E+02  0.71627891201E+02  0.00000000000E+00 0. -1.
         -5    1    5    5    0  502  0.53904190933E+01 -0.65625646378E+02 -0.42320389175E+02  0.78414841838E+02  0.47000000000E+01 0.  1.
         13    1    6    6    0    0  0.17713758077E+02  0.25270554387E+02  0.77472785044E+01  0.31818209699E+02  0.00000000000E+00 0. -1.
        -14    1    6    6    0    0  0.80188313613E+02 -0.53940141874E+02  0.59212617477E+02  0.11333948391E+03  0.00000000000E+00 0.  1.
</event>
<event>
12    1  0.1598254E-001  0.2674322E+03  0.7818608E-02  0.1102799E+00
         21   -1    0    0  501  502  0.00000000000E+00  0.00000000000E+00  0.22287563305E+03  0.22287563305E+03  0.00000000000E+00 0.  1.
         21   -1    0    0  502  503 -0.00000000000E+00 -0.00000000000E+00 -0.32737601164E+03  0.32737601164E+03  0.00000000000E+00 0.  1.
         -6    2    1    2    0  503  0.19773786089E+03  0.52951686126E+02 -0.12576489218E+02  0.26772773028E+03  0.17209249486E+03 0.  0.
        -24    2    3    3    0    0  0.13121174750E+03  0.91222840411E+02  0.27653860329E+02  0.18094653394E+03  0.80242026765E+02 0.  0.
          6    2    1    2  501    0 -0.19773786089E+03 -0.52951686126E+02 -0.91923889369E+02  0.28252391441E+03  0.17165552156E+03 0.  0.
         24    2    5    5    0    0 -0.16355495777E+03 -0.18420845965E+02 -0.58596438361E+01  0.18357951514E+03  0.81102103389E+02 0.  0.
          5    1    5    5  501    0 -0.34182903115E+02 -0.34530840161E+02 -0.86064245533E+02  0.98944399270E+02  0.47000000000E+01 0. -1.
        -13    1    6    6    0    0 -0.11801957127E+03 -0.34085502148E+02  0.26360947833E+02  0.12563972393E+03  0.00000000000E+00 0.  1.
         14    1    6    6    0    0 -0.45535386505E+02  0.15664656183E+02 -0.32220591670E+02  0.57939791206E+02  0.00000000000E+00 0. -1.
         -5    1    3    3    0  503  0.66526113387E+02 -0.38271154286E+02 -0.40230349547E+02  0.86781196335E+02  0.47000000000E+01 0.  1.
         13    1    4    4    0    0  0.13699026467E+03  0.92994827824E+02  0.14179776510E+02  0.16617892971E+03  0.00000000000E+00 0. -1.
        -14    1    4    4    0    0 -0.57785171701E+01 -0.17719874128E+01  0.13474083818E+02  0.14767604234E+02  0.00000000000E+00 0.  1.
</event>
<event>
12    1  0.1598254E-001  0.2245186E+03  0.7818608E-02  0.1130669E+00
         21   -1    0    0  501  502  0.00000000000E+00  0.00000000000E+00  0.23690633525E+03  0.23690633525E+03  0.00000000000E+00 0.  1.
         21   -1    0    0  502  503 -0.00000000000E+00 -0.00000000000E+00 -0.21487573028E+03  0.21487573028E+03  0.00000000000E+00 0.  1.
         -6    2    1    2    0  503  0.13704276498E+03  0.46173065611E+02 -0.14175017077E+02  0.22496567431E+03  0.17174385604E+03 0.  0.
        -24    2    3    3    0    0  0.82989702675E+02 -0.29319606994E+02 -0.42028151478E+02  0.12791535614E+03  0.82758943410E+02 0.  0.
          6    2    1    2  501    0 -0.13704276498E+03 -0.46173065611E+02  0.36205622040E+02  0.22681639122E+03  0.17094489416E+03 0.  0.
         24    2    5    5    0    0 -0.40047854513E+02 -0.52179415527E+02 -0.32153555922E+02  0.10790820770E+03  0.79270474173E+02 0.  0.
          5    1    5    5  501    0 -0.96994910465E+02  0.60063499163E+01  0.68359177962E+02  0.11890818352E+03  0.47000000000E+01 0. -1.
        -13    1    6    6    0    0  0.20801795569E+02 -0.71513525258E+01 -0.22721499876E+02  0.31624722899E+02  0.00000000000E+00 0.  1.
         14    1    6    6    0    0 -0.60849650082E+02 -0.45028063002E+02 -0.94320560459E+01  0.76283484805E+02  0.00000000000E+00 0. -1.
         -5    1    3    3    0  503  0.54053062303E+02  0.75492672605E+02  0.27853134400E+02  0.97050318172E+02  0.47000000000E+01 0.  1.
         11    1    4    4    0    0  0.15359618391E+01  0.23538502409E+02 -0.59435686740E+01  0.24325835711E+02  0.00000000000E+00 0. -1.
        -12    1    4    4    0    0  0.81453740836E+02 -0.52858109403E+02 -0.36084582804E+02  0.10358952043E+03  0.00000000000E+00 0.  1.
</event>
<event>
12    1  0.1598254E-001  0.2323985E+03  0.7818608E-02  0.1124975E+00
         21   -1    0    0  503  502  0.00000000000E+00  0.00000000000E+00  0.14095678021E+03  0.14095678021E+03  0.00000000000E+00 0. -1.
         21   -1    0    0  501  503 -0.00000000000E+00 -0.00000000000E+00 -0.60217852571E+03  0.60217852571E+03  0.00000000000E+00 0.  1.
          6    2    1    2  501    0  0.12483252766E+03  0.93947984420E+02 -0.45477639038E+03  0.51071580583E+03  0.17204559087E+03 0.  0.
         24    2    3    3    0    0  0.11274578918E+03  0.26627416528E+01 -0.28834983112E+03  0.32045552510E+03  0.82628174932E+02 0.  0.
         -6    2    1    2    0  502 -0.12483252766E+03 -0.93947984420E+02 -0.64453551218E+01  0.23241950009E+03  0.17195318457E+03 0.  0.
        -24    2    5    5    0    0 -0.62885934987E+02 -0.10350412427E+03 -0.52475853547E+02  0.15451188212E+03  0.80327218000E+02 0.  0.
          5    1    3    3  501    0  0.12086738480E+02  0.91285242767E+02 -0.16642655926E+03  0.19026028073E+03  0.47000000000E+01 0. -1.
        -13    1    4    4    0    0  0.65049464085E+02  0.36911460838E+02 -0.20723106831E+03  0.22031478478E+03  0.00000000000E+00 0.  1.
         14    1    4    4    0    0  0.47696325092E+02 -0.34248719185E+02 -0.81118762806E+02  0.10014074032E+03  0.00000000000E+00 0. -1.
         -5    1    5    5    0  502 -0.61946592671E+02  0.95561398506E+01  0.46030498426E+02  0.77907617970E+02  0.47000000000E+01 0.  1.
         11    1    6    6    0    0 -0.80197729645E+02 -0.98725282721E+02 -0.43439654940E+02  0.13440744366E+03  0.00000000000E+00 0. -1.
        -12    1    6    6    0    0  0.17311794659E+02 -0.47788415495E+01 -0.90361986071E+01  0.20104438468E+02  0.00000000000E+00 0.  1.
</event>
<event>
12    1  0.1598254E-001  0.1841887E+03  0.7818608E-02  0.1164684E+00
         21   -1    0    0  503  502  0.00000000000E+00  0.00000000000E+00  0.42675733647E+03  0.42675733647E+03  0.00000000000E+00 0. -1.
         21   -1    0    0  501  503 -0.00000000000E+00 -0.00000000000E+00 -0.77915338165E+02  0.77915338165E+02  0.00000000000E+00 0. -1.
          6    2    1    2  501    0  0.57592249398E+01  0.57405494569E+02  0.17509797619E+03  0.25413536877E+03  0.17491976708E+03 0.  0.
         24    2    3    3    0    0 -0.42505640125E+02 -0.37481565634E+01  0.32465076621E+02  0.91545392799E+02  0.74201075617E+02 0.  0.
         -6    2    1    2    0  502 -0.57592249398E+01 -0.57405494569E+02  0.17374402211E+03  0.25053730586E+03  0.17103624449E+03 0.  0.
        -24    2    5    5    0    0 -0.55999847502E+02 -0.77123521549E+01  0.97736796203E+02  0.14664930391E+03  0.93584580517E+02 0.  0.
          5    1    3    3  501    0  0.48264865065E+02  0.61153651132E+02  0.14263289957E+03  0.16258997597E+03  0.47000000000E+01 0. -1.
        -11    1    4    4    0    0 -0.50294158475E+02 -0.15948684077E+02  0.47270186288E+02  0.70840196303E+02  0.00000000000E+00 0.  1.
         12    1    4    4    0    0  0.77885183500E+01  0.12200527514E+02 -0.14805109667E+02  0.20705196497E+02  0.00000000000E+00 0. -1.
         -5    1    5    5    0  502  0.50240622562E+02 -0.49693142414E+02  0.76007225905E+02  0.10388800195E+03  0.47000000000E+01 0.  1.
         13    1    6    6    0    0 -0.28579363676E+02 -0.50147399732E+02  0.41750416166E+02  0.71236500322E+02  0.00000000000E+00 0. -1.
        -14    1    6    6    0    0 -0.27420483826E+02  0.42435047577E+02  0.55986380036E+02  0.75412803593E+02  0.00000000000E+00 0.  1.
</event>
<event>
12    1  0.1598254E-001  0.1869250E+03  0.7818608E-02  0.1164187E+00
         21   -1    0    0  501  502  0.00000000000E+00  0.00000000000E+00  0.46261662903E+03  0.46261662903E+03  0.00000000000E+00 0.  1.
         21   -1    0    0  502  503 -0.00000000000E+00 -0.00000000000E+00 -0.91408852412E+02  0.91408852412E+02  0.00000000000E+00 0.  1.
         -6    2    1    2    0  503 -0.29509533844E+02 -0.12298879987E+02  0.58556434018E+02  0.19588212419E+03  0.18417077829E+03 0.  0.
        -24    2    3    3    0    0  0.36744284106E+02  0.31139854318E+02  0.69315380542E+02  0.11579256831E+03  0.79268303592E+02 0.  0.
          6    2    1    2  501    0  0.29509533844E+02  0.12298879987E+02  0.31265134260E+03  0.35814335725E+03  0.17173737880E+03 0.  0.
         24    2    5    5    0    0  0.16027589411E+02 -0.22054433248E+02  0.62233758345E+02  0.10497746409E+03  0.80024656460E+02 0.  0.
          5    1    5    5  501    0  0.13481944433E+02  0.34353313235E+02  0.25041758425E+03  0.25316589316E+03  0.47000000000E+01 0. -1.
        -13    1    6    6    0    0  0.15424700656E+02  0.98628231313E+01  0.69807446223E+02  0.72168387945E+02  0.00000000000E+00 0.  1.
         14    1    6    6    0    0  0.60288875453E+00 -0.31917256379E+02 -0.75736878776E+01  0.32809076148E+02  0.00000000000E+00 0. -1.
         -5    1    3    3    0  503 -0.66253817950E+02 -0.43438734305E+02 -0.10758946523E+02  0.80089555881E+02  0.47000000000E+01 0.  1.
         13    1    4    4    0    0 -0.24655718773E+02  0.26903590214E+01  0.22682481589E+02  0.33610079900E+02  0.00000000000E+00 0. -1.
        -14    1    4    4    0    0  0.61400002879E+02  0.28449495296E+02  0.46632898953E+02  0.82182488408E+02  0.00000000000E+00 0.  1.
</event>
<event>
12    1  0.1598254E-001  0.2440740E+03  0.7818608E-02  0.1118237E+00
         21   -1    0    0  503  502  0.00000000000E+00  0.00000000000E+00  0.12778353001E+03  0.12778353001E+03  0.00000000000E+00 0.  1.
         21   -1    0    0  501  503 -0.00000000000E+00 -0.00000000000E+00 -0.57700097623E+03  0.57700097623E+03  0.00000000000E+00 0.  1.
          6    2    1    2  501    0  0.13504352574E+03  0.94298565852E+02 -0.38528766059E+03  0.45247692787E+03  0.17076245339E+03 0.  0.
         24    2    3    3    0    0  0.10536803205E+03 -0.63520226994E+00 -0.26531850369E+03  0.29656751872E+03  0.80346493997E+02 0.  0.
         -6    2    1    2    0  502 -0.13504352574E+03 -0.94298565852E+02 -0.63929785632E+02  0.25230757837E+03  0.18011974697E+03 0.  0.
        -24    2    5    5    0    0 -0.50089648486E+02  0.24959856701E+02 -0.15868205775E+02  0.98126716822E+02  0.79025851896E+02 0.  0.
          5    1    3    3  501    0  0.29675493690E+02  0.94933768122E+02 -0.11996915690E+03  0.15590940915E+03  0.47000000000E+01 0. -1.
        -11    1    4    4    0    0  0.11640629498E+03 -0.29708974970E+00 -0.20950912100E+03  0.23967600120E+03  0.00000000000E+00 0.  1.
         12    1    4    4    0    0 -0.11038262923E+02 -0.33811252024E+00 -0.55809382695E+02  0.56891517516E+02  0.00000000000E+00 0. -1.
         -5    1    5    5    0  502 -0.84953877257E+02 -0.11925842255E+03 -0.48061579857E+02  0.15418086155E+03  0.47000000000E+01 0.  1.
         11    1    6    6    0    0 -0.33242811531E+02 -0.13205050858E+02 -0.36913597927E+02  0.51401085578E+02  0.00000000000E+00 0. -1.
        -12    1    6    6    0    0 -0.16846836954E+02  0.38164907559E+02  0.21045392152E+02  0.46725631244E+02  0.00000000000E+00 0.  1.
</event>
<event>
12    1  0.1598254E-001  0.2060180E+03  0.7818608E-02  0.1144995E+00
         21   -1    0    0  501  502  0.00000000000E+00  0.00000000000E+00  0.48626080616E+03  0.48626080616E+03  0.00000000000E+00 0. -1.
         21   -1    0    0  502  503 -0.00000000000E+00 -0.00000000000E+00 -0.14495623113E+03  0.14495623113E+03  0.00000000000E+00 0.  1.
         -6    2    1    2    0  503  0.11368492333E+03 -0.75207579528E+01 -0.28975348529E+02  0.20804561931E+03  0.17164668741E+03 0.  0.
        -24    2    3    3    0    0  0.96765192408E+02  0.46930031230E+02  0.13261167727E+02  0.13693177367E+03  0.83716914525E+02 0.  0.
          6    2    1    2  501    0 -0.11368492333E+03  0.75207579528E+01  0.37027992356E+03  0.42317141798E+03  0.17025276388E+03 0.  0.
         24    2    5    5    0    0  0.59604976501E+01  0.10238219408E+02  0.19381644974E+03  0.20990196646E+03  0.79709915725E+02 0.  0.
          5    1    5    5  501    0 -0.11964542098E+03 -0.27174614555E+01  0.17646347381E+03  0.21326945151E+03  0.47000000000E+01 0. -1.
        -11    1    6    6    0    0 -0.58589670321E+01  0.16907516614E+02  0.24569005696E+01  0.18061782115E+02  0.00000000000E+00 0.  1.
         12    1    6    6    0    0  0.11819464682E+02 -0.66692972061E+01  0.19135954917E+03  0.19184018435E+03  0.00000000000E+00 0. -1.
         -5    1    3    3    0  503  0.16919730926E+02 -0.54450789182E+02 -0.42236516255E+02  0.71113845646E+02  0.47000000000E+01 0.  1.
         13    1    4    4    0    0  0.24868955490E+02  0.53680039095E+02  0.24155381597E+02  0.63902222219E+02  0.00000000000E+00 0. -1.
        -14    1    4    4    0    0  0.71896236917E+02 -0.67500078651E+01 -0.10894213871E+02  0.73029551450E+02  0.00000000000E+00 0.  1.
</event>
<event>
12    1  0.1598254E-001  0.2239279E+03  0.7818608E-02  0.1131873E+00
         21   -1    0    0  503  502  0.00000000000E+00  0.00000000000E+00  0.74850308881E+03  0.74850308881E+03  0.00000000000E+00 0.  1.
         21   -1    0    0  501  503 -0.00000000000E+00 -0.00000000000E+00 -0.10860056865E+03  0.10860056865E+03  0.00000000000E+00 0. -1.
          6    2    1    2  501    0  0.96089657247E+02 -0.10733999121E+03  0.52274745092E+02  0.22994855574E+03  0.17143101635E+03 0.  0.
         24    2    3    3    0    0  0.50852594858E+02 -0.12867463152E+03  0.56466115750E+02  0.17953807787E+03  0.99510562133E+02 0.  0.
         -6    2    1    2    0  502 -0.96089657247E+02  0.10733999121E+03  0.58762777506E+03  0.62715510173E+03  0.16511215477E+03 0.  0.
        -24    2    5    5    0    0  0.12813384710E+02  0.48891361053E+02  0.23155364904E+03  0.25021082450E+03  0.80211073409E+02 0.  0.
          5    1    3    3  501    0  0.45237062389E+02  0.21334640311E+02 -0.41913706579E+01  0.50410477867E+02  0.47000000000E+01 0. -1.
        -13    1    4    4    0    0  0.14625664974E+02  0.15547977402E+02  0.32082281950E+01  0.21585699095E+02  0.00000000000E+00 0.  1.
         14    1    4    4    0    0  0.36226929883E+02 -0.14422260893E+03  0.53257887555E+02  0.15795237878E+03  0.00000000000E+00 0. -1.
         -5    1    5    5    0  502 -0.10890304196E+03  0.58448630160E+02  0.35607412602E+03  0.37694427723E+03  0.47000000000E+01 0.  1.
         13    1    6    6    0    0  0.16861615691E+02 -0.19206130283E+02  0.47810339501E+02  0.54212711493E+02  0.00000000000E+00 0. -1.
        -14    1    6    6    0    0 -0.40482309811E+01  0.68097491335E+02  0.18374330954E+03  0.19599811300E+03  0.00000000000E+00 0.  1.
</event>
<event>
12    1  0.1598254E-001  0.3537978E+03  0.7818608E-02  0.1062271E+00
         21   -1    0    0  501  502  0.00000000000E+00  0.00000000000E+00  0.37752962085E+03  0.37752962085E+03  0.00000000000E+00 0. -1.
         21   -1    0    0  502  503 -0.00000000000E+00 -0.00000000000E+00 -0.34194308914E+03  0.34194308914E+03  0.00000000000E+00 0. -1.
         -6    2    1    2    0  503 -0.27272608739E+03  0.12999674959E+03 -0.71580470587E+02  0.36096626357E+03  0.18410379142E+03 0.  0.
        -24    2    3    3    0    0 -0.22601003625E+03  0.68280096282E+02 -0.11225412406E+03  0.27340045508E+03  0.80025698590E+02 0.  0.
          6    2    1    2  501    0  0.27272608739E+03 -0.12999674959E+03  0.10716700230E+03  0.35850644642E+03  0.16050991275E+03 0.  0.
         24    2    5    5    0    0  0.18835953670E+03 -0.42831319780E+02  0.21722169990E+02  0.21005296414E+03  0.79602500327E+02 0.  0.
          5    1    5    5  501    0  0.84366550698E+02 -0.87165429811E+02  0.85444832310E+02  0.14845348227E+03  0.47000000000E+01 0. -1.
        -13    1    6    6    0    0  0.25385644643E+02 -0.35873032821E+02  0.16199086219E+02  0.46837120236E+02  0.00000000000E+00 0.  1.
         14    1    6    6    0    0  0.16297389205E+03 -0.69582869594E+01  0.55230837710E+01  0.16321584391E+03  0.00000000000E+00 0. -1.
         -5    1    3    3    0  503 -0.46716051147E+02  0.61716653308E+02  0.40673653471E+02  0.87565808493E+02  0.47000000000E+01 0.  1.
         13    1    4    4    0    0 -0.11842789133E+03  0.19798424773E+02 -0.97119255348E+02  0.15443216254E+03  0.00000000000E+00 0. -1.
        -14    1    4    4    0    0 -0.10758214492E+03  0.48481671509E+02 -0.15134868710E+02  0.11896829253E+03  0.00000000000E+00 0.  1.
</event>
<event>
12    1  0.1598254E-001  0.2029768E+03  0.7818608E-02  0.1147291E+00
         21   -1    0    0  503  502  0.00000000000E+00  0.00000000000E+00  0.24234630676E+03  0.24234630676E+03  0.00000000000E+00 0. -1.
         21   -1    0    0  501  503 -0.00000000000E+00 -0.00000000000E+00 -0.29491222870E+03  0.29491222870E+03  0.00000000000E+00 0. -1.
          6    2    1    2  501    0 -0.98187224651E+02 -0.39932931177E+02  0.14866180003E+03  0.25144008081E+03  0.17287687344E+03 0.  0.
         24    2    3    3    0    0  0.60276365098E+01 -0.52058116948E+02  0.91683343991E+02  0.13195622470E+03  0.79121613547E+02 0.  0.
         -6    2    1    2    0  502  0.98187224651E+02  0.39932931177E+02 -0.20122772197E+03  0.28581845466E+03  0.17310177022E+03 0.  0.
        -24    2    5    5    0    0  0.12759282470E+02 -0.11744912051E+02 -0.15455819246E+03  0.17550677000E+03  0.81324345753E+02 0.  0.
          5    1    3    3  501    0 -0.10421486116E+03  0.12125185771E+02  0.56978456041E+02  0.11948385610E+03  0.47000000000E+01 0. -1.
        -11    1    4    4    0    0  0.27502471990E+02  0.93959935965E+01  0.20955246721E+02  0.35830057582E+02  0.00000000000E+00 0.  1.
         12    1    4    4    0    0 -0.21474835480E+02 -0.61454110545E+02  0.70728097270E+02  0.96126167120E+02  0.00000000000E+00 0. -1.
         -5    1    5    5    0  502  0.85427942181E+02  0.51677843228E+02 -0.46669529511E+02  0.11031168465E+03  0.47000000000E+01 0.  1.
         13    1    6    6    0    0  0.23416295622E+02  0.21611326453E+02 -0.22818419896E+02  0.39192507170E+02  0.00000000000E+00 0. -1.
        -14    1    6    6    0    0 -0.10657013152E+02 -0.33356238504E+02 -0.13173977256E+03  0.13631426283E+03  0.00000000000E+00 0.  1.
</event>
<event>
12    1  0.1598254E-001  0.2141063E+03  0.7818608E-02  0.1138799E+00
         21   -1    0    0  501  502  0.00000000000E+00  0.00000000000E+00  0.43461434231E+03  0.43461434231E+03  0.00000000000E+00 0.  1.
         21   -1    0    0  502  503 -0.00000000000E+00 -0.00000000000E+00 -0.11828835489E+03  0.11828835489E+03  0.00000000000E+00 0.  1.
         -6    2    1    2    0  503  0.12197349223E+03 -0.36830888078E+02  0.64024991796E+02  0.22347419122E+03  0.17206820579E+03 0.  0.
        -24    2    3    3    0    0  0.39396914348E+02  0.42465940047E+02  0.18114294108E+02  0.10003691838E+03  0.79522226222E+02 0.  0.
          6    2    1    2  501    0 -0.12197349223E+03  0.36830888078E+02  0.25230099562E+03  0.32942850598E+03  0.16921377319E+03 0.  0.
         24    2    5    5    0    0 -0.42833948295E+02  0.73075200371E+02  0.98873257215E+02  0.15296638965E+03  0.80299833956E+02 0.  0.
          5    1    5    5  501    0 -0.79139543931E+02 -0.36244312293E+02  0.15342773841E+03  0.17646211633E+03  0.47000000000E+01 0. -1.
        -11    1    6    6    0    0 -0.86492449010E+01  0.61394438139E+01 -0.13873939982E+02  0.17463917611E+02  0.00000000000E+00 0.  1.
         12    1    6    6    0    0 -0.34184703394E+02  0.66935756557E+02  0.11274719720E+03  0.13550247204E+03  0.00000000000E+00 0. -1.
         -5    1    3    3    0  503  0.82576577879E+02 -0.79296828125E+02  0.45910697688E+02  0.12343727284E+03  0.47000000000E+01 0.  1.
         13    1    4    4    0    0 -0.66123781884E+01  0.18768586768E+02 -0.25507721277E+02  0.32351618805E+02  0.00000000000E+00 0. -1.
        -14    1    4    4    0    0  0.46009292536E+02  0.23697353279E+02  0.43622015384E+02  0.67685299573E+02  0.00000000000E+00 0.  1.
</event>
<event>
12    1  0.1598254E-001  0.1941393E+03  0.7818608E-02  0.1154808E+00
         21   -1    0    0  501  502  0.00000000000E+00  0.00000000000E+00  0.38028421300E+03  0.38028421300E+03  0.00000000000E+00 0.  1.
         21   -1    0    0  502  503 -0.00000000000E+00 -0.00000000000E+00 -0.35066147608E+03  0.35066147608E+03  0.00000000000E+00 0. -1.
         -6    2    1    2    0  503  0.74645640133E+02  0.50531342855E+02 -0.29477548906E+03  0.35289242326E+03  0.17179954961E+03 0.  0.
        -24    2    3    3    0    0  0.96248537310E+02  0.77710945263E+02 -0.27683452748E+03  0.31353020717E+03  0.79756274072E+02 0.  0.
          6    2    1    2  501    0 -0.74645640133E+02 -0.50531342855E+02  0.32439822597E+03  0.37805326582E+03  0.17194381228E+03 0.  0.
         24    2    5    5    0    0 -0.10014453211E+03 -0.81894648464E+02  0.27889540997E+03  0.31700863710E+03  0.77305663053E+02 0.  0.
          5    1    5    5  501    0  0.25498891976E+02  0.31363305609E+02  0.45502816007E+02  0.61044628718E+02  0.47000000000E+01 0. -1.
        -13    1    6    6    0    0 -0.67388328929E+02 -0.11189643711E+02  0.92579434878E+02  0.11505366906E+03  0.00000000000E+00 0.  1.
         14    1    6    6    0    0 -0.32756203179E+02 -0.70705004753E+02  0.18631597509E+03  0.20195496804E+03  0.00000000000E+00 0. -1.
         -5    1    3    3    0  503 -0.21602897177E+02 -0.27179602408E+02 -0.17940961578E+02  0.39362216095E+02  0.47000000000E+01 0.  1.
         11    1    4    4    0    0  0.31604204952E+02 -0.52826017776E+01 -0.12342107674E+03  0.12751272029E+03  0.00000000000E+00 0. -1.
        -12    1    4    4    0    0  0.64644332358E+02  0.82993547041E+02 -0.15341345074E+03  0.18601748688E+03  0.00000000000E+00 0.  1.
</event>
<event>
12    1  0.1598254E-001  0.2045255E+03  0.7818608E-02  0.1146080E+00
         21   -1    0    0  501  502  0.00000000000E+00  0.00000000000E+00  0.25349010316E+03  0.25349010316E+03  0.00000000000E+00 0.  1.
         21   -1    0    0  502  503 -0.00000000000E+00 -0.00000000000E+00 -0.27773787767E+03  0.27773787767E+03  0.00000000000E+00 0. -1.
         -6    2    1    2    0  503 -0.34541703187E+02  0.10616850430E+03 -0.18165260653E+03  0.27354768756E+03  0.17136448682E+03 0.  0.
        -24    2    3    3    0    0  0.36435055576E+02  0.94524303787E+02 -0.15012131310E+03  0.19487367561E+03  0.71951257933E+02 0.  0.
          6    2    1    2  501    0  0.34541703187E+02 -0.10616850430E+03  0.15740483201E+03  0.25768029328E+03  0.17075705501E+03 0.  0.
         24    2    5    5    0    0 -0.30888145262E+02 -0.10551973849E+03  0.11554690324E+03  0.17986215808E+03  0.83131319784E+02 0.  0.
          5    1    5    5  501    0  0.65429848449E+02 -0.64876581170E+00  0.41857928770E+02  0.77818135200E+02  0.47000000000E+01 0. -1.
        -13    1    6    6    0    0  0.21813819717E+02 -0.33536893898E+02  0.92014989934E+01  0.41051596397E+02  0.00000000000E+00 0.  1.
         14    1    6    6    0    0 -0.52701964978E+02 -0.71982844595E+02  0.10634540425E+03  0.13881056168E+03  0.00000000000E+00 0. -1.
         -5    1    3    3    0  503 -0.70976758763E+02  0.11644200517E+02 -0.31531293435E+02  0.78674011947E+02  0.47000000000E+01 0.  1.
         13    1    4    4    0    0  0.57820858839E+01 -0.69091578743E+01 -0.43977299460E+02  0.44890665483E+02  0.00000000000E+00 0. -1.
        -14    1    4    4    0    0  0.30652969692E+02  0.10143346166E+03 -0.10614401364E+03  0.14998301013E+03  0.00000000000E+00 0.  1.
</event>
<event>
12    1  0.1598254E-001  0.1814871E+03  0.7818608E-02  0.1166434E+00
         21   -1    0    0  501  502  0.00000000000E+00  0.00000000000E+00  0.13292539408E+03  0.13292539408E+03  0.00000000000E+00 0. -1.
         21   -1    0    0  502  503 -0.00000000000E+00 -0.00000000000E+00 -0.39217515828E+03  0.39217515828E+03  0.00000000000E+00 0. -1.
         -6    2    1    2    0  503 -0.26930982950E+02 -0.50785422763E+02 -0.28906903620E+03  0.34118006967E+03  0.17186766782E+03 0.  0.
        -24    2    3    3    0    0  0.15463921661E+02 -0.82271326865E+02 -0.25133384694E+03  0.27610530803E+03  0.77831448690E+02 0.  0.
          6    2    1    2  501    0  0.26930982950E+02  0.50785422763E+02  0.29819271999E+02  0.18392048269E+03  0.17214272556E+03 0.  0.
         24    2    5    5    0    0  0.39454731413E+02 -0.28752606211E+02  0.40956878101E+02  0.10250010073E+03  0.80283351898E+02 0.  0.
          5    1    5    5  501    0 -0.12523748463E+02  0.79538028974E+02 -0.11137606102E+02  0.81420381959E+02  0.47000000000E+01 0. -1.
        -11    1    6    6    0    0 -0.12915720916E+02  0.14181581669E+02 -0.59939524471E+01  0.20096282526E+02  0.00000000000E+00 0.  1.
         12    1    6    6    0    0  0.52370452329E+02 -0.42934187881E+02  0.46950830548E+02  0.82403818208E+02  0.00000000000E+00 0. -1.
         -5    1    3    3    0  503 -0.42394904611E+02  0.31485904102E+02 -0.37735189255E+02  0.65074761638E+02  0.47000000000E+01 0.  1.
         11    1    4    4    0    0 -0.23293416261E+02 -0.14949822639E+02 -0.12313835988E+03  0.12621068145E+03  0.00000000000E+00 0. -1.
        -12    1    4    4    0    0  0.38757337922E+02 -0.67321504227E+02 -0.12819548707E+03  0.14989462658E+03  0.00000000000E+00 0.  1.
</event>
<event>
12    1  0.1598254E-001  0.2714626E+03  0.7818608E-02  0.1100457E+00
         21   -1    0    0  501  502  0.00000000000E+00  0.00000000000E+00  0.22146430791E+03  0.22146430791E+03  0.00000000000E+00 0. -1.
         21   -1    0    0  502  503 -0.00000000000E+00 -0.00000000000E+00 -0.33653566286E+03  0.33653566286E+03  0.00000000000E+00 0.  1.
         -6    2    1    2    0  503  0.18102516462E+03 -0.10589683576E+03 -0.87516970285E+02  0.28514256713E+03  0.17222895649E+03 0.  0.
        -24    2    3    3    0    0  0.17050598848E+03 -0.38355743472E+02 -0.27074965710E+02  0.19377639105E+03  0.79200888859E+02 0.  0.
          6    2    1    2  501    0 -0.18102516462E+03  0.10589683576E+03 -0.27554384662E+02  0.27285740364E+03  0.17235912670E+03 0.  0.
         24    2    5    5    0    0 -0.10858419686E+03  0.13558487844E+03 -0.55960974911E+01  0.19141214557E+03  0.80209139720E+02 0.  0.
          5    1    5    5  501    0 -0.72440967755E+02 -0.29688042672E+02 -0.21958287171E+02  0.81445258073E+02  0.47000000000E+01 0. -1.
        -11    1    6    6    0    0 -0.80185504667E+02  0.96241838409E+02 -0.40486278471E+02  0.13164856765E+03  0.00000000000E+00 0.  1.
         12    1    6    6    0    0 -0.28398692196E+02  0.39343040027E+02  0.34890180980E+02  0.59763577920E+02  0.00000000000E+00 0. -1.
         -5    1    3    3    0  503  0.10519176141E+02 -0.67541092292E+02 -0.60442004574E+02  0.91366176081E+02  0.47000000000E+01 0.  1.
         11    1    4    4    0    0  0.15181313408E+03 -0.59404226346E+02 -0.17123851521E+02  0.16391862639E+03  0.00000000000E+00 0. -1.
        -12    1    4    4    0    0  0.18692854400E+02  0.21048482874E+02 -0.99511141899E+01  0.29857764661E+02  0.00000000000E+00 0.  1.
</event>
<event>
12    1  0.1598254E-001  0.2022178E+03  0.7818608E-02  0.1148073E+00
         21   -1    0    0  503  502  0.00000000000E+00  0.00000000000E+00  0.15614787474E+04  0.15614787474E+04  0.00000000000E+00 0.  1.
         21   -1    0    0  501  503 -0.00000000000E+00 -0.00000000000E+00 -0.35719429077E+02  0.35719429077E+02  0.00000000000E+00 0.  1.
          6    2    1    2  501    0  0.39686389247E+02  0.98731401975E+02  0.34905260171E+03  0.40339776314E+03  0.17195678911E+03 0.  0.
         24    2    3    3    0    0 -0.43916097107E+02  0.45823617724E+02  0.14202285791E+03  0.17389391965E+03  0.77718566620E+02 0.  0.
         -6    2    1    2    0  502 -0.39686389247E+02 -0.98731401975E+02  0.11767067166E+04  0.11938004133E+04  0.17087372742E+03 0.  0.
        -24    2    5    5    0    0  0.11614856314E+02 -0.58524323570E+02  0.10097785037E+04  0.10145365151E+04  0.77921194521E+02 0.  0.
          5    1    3    3  501    0  0.83602486354E+02  0.52907784251E+02  0.20702974380E+03  0.22950384349E+03  0.47000000000E+01 0. -1.
        -11    1    4    4    0    0 -0.37698962794E+02  0.43100381795E+02  0.15165807660E+03  0.16210807169E+03  0.00000000000E+00 0.  1.
         12    1    4    4    0    0 -0.62171343133E+01  0.27232359291E+01 -0.96352186954E+01  0.11785847967E+02  0.00000000000E+00 0. -1.
         -5    1    5    5    0  502 -0.51301245561E+02 -0.40207078405E+02  0.16692821286E+03  0.17926389821E+03  0.47000000000E+01 0.  1.
         11    1    6    6    0    0 -0.25254069508E+02 -0.99868995595E+01  0.13904350176E+03  0.14167075058E+03  0.00000000000E+00 0. -1.
        -12    1    6    6    0    0  0.36868925822E+02 -0.48537424010E+02  0.87073500198E+03  0.87286576454E+03  0.00000000000E+00 0.  1.
</event>
<event>
12    1  0.1598254E-001  0.2620543E+03  0.7818608E-02  0.1105926E+00
         21   -1    0    0  501  502  0.00000000000E+00  0.00000000000E+00  0.10553165036E+03  0.10553165036E+03  0.00000000000E+00 0. -1.
         21   -1    0    0  502  503 -0.00000000000E+00 -0.00000000000E+00 -0.71678888960E+03  0.71678888960E+03  0.00000000000E+00 0.  1.
         -6    2    1    2    0  503  0.12201170099E+03  0.15553863065E+03 -0.18067637726E+03  0.31830236748E+03  0.17202709973E+03 0.  0.
        -24    2    3    3    0    0  0.57639621035E-01  0.68435579839E+02 -0.11464710162E+03  0.15446803107E+03  0.77672278211E+02 0.  0.
          6    2    1    2  501    0 -0.12201170099E+03 -0.15553863065E+03 -0.43058086198E+03  0.50401817248E+03  0.17191660388E+03 0.  0.
         24    2    5    5    0    0 -0.72543111114E+02 -0.17952439889E+03 -0.34735956692E+03  0.40416662060E+03  0.72114323894E+02 0.  0.
          5    1    5    5  501    0 -0.49468589878E+02  0.23985768237E+02 -0.83221295061E+02  0.99851551886E+02  0.47000000000E+01 0. -1.
        -13    1    6    6    0    0 -0.62250646272E+02 -0.62218195369E+02 -0.16690937412E+03  0.18869283496E+03  0.00000000000E+00 0.  1.
         14    1    6    6    0    0 -0.10292464842E+02 -0.11730620352E+03 -0.18045019280E+03  0.21547378564E+03  0.00000000000E+00 0. -1.
         -5    1    3    3    0  503  0.12195406137E+03  0.87103050811E+02 -0.66029275636E+02  0.16383433641E+03  0.47000000000E+01 0.  1.
         13    1    4    4    0    0  0.70084430800E+01  0.23806304500E+02  0.60952766070E+01  0.25554076099E+02  0.00000000000E+00 0. -1.
        -14    1    4    4    0    0 -0.69508034590E+01  0.44629275338E+02 -0.12074237823E+03  0.12891395497E+03  0.00000000000E+00 0.  1.
</event>
<event>
12    1  0.1598254E-001  0.1883800E+03  0.7818608E-02  0.1160210E+00
         21   -1    0    0  501  502  0.00000000000E+00  0.00000000000E+00  0.28277090830E+03  0.28277090830E+03  0.00000000000E+00 0. -1.
         21   -1    0    0  502  503 -0.00000000000E+00 -0.00000000000E+00 -0.18603109353E+03  0.18603109353E+03  0.00000000000E+00 0. -1.
         -6    2    1    2    0  503 -0.78095176092E+01  0.75880309295E+02 -0.86339632718E+02  0.20611378276E+03  0.17090801433E+03 0.  0.
        -24    2    3    3    0    0  0.33192069296E+02  0.24842631779E+02 -0.11305778669E+03  0.13524824525E+03  0.61572354958E+02 0.  0.
          6    2    1    2  501    0  0.78095176092E+01 -0.75880309295E+02  0.18307944749E+03  0.26268821907E+03  0.17224461222E+03 0.  0.
         24    2    5    5    0    0  0.70051382706E+02 -0.28122157546E+02  0.10549951523E+03  0.15225440759E+03  0.79706994370E+02 0.  0.
          5    1    5    5  501    0 -0.62241865097E+02 -0.47758151750E+02  0.77579932258E+02  0.11043381148E+03  0.47000000000E+01 0. -1.
        -13    1    6    6    0    0  0.35135733283E+02  0.27056735780E+02  0.39001680196E+02  0.59056902751E+02  0.00000000000E+00 0.  1.
         14    1    6    6    0    0  0.34915649423E+02 -0.55178893326E+02  0.66497835034E+02  0.93197504835E+02  0.00000000000E+00 0. -1.
         -5    1    3    3    0  503 -0.41001586905E+02  0.51037677517E+02  0.26718153969E+02  0.70865537510E+02  0.47000000000E+01 0.  1.
         11    1    4    4    0    0  0.20463635290E+02  0.36605184441E+02 -0.10990286763E+03  0.11763222437E+03  0.00000000000E+00 0. -1.
        -12    1    4    4    0    0  0.12728434006E+02 -0.11762552662E+02 -0.31549190569E+01  0.17616020880E+02  0.00000000000E+00 0.  1.
</event>
<event>
12    1  0.1598254E-001  0.2278620E+03  0.7818608E-02  0.1128469E+00
         21   -1    0    0  501  502  0.00000000000E+00  0.00000000000E+00  0.29523198510E+03  0.29523198510E+03  0.00000000000E+00 0. -1.
         21   -1    0    0  502  503 -0.00000000000E+00 -0.00000000000E+00 -0.18036665459E+03  0.18036665459E+03  0.00000000000E+00 0.  1.
         -6    2    1    2    0  503  0.11175009434E+03  0.96686494411E+02  0.10050917176E+03  0.24904457116E+03  0.17344954029E+03 0.  0.
        -24    2    3    3    0    0  0.44017049933E+02  0.22653218445E+02 -0.15397979940E+02  0.95665142709E+02  0.80399333035E+02 0.  0.
          6    2    1    2  501    0 -0.11175009434E+03 -0.96686494411E+02  0.14356158750E+02  0.22655406853E+03  0.17112651719E+03 0.  0.
         24    2    5    5    0    0 -0.16858952452E+02 -0.95035381684E+02 -0.17224429675E+02  0.12642176332E+03  0.79811234877E+02 0.  0.
          5    1    5    5  501    0 -0.94891141891E+02 -0.16511127271E+01  0.31580588426E+02  0.10013230522E+03  0.47000000000E+01 0. -1.
        -11    1    6    6    0    0 -0.41710480692E+02 -0.28552048515E+02  0.78371872258E+01  0.51150808181E+02  0.00000000000E+00 0.  1.
         12    1    6    6    0    0  0.24851528240E+02 -0.66483333168E+02 -0.25061616901E+02  0.75270955134E+02  0.00000000000E+00 0. -1.
         -5    1    3    3    0  503  0.67733044409E+02  0.74033275966E+02  0.11590715170E+03  0.15337942845E+03  0.47000000000E+01 0.  1.
         11    1    4    4    0    0  0.96512583332E+01  0.49467491354E+02 -0.37119399095E+01  0.50536699399E+02  0.00000000000E+00 0. -1.
        -12    1    4    4    0    0  0.34365791600E+02 -0.26814272909E+02 -0.11686040031E+02  0.45128443310E+02  0.00000000000E+00 0.  1.
</event>
<event>
12    1  0.1598254E-001  0.1761219E+03  0.7818608E-02  0.1172830E+00
         21   -1    0    0  501  502  0.00000000000E+00  0.00000000000E+00  0.19689897959E+04  0.19689897959E+04  0.00000000000E+00 0. -1.
         21   -1    0    0  502  503 -0.00000000000E+00 -0.00000000000E+00 -0.19360716030E+02  0.19360716030E+02  0.00000000000E+00 0. -1.
         -6    2    1    2    0  503  0.20830918364E+02  0.17921247358E+02  0.53166334950E+03  0.56007575428E+03  0.17396503976E+03 0.  0.
        -24    2    3    3    0    0  0.66708372859E+02 -0.28412762083E+02  0.31517635689E+03  0.33393356620E+03  0.83175709371E+02 0.  0.
          6    2    1    2  501    0 -0.20830918364E+02 -0.17921247358E+02  0.14179657303E+04  0.14282747576E+04  0.16907652876E+03 0.  0.
         24    2    5    5    0    0  0.30662547579E+02 -0.47674692889E+02  0.57404040637E+03  0.58224350111E+03  0.79196201141E+02 0.  0.
          5    1    5    5  501    0 -0.51493465943E+02  0.29753445530E+02  0.84392532395E+03  0.84603125649E+03  0.47000000000E+01 0. -1.
        -13    1    6    6    0    0  0.12035747014E+02  0.15399140902E+02  0.29130357613E+03  0.29195850084E+03  0.00000000000E+00 0.  1.
         14    1    6    6    0    0  0.18626800565E+02 -0.63073833791E+02  0.28273683024E+03  0.29028500027E+03  0.00000000000E+00 0. -1.
         -5    1    3    3    0  503 -0.45877454495E+02  0.46334009441E+02  0.21648699261E+03  0.22614218808E+03  0.47000000000E+01 0.  1.
         11    1    4    4    0    0  0.37072473652E+02  0.22352295640E+02  0.19991469388E+03  0.20454798521E+03  0.00000000000E+00 0. -1.
        -12    1    4    4    0    0  0.29635899208E+02 -0.50765057723E+02  0.11526166302E+03  0.12938558099E+03  0.00000000000E+00 0.  1.
</event>
<event>
12    1  0.1598254E-001  0.2092164E+03  0.7818608E-02  0.1142192E+00
         21   -1    0    0  503  502  0.00000000000E+00  0.00000000000E+00  0.25259028379E+03  0.25259028379E+03  0.00000000000E+00 0.  1.
         21   -1    0    0  501  503 -0.00000000000E+00 -0.00000000000E+00 -0.41335662696E+03  0.41335662696E+03  0.00000000000E+00 0.  1.
          6    2    1    2  501    0 -0.91180576741E+02 -0.77095279051E+02 -0.33414627541E+03  0.39424006382E+03  0.17179614351E+03 0.  0.
         24    2    3    3    0    0 -0.25563014912E+02  0.20628688759E+02 -0.15219945678E+03  0.17748588713E+03  0.85191284493E+02 0.  0.
         -6    2    1    2    0  502  0.91180576741E+02  0.77095279051E+02  0.17337993223E+03  0.27170684693E+03  0.17177435822E+03 0.  0.
        -24    2    5    5    0    0  0.12147432014E+03  0.61394707622E+02  0.88700843196E+02  0.18029100064E+03  0.78177264922E+02 0.  0.
          5    1    3    3  501    0 -0.65617561830E+02 -0.97723967810E+02 -0.18194681862E+03  0.21675417669E+03  0.47000000000E+01 0. -1.
        -13    1    4    4    0    0 -0.28864022639E+02 -0.51354123028E+00 -0.15336250086E+03  0.15605592650E+03  0.00000000000E+00 0.  1.
         14    1    4    4    0    0  0.33010077274E+01  0.21142229989E+02  0.11630440740E+01  0.21429960626E+02  0.00000000000E+00 0. -1.
         -5    1    5    5    0  502 -0.30293743404E+02  0.15700571429E+02  0.84679089036E+02  0.91415846288E+02  0.47000000000E+01 0.  1.
         13    1    6    6    0    0 -0.86222803927E+01  0.16383425921E+02  0.16713584282E+02  0.24942018034E+02  0.00000000000E+00 0. -1.
        -14    1    6    6    0    0  0.13009660054E+03  0.45011281702E+02  0.71987258914E+02  0.15534898261E+03  0.00000000000E+00 0.  1.
</event>
<event>
12    1  0.1598254E-001  0.2485795E+03  0.7818608E-02  0.1114545E+00
         21   -1    0    0  503  502  0.00000000000E+00  0.00000000000E+00  0.56600024550E+03  0.56600024550E+03  0.00000000000E+00 0. -1.
         21   -1    0    0  501  503 -0.00000000000E+00 -0.00000000000E+00 -0.11270811934E+03  0.11270811934E+03  0.00000000000E+00 0. -1.
          6    2    1    2  501    0 -0.14741277359E+03  0.10096499763E+03  0.15815828487E+03  0.29283822438E+03  0.16975195439E+03 0.  0.
         24    2    3    3    0    0 -0.90378137043E+02  0.36442118197E+02  0.20263690702E+02  0.13019394739E+03  0.83926224396E+02 0.  0.
         -6    2    1    2    0  502  0.14741277359E+03 -0.10096499763E+03  0.29513384128E+03  0.38587014045E+03  0.17282165506E+03 0.  0.
        -24    2    5    5    0    0  0.66559145052E+02 -0.98898053006E+00  0.18043320392E+03  0.21350181548E+03  0.92713463221E+02 0.  0.
          5    1    3    3  501    0 -0.57034636550E+02  0.64522879430E+02  0.13789459417E+03  0.16264427699E+03  0.47000000000E+01 0. -1.
        -11    1    4    4    0    0 -0.16626796651E+01 -0.19926940199E+02  0.14920308462E+02  0.24949209486E+02  0.00000000000E+00 0.  1.
         12    1    4    4    0    0 -0.88715457378E+02  0.56369058396E+02  0.53433822401E+01  0.10524473790E+03  0.00000000000E+00 0. -1.
         -5    1    5    5    0  502  0.80853628540E+02 -0.99976017097E+02  0.11470063736E+03  0.17236832497E+03  0.47000000000E+01 0.  1.
         11    1    6    6    0    0  0.77099608680E+02  0.26941179492E+00  0.18612130278E+03  0.20145858530E+03  0.00000000000E+00 0. -1.
        -12    1    6    6    0    0 -0.10540463628E+02 -0.12583923250E+01 -0.56880988529E+01  0.12043230186E+02  0.00000000000E+00 0.  1.
</event>
<event>
12    1  0.1598254E-001  0.2481654E+03  0.7818608E-02  0.1114501E+00
         21   -1    0    0  501  502  0.00000000000E+00  0.00000000000E+00  0.59045243997E+02  0.59045243997E+02  0.00000000000E+00 0. -1.
         21   -1    0    0  502  503 -0.00000000000E+00 -0.00000000000E+00 -0.18680545970E+04  0.18680545970E+04  0.00000000000E+00 0. -1.
         -6    2    1    2    0  503 -0.17490397326E+03 -0.38558103196E+02 -0.15449679134E+04  0.15647409939E+04  0.17149459892E+03 0.  0.
        -24    2    3    3    0    0 -0.35618687956E+02  0.77546719044E+01 -0.84109688599E+03  0.84571263770E+03  0.80355883840E+02 0.  0.
          6    2    1    2  501    0  0.17490397326E+03  0.38558103196E+02 -0.26404143966E+03  0.36235884713E+03  0.17177870954E+03 0.  0.
         24    2    5    5    0    0  0.71823275893E+02  0.18861668657E+02 -0.22593610716E+03  0.25061053140E+03  0.79020050790E+02 0.  0.
          5    1    5    5  501    0  0.10308069736E+03  0.19696434538E+02 -0.38105332501E+02  0.11174831573E+03  0.47000000000E+01 0. -1.
        -11    1    6    6    0    0  0.79495531000E+02  0.15986485688E+02 -0.12284132622E+03  0.14719068789E+03  0.00000000000E+00 0.  1.
         12    1    6    6    0    0 -0.76722551061E+01  0.28751829692E+01 -0.10309478094E+03  0.10341984351E+03  0.00000000000E+00 0. -1.
         -5    1    3    3    0  503 -0.13928528530E+03 -0.46312775100E+02 -0.70387102740E+03  0.71902835622E+03  0.47000000000E+01 0.  1.
         13    1    4    4    0    0 -0.47895081490E+02  0.24528582689E+02 -0.34417303392E+03  0.34835422702E+03  0.00000000000E+00 0. -1.
        -14    1    4    4    0    0  0.12276393533E+02 -0.16773910785E+02 -0.49692385207E+03  0.49735841068E+03  0.00000000000E+00 0.  1.
</event>
<event>
12    1  0.1598254E-001  0.2239477E+03  0.7818608E-02  0.1131579E+00
         21   -1    0    0  503  502  0.00000000000E+00  0.00000000000E+00  0.16317395553E+03  0.16317395553E+03  0.00000000000E+00 0.  1.
         21   -1    0    0  501  503 -0.00000000000E+00 -0.00000000000E+00 -0.32217637200E+03  0.32217637200E+03  0.00000000000E+00 0.  1.
          6    2    1    2  501    0  0.13485365815E+03 -0.32257407714E+02 -0.13838306134E+03  0.26045542056E+03  0.17164237520E+03 0.  0.
         24    2    3    3    0    0  0.31361238543E+02  0.56185725471E+02 -0.62946180123E+02  0.10474517115E+03  0.53562731984E+02 0.  0.
         -6    2    1    2    0  502 -0.13485365815E+03  0.32257407714E+02 -0.20619355134E+02  0.22489490696E+03  0.17585935262E+03 0.  0.
        -24    2    5    5    0    0 -0.64079138261E+02 -0.47678115794E+02 -0.30455359275E+02  0.11757502268E+03  0.80728051905E+02 0.  0.
          5    1    3    3  501    0  0.10349241961E+03 -0.88443133185E+02 -0.75436881219E+02  0.15571024941E+03  0.47000000000E+01 0. -1.
        -13    1    4    4    0    0  0.38865376118E+02  0.59065601679E+02 -0.41833334887E+02  0.82154066669E+02  0.00000000000E+00 0.  1.
         14    1    4    4    0    0 -0.75041375749E+01 -0.28798762081E+01 -0.21112845236E+02  0.22591104481E+02  0.00000000000E+00 0. -1.
         -5    1    5    5    0  502 -0.70774519892E+02  0.79935523508E+02  0.98360041408E+01  0.10731988428E+03  0.47000000000E+01 0.  1.
         11    1    6    6    0    0 -0.19164608390E+02 -0.43945850065E+02 -0.49260793776E+02  0.68739695636E+02  0.00000000000E+00 0. -1.
        -12    1    6    6    0    0 -0.44914529871E+02 -0.37322657296E+01  0.18805434501E+02  0.48835327047E+02  0.00000000000E+00 0.  1.
</event>
<event>
12    1  0.1598254E-001  0.1971593E+03  0.7818608E-02  0.1153009E+00
         21   -1    0    0  503  502  0.00000000000E+00  0.00000000000E+00  0.51686241132E+02  0.51686241132E+02  0.00000000000E+00 0.  1.
         21   -1    0    0  501  503 -0.00000000000E+00 -0.00000000000E+00 -0.12356387023E+04  0.12356387023E+04  0.00000000000E+00 0. -1.
          6    2    1    2  501    0 -0.77873937395E+02 -0.39619272497E+02 -0.10043128120E+04  0.10234822978E+04  0.17674205119E+03 0.  0.
         24    2    3    3    0    0  0.27094001302E+02 -0.25859311858E+02 -0.56479379907E+03  0.57136875298E+03  0.77893693578E+02 0.  0.
         -6    2    1    2    0  502  0.77873937395E+02  0.39619272497E+02 -0.17963964918E+03  0.26384264566E+03  0.17236154220E+03 0.  0.
        -24    2    5    5    0    0  0.10709588058E+03  0.44448043485E+02 -0.18600515020E+03  0.23318569544E+03  0.79576984427E+02 0.  0.
          5    1    3    3  501    0 -0.10496793870E+03 -0.13759960639E+02 -0.43951901292E+03  0.45211354479E+03  0.47000000000E+01 0. -1.
        -13    1    4    4    0    0  0.10868025881E+01 -0.46509423386E+02 -0.21355629509E+03  0.21856486171E+03  0.00000000000E+00 0.  1.
         14    1    4    4    0    0  0.26007198714E+02  0.20650111528E+02 -0.35123750399E+03  0.35280389127E+03  0.00000000000E+00 0. -1.
         -5    1    5    5    0  502 -0.29221943190E+02 -0.48287709879E+01  0.63655010211E+01  0.30656950212E+02  0.47000000000E+01 0.  1.
         11    1    6    6    0    0  0.82438333407E+02  0.17344711679E+02 -0.17612517087E+03  0.19523573867E+03  0.00000000000E+00 0. -1.
        -12    1    6    6    0    0  0.24657547178E+02  0.27103331806E+02 -0.98799793291E+01  0.37949956777E+02  0.00000000000E+00 0.  1.
</event>
<event>
12    1  0.1598254E-001  0.1786128E+03  0.7818608E-02  0.1169718E+00
         21   -1    0    0  501  502  0.00000000000E+00  0.00000000000E+00  0.85735763638E+03  0.85735763638E+03  0.00000000000E+00 0. -1.
         21   -1    0    0  502  503 -0.00000000000E+00 -0.00000000000E+00 -0.87608053043E+02  0.87608053043E+02  0.00000000000E+00 0. -1.
         -6    2    1    2    0  503 -0.40467063128E+02 -0.13016781018E+02  0.23778792012E+02  0.17790966606E+03  0.17111223961E+03 0.  0.
        -24    2    3    3    0    0 -0.22779378800E+02 -0.50773830781E+02  0.65992097696E+02  0.11839074335E+03  0.81021782028E+02 0.  0.
          6    2    1    2  501    0  0.40467063128E+02  0.13016781018E+02  0.74597079132E+03  0.76705602336E+03  0.17348055129E+03 0.  0.
         24    2    5    5    0    0 -0.28324455856E+02  0.41179940093E+02  0.29770071104E+03  0.31264036397E+03  0.81364744013E+02 0.  0.
          5    1    5    5  501    0  0.68791518983E+02 -0.28163159074E+02  0.44827008029E+03  0.45441565938E+03  0.47000000000E+01 0. -1.
        -11    1    6    6    0    0 -0.18966873609E+02 -0.87041183832E+01  0.15716450414E+02  0.26124907367E+02  0.00000000000E+00 0.  1.
         12    1    6    6    0    0 -0.93575822467E+01  0.49884058476E+02  0.28198426062E+03  0.28651545661E+03  0.00000000000E+00 0. -1.
         -5    1    3    3    0  503 -0.17687684328E+02  0.37757049762E+02 -0.42213305685E+02  0.59518922709E+02  0.47000000000E+01 0.  1.
         13    1    4    4    0    0 -0.22638698300E+02 -0.55645668203E+02  0.84772060935E+01  0.60669712985E+02  0.00000000000E+00 0. -1.
        -14    1    4    4    0    0 -0.14068049921E+00  0.48718374222E+01  0.57514891603E+02  0.57721030370E+02  0.00000000000E+00 0.  1.
</event>
<event>
12    1  0.1598254E-001  0.2177808E+03  0.7818608E-02  0.1135677E+00
         21   -1    0    0  501  502  0.00000000000E+00  0.00000000000E+00  0.45182790901E+02  0.45182790901E+02  0.00000000000E+00 0.  1.
         21   -1    0    0  502  503 -0.00000000000E+00 -0.00000000000E+00 -0.12521139086E+04  0.12521139086E+04  0.00000000000E+00 0.  1.
         -6    2    1    2    0  503  0.10940598254E+03 -0.77385453359E+02 -0.33978001839E+03  0.40321644631E+03  0.17080651121E+03 0.  0.
        -24    2    3    3    0    0  0.46995086269E+02 -0.75205645921E+02 -0.10392755902E+03  0.15919115229E+03  0.81709596320E+02 0.  0.
          6    2    1    2  501    0 -0.10940598254E+03  0.77385453359E+02 -0.86715109928E+03  0.89408025316E+03  0.17166913729E+03 0.  0.
         24    2    5    5    0    0 -0.12140564990E+03  0.10157090037E+03 -0.82563910955E+03  0.84433828742E+03  0.78557143266E+02 0.  0.
          5    1    5    5  501    0  0.11999667355E+02 -0.24185447015E+02 -0.41511989731E+02  0.49741965737E+02  0.47000000000E+01 0. -1.
        -11    1    6    6    0    0 -0.12155230339E+03  0.10338820746E+03 -0.67193757450E+03  0.69062593922E+03  0.00000000000E+00 0.  1.
         12    1    6    6    0    0  0.14665349048E+00 -0.18173070897E+01 -0.15370153506E+03  0.15371234821E+03  0.00000000000E+00 0. -1.
         -5    1    3    3    0  503  0.62410896274E+02 -0.21798074386E+01 -0.23585245937E+03  0.24402529402E+03  0.47000000000E+01 0.  1.
         13    1    4    4    0    0  0.17342415660E+01 -0.33145149261E+02 -0.89900902321E+02  0.95832044492E+02  0.00000000000E+00 0. -1.
        -14    1    4    4    0    0  0.45260844703E+02 -0.42060496659E+02 -0.14026656699E+02  0.63359107795E+02  0.00000000000E+00 0.  1.
</event>
<event>
12    1  0.1598254E-001  0.1855505E+03  0.7818608E-02  0.1162661E+00
         21   -1    0    0  501  502  0.00000000000E+00  0.00000000000E+00  0.40105097876E+03  0.40105097876E+03  0.00000000000E+00 0. -1.
         21   -1    0    0  502  503 -0.00000000000E+00 -0.00000000000E+00 -0.10600251800E+03  0.10600251800E+03  0.00000000000E+00 0.  1.
         -6    2    1    2    0  503 -0.37808208795E+02 -0.56945730178E+02  0.36127161863E+02  0.18851112069E+03  0.17192729266E+03 0.  0.
        -24    2    3    3    0    0 -0.67839480095E+02  0.15099729358E+01 -0.13358304231E+02  0.10611058770E+03  0.80476937396E+02 0.  0.
          6    2    1    2  501    0  0.37808208795E+02  0.56945730178E+02  0.25892129890E+03  0.31854237607E+03  0.17250138981E+03 0.  0.
         24    2    5    5    0    0  0.79355875452E+02  0.78503337409E+02  0.20495340363E+03  0.24694934041E+03  0.80733822638E+02 0.  0.
          5    1    5    5  501    0 -0.41547666657E+02 -0.21557607231E+02  0.53967895278E+02  0.71593035659E+02  0.47000000000E+01 0. -1.
        -11    1    6    6    0    0 -0.16183122982E+02  0.17546536549E+02  0.27728175188E+02  0.36587239764E+02  0.00000000000E+00 0.  1.
         12    1    6    6    0    0  0.95538998435E+02  0.60956800861E+02  0.17722522844E+03  0.21036210065E+03  0.00000000000E+00 0. -1.
         -5    1    3    3    0  503  0.30031271300E+02 -0.58455703114E+02  0.49485466094E+02  0.82400532990E+02  0.47000000000E+01 0.  1.
         13    1    4    4    0    0 -0.72268825961E+02 -0.89644686520E+01  0.16058298433E+02  0.74572205630E+02  0.00000000000E+00 0. -1.
        -14    1    4    4    0    0  0.44293458657E+01  0.10474441588E+02 -0.29416602665E+02  0.31538382072E+02  0.00000000000E+00 0.  1.
</event>
<event>
12    1  0.1598254E-001  0.1977077E+03  0.7818608E-02  0.1151766E+00
         21   -1    0    0  501  502  0.00000000000E+00  0.00000000000E+00  0.13171862294E+03  0.13171862294E+03  0.00000000000E+00 0.  1.
         21   -1    0    0  502  503 -0.00000000000E+00 -0.00000000000E+00 -0.40149567966E+03  0.40149567966E+03  0.00000000000E+00 0.  1.
         -6    2    1    2    0  503  0.15901073577E+02  0.95303955569E+02 -0.27132415661E+03  0.33550050984E+03  0.17207006148E+03 0.  0.
        -24    2    3    3    0    0 -0.24094901337E+02  0.11927813596E+03 -0.23569965793E+03  0.27663087216E+03  0.78501418448E+02 0.  0.
          6    2    1    2  501    0 -0.15901073577E+02 -0.95303955569E+02  0.15470998856E+01  0.19771379275E+03  0.17248960037E+03 0.  0.
         24    2    5    5    0    0 -0.56537746974E+02 -0.10423858196E+03  0.18528999654E+02  0.15252926339E+03  0.94125732717E+02 0.  0.
          5    1    5    5  501    0  0.40636673397E+02  0.89346263943E+01 -0.16981899768E+02  0.45184529358E+02  0.47000000000E+01 0. -1.
        -11    1    6    6    0    0 -0.15763250879E+02  0.16013255125E+02 -0.58825729675E+01  0.23227334817E+02  0.00000000000E+00 0.  1.
         12    1    6    6    0    0 -0.40774496095E+02 -0.12025183709E+03  0.24411572621E+02  0.12930192857E+03  0.00000000000E+00 0. -1.
         -5    1    3    3    0  503  0.39995974914E+02 -0.23974180386E+02 -0.35624498676E+02  0.58869637679E+02  0.47000000000E+01 0.  1.
         13    1    4    4    0    0 -0.38540862779E+02  0.72353111916E+02 -0.84809051398E+02  0.11795315217E+03  0.00000000000E+00 0. -1.
        -14    1    4    4    0    0  0.14445961442E+02  0.46925024039E+02 -0.15089060653E+03  0.15867771999E+03  0.00000000000E+00 0.  1.
</event>
<event>
12    1  0.1598254E-001  0.2722314E+03  0.7818608E-02  0.1100086E+00
         21   -1    0    0  503  502  0.00000000000E+00  0.00000000000E+00  0.16896580750E+04  0.16896580750E+04  0.00000000000E+00 0. -1.
         21   -1    0    0  501  503 -0.00000000000E+00 -0.00000000000E+00 -0.10251496926E+03  0.10251496926E+03  0.00000000000E+00 0.  1.
          6    2    1    2  501    0  0.20850864806E+03 -0.25799558219E+02  0.11559960979E+03  0.29575869682E+03  0.17311401860E+03 0.  0.
         24    2    3    3    0    0  0.28519760518E+02  0.42359562006E+01  0.10137072683E+02  0.84944635380E+02  0.79255982565E+02 0.  0.
         -6    2    1    2    0  502 -0.20850864806E+03  0.25799558219E+02  0.14715434959E+04  0.14964143474E+04  0.17226190891E+03 0.  0.
        -24    2    5    5    0    0 -0.51228402770E+02  0.22621913861E+02  0.84305356623E+03  0.84851863459E+03  0.78156621456E+02 0.  0.
          5    1    3    3  501    0  0.17998888754E+03 -0.30035514420E+02  0.10546253711E+03  0.21081406144E+03  0.47000000000E+01 0. -1.
        -13    1    4    4    0    0 -0.68606453264E+01 -0.23519208876E+02  0.27419196246E+02  0.36770014458E+02  0.00000000000E+00 0.  1.
         14    1    4    4    0    0  0.35380405844E+02  0.27755165076E+02 -0.17282123563E+02  0.48174620922E+02  0.00000000000E+00 0. -1.
         -5    1    5    5    0  502 -0.15728024529E+03  0.31776443588E+01  0.62848992971E+03  0.64789571285E+03  0.47000000000E+01 0.  1.
         11    1    6    6    0    0 -0.36977379951E+02 -0.21240801348E+02  0.57041204656E+03  0.57200384713E+03  0.00000000000E+00 0. -1.
        -12    1    6    6    0    0 -0.14251022819E+02  0.43862715208E+02  0.27264151967E+03  0.27651478746E+03  0.00000000000E+00 0.  1.
</event>
<event>
12    1  0.1598254E-001  0.1880230E+03  0.7818608E-02  0.1160567E+00
         21   -1    0    0  501  502  0.00000000000E+00  0.00000000000E+00  0.37856671419E+03  0.37856671419E+03  0.00000000000E+00 0. -1.
         21   -1    0    0  502  503 -0.00000000000E+00 -0.00000000000E+00 -0.92721586420E+02  0.92721586420E+02  0.00000000000E+00 0. -1.
         -6    2    1    2    0  503 -0.73914266976E+02  0.11120420554E+02  0.14154572535E+03  0.23534621497E+03  0.17252729037E+03 0.  0.
        -24    2    3    3    0    0 -0.59641962419E+02 -0.41555902925E+02  0.15315003108E+03  0.17935296856E+03  0.58553382141E+02 0.  0.
          6    2    1    2  501    0  0.73914266976E+02 -0.11120420554E+02  0.14429940242E+03  0.23594208563E+03  0.17105369805E+03 0.  0.
         24    2    5    5    0    0  0.38662102404E+02 -0.19711919424E+02  0.16914273018E+03  0.19171754613E+03  0.79139347944E+02 0.  0.
          5    1    5    5  501    0  0.35252164572E+02  0.85914988702E+01 -0.24843327758E+02  0.44224539500E+02  0.47000000000E+01 0. -1.
        -13    1    6    6    0    0  0.42608525596E+01 -0.21688578620E+02  0.15131510900E+03  0.15292093224E+03  0.00000000000E+00 0.  1.
         14    1    6    6    0    0  0.34401249844E+02  0.19766591962E+01  0.17827621185E+02  0.38796613893E+02  0.00000000000E+00 0. -1.
         -5    1    3    3    0  503 -0.14272304557E+02  0.52676323479E+02 -0.11604305738E+02  0.55993246417E+02  0.47000000000E+01 0.  1.
         13    1    4    4    0    0 -0.27323299517E+02 -0.46627666057E+02  0.60632803219E+02  0.81222156858E+02  0.00000000000E+00 0. -1.
        -14    1    4    4    0    0 -0.32318662902E+02  0.50717631315E+01  0.92517227865E+02  0.98130811700E+02  0.00000000000E+00 0.  1.
</event>
<event>
12    1  0.1598254E-001  0.2264709E+03  0.7818608E-02  0.1129387E+00
         21   -1    0    0  503  502  0.00000000000E+00  0.00000000000E+00  0.38475444835E+03  0.38475444835E+03  0.00000000000E+00 0.  1.
         21   -1    0    0  501  503 -0.00000000000E+00 -0.00000000000E+00 -0.24452822237E+03  0.24452822237E+03  0.00000000000E+00 0.  1.
          6    2    1    2  501    0 -0.10978797616E+03 -0.96956247615E+02 -0.14294138803E+03  0.26669063591E+03  0.17099047110E+03 0.  0.
         24    2    3    3    0    0 -0.95777332075E+02 -0.13127546905E+03 -0.14051733699E+03  0.22924636891E+03  0.80013933472E+02 0.  0.
         -6    2    1    2    0  502  0.10978797616E+03  0.96956247615E+02  0.28316761401E+03  0.36259203482E+03  0.17272860917E+03 0.  0.
        -24    2    5    5    0    0 -0.25946291467E+01  0.24090475491E+01  0.11033900404E+03  0.13574221348E+03  0.78985549926E+02 0.  0.
          5    1    3    3  501    0 -0.14010644084E+02  0.34319221435E+02 -0.24240510421E+01  0.37444266998E+02  0.47000000000E+01 0. -1.
        -13    1    4    4    0    0 -0.75985532611E+02 -0.36676091656E+02 -0.69495461294E+02  0.10930945067E+03  0.00000000000E+00 0.  1.
         14    1    4    4    0    0 -0.19791799464E+02 -0.94599377394E+02 -0.71021875692E+02  0.11993691824E+03  0.00000000000E+00 0. -1.
         -5    1    5    5    0  502  0.11238260531E+03  0.94547200066E+02  0.17282860998E+03  0.22684982134E+03  0.47000000000E+01 0.  1.
         13    1    6    6    0    0  0.13704008830E+02  0.16862591395E+02 -0.15197242716E+01  0.21782020302E+02  0.00000000000E+00 0. -1.
        -14    1    6    6    0    0 -0.16298637977E+02 -0.14453543846E+02  0.11185872831E+03  0.11396019317E+03  0.00000000000E+00 0.  1.
</event>
<event>
12    1  0.1598254E-001  0.2017337E+03  0.7818608E-02  0.1148549E+00
         21   -1    0    0  503  502  0.00000000000E+00  0.00000000000E+00  0.38315949167E+03  0.38315949167E+03  0.00000000000E+00 0.  1.
         21   -1    0    0  501  503 -0.00000000000E+00 -0.00000000000E+00 -0.22058081714E+03  0.22058081714E+03  0.00000000000E+00 0.  1.
          6    2    1    2  501    0  0.97713105925E+02 -0.36493844038E+02 -0.13682645042E+03  0.24271408903E+03  0.17119871425E+03 0.  0.
         24    2    3    3    0    0  0.13037399989E+03 -0.23388575003E+02 -0.12291300717E+03  0.20458069193E+03  0.95923130117E+02 0.  0.
         -6    2    1    2    0  502 -0.97713105925E+02  0.36493844038E+02  0.29940512495E+03  0.36102621977E+03  0.17267556514E+03 0.  0.
        -24    2    5    5    0    0 -0.92957250420E+02  0.85934783554E+02  0.19021631469E+03  0.24097910008E+03  0.76569203134E+02 0.  0.
          5    1    3    3  501    0 -0.32660893969E+02 -0.13105269035E+02 -0.13913443246E+02  0.38133397099E+02  0.47000000000E+01 0. -1.
        -11    1    4    4    0    0  0.66712435967E+02  0.32461880627E+02 -0.81823436263E+02  0.11045088288E+03  0.00000000000E+00 0.  1.
         12    1    4    4    0    0  0.63661563927E+02 -0.55850455630E+02 -0.41089570909E+02  0.94129809057E+02  0.00000000000E+00 0. -1.
         -5    1    5    5    0  502 -0.47558555046E+01 -0.49440939516E+02  0.10918881026E+03  0.12004711970E+03  0.47000000000E+01 0.  1.
         11    1    6    6    0    0 -0.11843299491E+02  0.18518522199E+02 -0.16395031973E+01  0.22042853218E+02  0.00000000000E+00 0. -1.
        -12    1    6    6    0    0 -0.81113950929E+02  0.67416261355E+02  0.19185581789E+03  0.21893624686E+03  0.00000000000E+00 0.  1.
</event>
<event>
12    1  0.1598254E-001  0.1806751E+03  0.7818608E-02  0.1168251E+00
         21   -1    0    0  501  502  0.00000000000E+00  0.00000000000E+00  0.15944436285E+03  0.15944436285E+03  0.00000000000E+00 0. -1.
         21   -1    0    0  502  503 -0.00000000000E+00 -0.00000000000E+00 -0.20539217164E+03  0.20539217164E+03  0.00000000000E+00 0. -1.
         -6    2    1    2    0  503  0.28808838764E+02 -0.39534228425E+02 -0.53167999895E+02  0.18401717677E+03  0.16924119098E+03 0.  0.
        -24    2    3    3    0    0  0.65042712059E+02 -0.33079793120E+02  0.12715048696E+02  0.10840488014E+03  0.79152501353E+02 0.  0.
          6    2    1    2  501    0 -0.28808838764E+02  0.39534228425E+02  0.72201911087E+01  0.18081935773E+03  0.17392700929E+03 0.  0.
         24    2    5    5    0    0 -0.40764303183E+02  0.55068964327E+01 -0.55280737742E+02  0.10850581433E+03  0.83818240585E+02 0.  0.
          5    1    5    5  501    0  0.11955464419E+02  0.34027331992E+02  0.62500928851E+02  0.72313543401E+02  0.47000000000E+01 0. -1.
        -13    1    6    6    0    0  0.24647020223E+02  0.49460520423E+01 -0.28006544401E+02  0.37633835388E+02  0.00000000000E+00 0.  1.
         14    1    6    6    0    0 -0.65411323406E+02  0.56084439044E+00 -0.27274193341E+02  0.70871978938E+02  0.00000000000E+00 0. -1.
         -5    1    3    3    0  503 -0.36233873295E+02 -0.64544353049E+01 -0.65883048590E+02  0.75612296623E+02  0.47000000000E+01 0.  1.
         13    1    4    4    0    0  0.14046337009E+01 -0.36510699657E+02 -0.14231833090E+02  0.39211595968E+02  0.00000000000E+00 0. -1.
        -14    1    4    4    0    0  0.63638078358E+02  0.34309065370E+01  0.26946881785E+02  0.69193284174E+02  0.00000000000E+00 0.  1.
</event>
<event>
12    1  0.1598254E-001  0.2409383E+03  0.7818608E-02  0.1119254E+00
         21   -1    0    0  501  502  0.00000000000E+00  0.00000000000E+00  0.18743680407E+04  0.18743680407E+04  0.00000000000E+00 0.  1.
         21   -1    0    0  502  503 -0.00000000000E+00 -0.00000000000E+00 -0.60373200746E+02  0.60373200746E+02  0.00000000000E+00 0. -1.
         -6    2    1    2    0  503 -0.59336484087E+02 -0.15777010217E+03  0.23066203613E+03  0.33318136383E+03  0.17144276832E+03 0.  0.
        -24    2    3    3    0    0 -0.86112525817E+02 -0.46765936831E+02  0.12731868532E+03  0.17910080279E+03  0.79149415522E+02 0.  0.
          6    2    1    2  501    0  0.59336484087E+02  0.15777010217E+03  0.15833328039E+04  0.16015598776E+04  0.17215995598E+03 0.  0.
         24    2    5    5    0    0  0.91436374343E+00  0.16409754504E+03  0.12030529171E+04  0.12167377590E+04  0.78648665899E+02 0.  0.
          5    1    5    5  501    0  0.58422120344E+02 -0.63274428637E+01  0.38027988679E+03  0.38482211862E+03  0.47000000000E+01 0. -1.
        -11    1    6    6    0    0 -0.54996906955E+01  0.26296018967E+02  0.47320694927E+03  0.47396892730E+03  0.00000000000E+00 0.  1.
         12    1    6    6    0    0  0.64140544389E+01  0.13780152607E+03  0.72984596780E+03  0.74276883173E+03  0.00000000000E+00 0. -1.
         -5    1    3    3    0  503  0.26776041729E+02 -0.11100416534E+03  0.10334335082E+03  0.15408056105E+03  0.47000000000E+01 0.  1.
         11    1    4    4    0    0 -0.36523380397E+02 -0.12686022793E+02  0.42757957855E+00  0.38666203773E+02  0.00000000000E+00 0. -1.
        -12    1    4    4    0    0 -0.49589145419E+02 -0.34079914038E+02  0.12689110574E+03  0.14043459901E+03  0.00000000000E+00 0.  1.
</event>
<event>
12    1  0.1598254E-001  0.1945607E+03  0.7818608E-02  0.1154582E+00
         21   -1    0    0  501  502  0.00000000000E+00  0.00000000000E+00  0.27993870254E+03  0.27993870254E+03  0.00000000000E+00 0.  1.
         21   -1    0    0  502  503 -0.00000000000E+00 -0.00000000000E+00 -0.14743364817E+03  0.14743364817E+03  0.00000000000E+00 0.  1.
         -6    2    1    2    0  503 -0.39592315697E+02 -0.77375993057E+02  0.32867824457E+01  0.19381031665E+03  0.17319653615E+03 0.  0.
        -24    2    3    3    0    0 -0.31212262957E+00 -0.40519141675E+02  0.64699922353E+02  0.11198718535E+03  0.81933823715E+02 0.  0.
          6    2    1    2  501    0  0.39592315697E+02  0.77375993057E+02  0.12921827193E+03  0.23356203406E+03  0.17406684403E+03 0.  0.
         24    2    5    5    0    0  0.72834073589E+02  0.76316213432E+02  0.39153812011E+02  0.13743797599E+03  0.78912670344E+02 0.  0.
          5    1    5    5  501    0 -0.33241757892E+02  0.10597796251E+01  0.90064459915E+02  0.96124058073E+02  0.47000000000E+01 0. -1.
        -11    1    6    6    0    0  0.51590682777E+02  0.28036933902E+02  0.56922512857E+02  0.81779219132E+02  0.00000000000E+00 0.  1.
         12    1    6    6    0    0  0.21243390812E+02  0.48279279529E+02 -0.17768700845E+02  0.55658756856E+02  0.00000000000E+00 0. -1.
         -5    1    3    3    0  503 -0.39280193067E+02 -0.36856851382E+02 -0.61413139907E+02  0.81823131292E+02  0.47000000000E+01 0.  1.
         13    1    4    4    0    0 -0.32619585776E+02 -0.22502380675E+02  0.63653185124E+02  0.74980814137E+02  0.00000000000E+00 0. -1.
        -14    1    4    4    0    0  0.32307463146E+02 -0.18016761000E+02  0.10467372288E+01  0.37006371218E+02  0.00000000000E+00 0.  1.
</event>
<event>
12    1  0.1598254E-001  0.1889820E+03  0.7818608E-02  0.1159476E+00
         21   -1    0    0  503  502  0.00000000000E+00  0.00000000000E+00  0.73828334010E+03  0.73828334010E+03  0.00000000000E+00 0.  1.
         21   -1    0    0  501  503 -0.00000000000E+00 -0.00000000000E+00 -0.61866783521E+02  0.61866783521E+02  0.00000000000E+00 0.  1.
          6    2    1    2  501    0  0.60441757236E+02 -0.48131566286E+02  0.52547961356E+03  0.55829036301E+03  0.17201584658E+03 0.  0.
         24    2    3    3    0    0  0.52831562980E+02  0.34990380265E+02  0.24982805091E+03  0.27023993852E+03  0.81240806223E+02 0.  0.
         -6    2    1    2    0  502 -0.60441757236E+02  0.48131566286E+02  0.15093694302E+03  0.24185976061E+03  0.17246544391E+03 0.  0.
        -24    2    5    5    0    0 -0.78357616137E+02  0.25693083694E+02  0.17144364214E+03  0.20626371855E+03  0.79697858223E+02 0.  0.
          5    1    3    3  501    0  0.76101942569E+01 -0.83121946551E+02  0.27565156265E+03  0.28805042448E+03  0.47000000000E+01 0. -1.
        -13    1    4    4    0    0 -0.67475402009E+01  0.78178348798E+01  0.15300019101E+03  0.15334831688E+03  0.00000000000E+00 0.  1.
         14    1    4    4    0    0  0.59579103180E+02  0.27172545385E+02  0.96827859901E+02  0.11689162165E+03  0.00000000000E+00 0. -1.
         -5    1    5    5    0  502  0.17915858901E+02  0.22438482592E+02 -0.20506699120E+02  0.35596042055E+02  0.47000000000E+01 0.  1.
         13    1    6    6    0    0 -0.59669052558E+02 -0.20654910367E+02  0.78566492990E+02  0.10079541148E+03  0.00000000000E+00 0. -1.
        -14    1    6    6    0    0 -0.18688563579E+02  0.46347994062E+02  0.92877149149E+02  0.10546830707E+03  0.00000000000E+00 0.  1.
</event>
<event>
12    1  0.1598254E-001  0.1761618E+03  0.7818608E-02  0.1171806E+00
         21   -1    0    0  501  502  0.00000000000E+00  0.00000000000E+00  0.18106070939E+03  0.18106070939E+03  0.00000000000E+00 0. -1.
         21   -1    0    0  502  503 -0.00000000000E+00 -0.00000000000E+00 -0.66541236314E+03  0.66541236314E+03  0.00000000000E+00 0.  1.
         -6    2    1    2    0  503  0.81913011922E+01 -0.39874534414E+02 -0.60702423611E+03  0.63180697919E+03  0.17042464558E+03 0.  0.
        -24    2    3    3    0    0 -0.29280607675E+02  0.78842640350E+01 -0.16411173792E+03  0.18472911367E+03  0.79200172413E+02 0.  0.
          6    2    1    2  501    0 -0.81913011922E+01  0.39874534414E+02  0.12267258235E+03  0.21466609335E+03  0.17139397090E+03 0.  0.
         24    2    5    5    0    0 -0.45787012002E+02  0.58177369843E+02  0.29918139720E+02  0.11281371054E+03  0.79691789857E+02 0.  0.
          5    1    5    5  501    0  0.37595710809E+02 -0.18302835429E+02  0.92754442634E+02  0.10185238281E+03  0.47000000000E+01 0. -1.
        -11    1    6    6    0    0 -0.39202437060E+02 -0.96247379832E+01  0.15108184319E+02  0.43101321164E+02  0.00000000000E+00 0.  1.
         12    1    6    6    0    0 -0.65845749415E+01  0.67802107826E+02  0.14809955401E+02  0.69712389371E+02  0.00000000000E+00 0. -1.
         -5    1    3    3    0  503  0.37471908868E+02 -0.47758798449E+02 -0.44291249819E+03  0.44707786551E+03  0.47000000000E+01 0.  1.
         13    1    4    4    0    0  0.21892512763E+02  0.97740689219E+01 -0.18224449801E+02  0.30115529365E+02  0.00000000000E+00 0. -1.
        -14    1    4    4    0    0 -0.51173120439E+02 -0.18898048869E+01 -0.14588728812E+03  0.15461358431E+03  0.00000000000E+00 0.  1.
</event>
<event>
12    1  0.1598254E-001  0.2712220E+03  0.7818608E-02  0.1100712E+00
         21   -1    0    0  501  502  0.00000000000E+00  0.00000000000E+00  0.20196111025E+04  0.20196111025E+04  0.00000000000E+00 0. -1.
         21   -1    0    0  502  503 -0.00000000000E+00 -0.00000000000E+00 -0.38812286208E+02  0.38812286208E+02  0.00000000000E+00 0. -1.
         -6    2    1    2    0  503 -0.19565848458E+03  0.71441800582E+02  0.12537180062E+04  0.12827198430E+04  0.17371005505E+03 0.  0.
        -24    2    3    3    0    0 -0.15556895878E+03 -0.16056950914E+02  0.84046163991E+03  0.85837786319E+03  0.77312749565E+02 0.  0.
          6    2    1    2  501    0  0.19565848458E+03 -0.71441800582E+02  0.72708081014E+03  0.77570354571E+03  0.17228845837E+03 0.  0.
         24    2    5    5    0    0  0.15331400540E+03 -0.84841316060E+02  0.36687835239E+03  0.41274280058E+03  0.71089104768E+02 0.  0.
          5    1    5    5  501    0  0.42344479186E+02  0.13399515478E+02  0.36020245776E+03  0.36296074513E+03  0.47000000000E+01 0. -1.
        -13    1    6    6    0    0  0.68831905272E+02 -0.66562938314E+02  0.13694944618E+03  0.16710358090E+03  0.00000000000E+00 0.  1.
         14    1    6    6    0    0  0.84482100124E+02 -0.18278377746E+02  0.22992890621E+03  0.24563921968E+03  0.00000000000E+00 0. -1.
         -5    1    3    3    0  503 -0.40089525802E+02  0.87498751496E+02  0.41325636628E+03  0.42434197985E+03  0.47000000000E+01 0.  1.
         11    1    4    4    0    0 -0.74101401420E+02 -0.14131127458E+02  0.59452845911E+03  0.59929524873E+03  0.00000000000E+00 0. -1.
        -12    1    4    4    0    0 -0.81467557360E+02 -0.19258234565E+01  0.24593318080E+03  0.25908261447E+03  0.00000000000E+00 0.  1.
</event>
<event>
12    1  0.1598254E-001  0.2103787E+03  0.7818608E-02  0.1141485E+00
         21   -1    0    0  501  502  0.00000000000E+00  0.00000000000E+00  0.15518530597E+03  0.15518530597E+03  0.00000000000E+00 0.  1.
         21   -1    0    0  502  503 -0.00000000000E+00 -0.00000000000E+00 -0.33307196240E+03  0.33307196240E+03  0.00000000000E+00 0.  1.
         -6    2    1    2    0  503  0.12049752703E+03 -0.13269264329E+02 -0.18272755748E+03  0.27782288762E+03  0.17058859642E+03 0.  0.
        -24    2    3    3    0    0  0.11368072767E+03 -0.67392554134E+02 -0.12862873988E+03  0.20085165067E+03  0.79567384369E+02 0.  0.
          6    2    1    2  501    0 -0.12049752703E+03  0.13269264329E+02  0.48409010466E+01  0.21043438075E+03  0.17194030034E+03 0.  0.
         24    2    5    5    0    0 -0.91648895456E+02 -0.20784216128E+02 -0.55009402569E+02  0.13562775057E+03  0.80853872361E+02 0.  0.
          5    1    5    5  501    0 -0.28848631578E+02  0.34053480457E+02  0.59850303616E+02  0.74806630174E+02  0.47000000000E+01 0. -1.
        -11    1    6    6    0    0 -0.59925632766E+02  0.26249199836E+02 -0.17865804961E+02  0.67818057635E+02  0.00000000000E+00 0.  1.
         12    1    6    6    0    0 -0.31723262690E+02 -0.47033415964E+02 -0.37143597608E+02  0.67809692937E+02  0.00000000000E+00 0. -1.
         -5    1    3    3    0  503  0.68167993609E+01  0.54123289805E+02 -0.54098817600E+02  0.76971236956E+02  0.47000000000E+01 0.  1.
         11    1    4    4    0    0  0.78109630563E+02 -0.72394281939E+02 -0.57173000125E+02  0.12087513552E+03  0.00000000000E+00 0. -1.
        -12    1    4    4    0    0  0.35571097109E+02  0.50017278047E+01 -0.71455739756E+02  0.79976515145E+02  0.00000000000E+00 0.  1.
</event>
<event>
12    1  0.1598254E-001  0.2093827E+03  0.7818608E-02  0.1142426E+00
         21   -1    0    0  501  502  0.00000000000E+00  0.00000000000E+00  0.43789366333E+03  0.43789366333E+03  0.00000000000E+00 0.  1.
         21   -1    0    0  502  503 -0.00000000000E+00 -0.00000000000E+00 -0.13803417995E+03  0.13803417995E+03  0.00000000000E+00 0.  1.
         -6    2    1    2    0  503 -0.75540438275E+02 -0.91534996148E+02 -0.32227488245E+01  0.20755310008E+03  0.17024361929E+03 0.  0.
        -24    2    3    3    0    0  0.10389480026E+02 -0.18549539118E+02  0.24214809339E+02  0.91424992393E+02  0.85557849120E+02 0.  0.
          6    2    1    2  501    0  0.75540438275E+02  0.91534996148E+02  0.30308223220E+03  0.36837474320E+03  0.17249956121E+03 0.  0.
         24    2    5    5    0    0  0.70159100807E+02  0.70691300666E+02  0.96533147464E+02  0.16065369747E+03  0.81064187747E+02 0.  0.
          5    1    5    5  501    0  0.53813374680E+01  0.20843695482E+02  0.20654908474E+03  0.20772104574E+03  0.47000000000E+01 0. -1.
        -13    1    6    6    0    0  0.61313411452E+02  0.85408362058E+02  0.97591282813E+02  0.14345027436E+03  0.00000000000E+00 0.  1.
         14    1    6    6    0    0  0.88456893556E+01 -0.14717061392E+02 -0.10581353491E+01  0.17203423107E+02  0.00000000000E+00 0. -1.
         -5    1    3    3    0  503 -0.85929918301E+02 -0.72985457030E+02 -0.27437558163E+02  0.11612810769E+03  0.47000000000E+01 0.  1.
         13    1    4    4    0    0  0.16363770433E+02 -0.28906694783E+02 -0.24493202686E+02  0.41270897299E+02  0.00000000000E+00 0. -1.
        -14    1    4    4    0    0 -0.59742904066E+01  0.10357155665E+02  0.48708012025E+02  0.50154095094E+02  0.00000000000E+00 0.  1.
</event>
<event>
12    1  0.1598254E-001  0.1968262E+03  0.7818608E-02  0.1152553E+00
         21   -1    0    0  503  502  0.00000000000E+00  0.00000000000E+00  0.63354473858E+03  0.63354473858E+03  0.00000000000E+00 0.  1.
         21   -1    0    0  501  503 -0.00000000000E+00 -0.00000000000E+00 -0.12691973726E+03  0.12691973726E+03  0.00000000000E+00 0.  1.
          6    2    1    2  501    0 -0.38343131887E+02 -0.85459365387E+02 -0.20573477663E+02  0.19789850882E+03  0.17310994459E+03 0.  0.
         24    2    3    3    0    0 -0.34380638237E+02 -0.12646850775E+03 -0.17501542909E+02  0.15631752883E+03  0.83381976935E+02 0.  0.
         -6    2    1    2    0  502  0.38343131887E+02  0.85459365387E+02  0.52719847898E+03  0.56256596703E+03  0.17253617627E+03 0.  0.
        -24    2    5    5    0    0  0.21587645942E+02  0.11341866141E+03  0.28033664745E+03  0.31351713164E+03  0.79840695846E+02 0.  0.
          5    1    3    3  501    0 -0.39624936501E+01  0.41009142366E+02 -0.30719347539E+01  0.41580979987E+02  0.47000000000E+01 0. -1.
        -11    1    4    4    0    0 -0.61660264212E+02 -0.96839005716E+02 -0.90043689458E+01  0.11515580694E+03  0.00000000000E+00 0.  1.
         12    1    4    4    0    0  0.27279625975E+02 -0.29629502037E+02 -0.84971739631E+01  0.41161721898E+02  0.00000000000E+00 0. -1.
         -5    1    5    5    0  502  0.16755485946E+02 -0.27959296020E+02  0.24686183153E+03  0.24904883539E+03  0.47000000000E+01 0.  1.
         11    1    6    6    0    0  0.74716142507E+01  0.15847422589E+00 -0.30019805294E+01  0.80536960888E+01  0.00000000000E+00 0. -1.
        -12    1    6    6    0    0  0.14116031691E+02  0.11326018718E+03  0.28333862798E+03  0.30546343555E+03  0.00000000000E+00 0.  1.
</event>
<event>
12    1  0.1598254E-001  0.2256045E+03  0.7818608E-02  0.1129996E+00
         21   -1    0    0  503  502  0.00000000000E+00  0.00000000000E+00  0.18688644105E+03  0.18688644105E+03  0.00000000000E+00 0.  1.
         21   -1    0    0  501  503 -0.00000000000E+00 -0.00000000000E+00 -0.28623106070E+03  0.28623106070E+03  0.00000000000E+00 0.  1.
          6    2    1    2  501    0  0.12208684915E+03 -0.78106367865E+02 -0.10463031827E+03  0.24868632540E+03  0.17289182023E+03 0.  0.
         24    2    3    3    0    0  0.13214703377E+03 -0.56559290350E+02 -0.27027442338E+02  0.16738577056E+03  0.81398536148E+02 0.  0.
         -6    2    1    2    0  502 -0.12208684915E+03  0.78106367865E+02  0.52856986129E+01  0.22443117635E+03  0.17127641657E+03 0.  0.
        -24    2    5    5    0    0 -0.14344499728E+03  0.98842634543E+02  0.15607085622E+02  0.19257549747E+03  0.80594090705E+02 0.  0.
          5    1    3    3  501    0 -0.10060184628E+02 -0.21547077515E+02 -0.77602875927E+02  0.81300554834E+02  0.47000000000E+01 0. -1.
        -11    1    4    4    0    0  0.10174002377E+03 -0.39615910436E+02 -0.55442764153E+02  0.12245143075E+03  0.00000000000E+00 0.  1.
         12    1    4    4    0    0  0.30407010002E+02 -0.16943379914E+02  0.28415321814E+02  0.44934339808E+02  0.00000000000E+00 0. -1.
         -5    1    5    5    0  502  0.21358148132E+02 -0.20736266678E+02 -0.10321387009E+02  0.31855678883E+02  0.47000000000E+01 0.  1.
         11    1    6    6    0    0 -0.11386458637E+02  0.64265269001E+01 -0.23340348690E+02  0.26753010396E+02  0.00000000000E+00 0. -1.
        -12    1    6    6    0    0 -0.13205853864E+03  0.92416107643E+02  0.38947434311E+02  0.16582248707E+03  0.00000000000E+00 0.  1.
</event>
<event>
12    1  0.1598254E-001  0.1739975E+03  0.7818608E-02  0.1173779E+00
         21   -1    0    0  501  502  0.00000000000E+00  0.00000000000E+00  0.14971102789E+03  0.14971102789E+03  0.00000000000E+00 0.  1.
         21   -1    0    0  502  503 -0.00000000000E+00 -0.00000000000E+00 -0.27127141490E+03  0.27127141490E+03  0.00000000000E+00 0.  1.
         -6    2    1    2    0  503  0.38364550628E+01  0.23809194741E+02 -0.16708687980E+03  0.24112756211E+03  0.17217107675E+03 0.  0.
        -24    2    3    3    0    0 -0.30922714932E+02  0.28407623197E+02 -0.28419275387E+02  0.98018722570E+02  0.83885680579E+02 0.  0.
          6    2    1    2  501    0 -0.38364550628E+01 -0.23809194741E+02  0.45526492789E+02  0.17985488068E+03  0.17231807919E+03 0.  0.
         24    2    5    5    0    0 -0.19134923034E+02 -0.92735501638E+01  0.94818120062E+02  0.12603032676E+03  0.80255986431E+02 0.  0.
          5    1    5    5  501    0  0.15298467972E+02 -0.14535644578E+02 -0.49291627273E+02  0.53824553920E+02  0.47000000000E+01 0. -1.
        -13    1    6    6    0    0 -0.45551548707E+02 -0.22726671916E+02  0.44428923982E+02  0.67567555026E+02  0.00000000000E+00 0.  1.
         14    1    6    6    0    0  0.26416625673E+02  0.13453121752E+02  0.50389196080E+02  0.58462771730E+02  0.00000000000E+00 0. -1.
         -5    1    3    3    0  503  0.34759169995E+02 -0.45984284552E+01 -0.13866760441E+03  0.14310883954E+03  0.47000000000E+01 0.  1.
         13    1    4    4    0    0 -0.43280643846E+02 -0.16011349819E+02 -0.23102431225E+02  0.51607167945E+02  0.00000000000E+00 0. -1.
        -14    1    4    4    0    0  0.12357928914E+02  0.44418973016E+02 -0.53168441623E+01  0.46411554625E+02  0.00000000000E+00 0.  1.
</event>
<event>
12    1  0.1598254E-001  0.1989984E+03  0.7818608E-02  0.1151033E+00
         21   -1    0    0  503  502  0.00000000000E+00  0.00000000000E+00  0.17987747781E+04  0.17987747781E+04  0.00000000000E+00 0. -1.
         21   -1    0    0  501  503 -0.00000000000E+00 -0.00000000000E+00 -0.87763462360E+02  0.87763462360E+02  0.00000000000E+00 0. -1.
          6    2    1    2  501    0 -0.80497456936E+02 -0.52002772146E+02  0.38765494952E+02  0.20273901402E+03  0.17440245216E+03 0.  0.
         24    2    3    3    0    0 -0.90593650145E+02  0.18296566271E+02  0.36490107002E+01  0.12337159270E+03  0.81641048643E+02 0.  0.
         -6    2    1    2    0  502  0.80497456936E+02  0.52002772146E+02  0.16722458208E+04  0.16837992265E+04  0.17201633919E+03 0.  0.
        -24    2    5    5    0    0  0.44784562261E+02 -0.37534588651E+02  0.87098197901E+03  0.87674397186E+03  0.81583589389E+02 0.  0.
          5    1    3    3  501    0  0.10096193209E+02 -0.70299338417E+02  0.35116484252E+02  0.79367421310E+02  0.47000000000E+01 0. -1.
        -13    1    4    4    0    0 -0.43344703979E+02  0.17204506452E+02  0.41805657532E+02  0.62629636810E+02  0.00000000000E+00 0.  1.
         14    1    4    4    0    0 -0.47248946166E+02  0.10920598190E+01 -0.38156646832E+02  0.60741955895E+02  0.00000000000E+00 0. -1.
         -5    1    5    5    0  502  0.35712894674E+02  0.89537360797E+02  0.80126384179E+03  0.80705525460E+03  0.47000000000E+01 0.  1.
         11    1    6    6    0    0  0.32885406603E+02  0.13336931095E+02  0.58174858924E+03  0.58282994500E+03  0.00000000000E+00 0. -1.
        -12    1    6    6    0    0  0.11899155659E+02 -0.50871519746E+02  0.28923338977E+03  0.29391402686E+03  0.00000000000E+00 0.  1.
</event>
<event>
12    1  0.1598254E-001  0.2149850E+03  0.7818608E-02  0.1138064E+00
         21   -1    0    0  503  502  0.00000000000E+00  0.00000000000E+00  0.13560942830E+03  0.13560942830E+03  0.00000000000E+00 0. -1.
         21   -1    0    0  501  503 -0.00000000000E+00 -0.00000000000E+00 -0.35031073041E+03  0.35031073041E+03  0.00000000000E+00 0. -1.
          6    2    1    2  501    0 -0.23567956021E+02 -0.12669437872E+03 -0.60695119397E+02  0.22146515647E+03  0.16957595307E+03 0.  0.
         24    2    3    3    0    0  0.26745511119E+02 -0.21008074293E+02  0.56749257217E+01  0.86824476107E+02  0.79684523710E+02 0.  0.
         -6    2    1    2    0  502  0.23567956021E+02  0.12669437872E+03 -0.15400618271E+03  0.26445500224E+03  0.17208030029E+03 0.  0.
        -24    2    5    5    0    0 -0.31399857841E+02  0.13078698243E+03 -0.94813369250E+02  0.18343593577E+03  0.81043085448E+02 0.  0.
          5    1    3    3  501    0 -0.50313467140E+02 -0.10568630443E+03 -0.66370045119E+02  0.13464068036E+03  0.47000000000E+01 0. -1.
        -11    1    4    4    0    0  0.50016710943E+02  0.61138894953E+01 -0.13329466558E+01  0.50406624218E+02  0.00000000000E+00 0.  1.
         12    1    4    4    0    0 -0.23271199824E+02 -0.27121963788E+02  0.70078723775E+01  0.36417851889E+02  0.00000000000E+00 0. -1.
         -5    1    5    5    0  502  0.54967813861E+02 -0.40926037109E+01 -0.59192813465E+02  0.81019066470E+02  0.47000000000E+01 0.  1.
         13    1    6    6    0    0 -0.25210511975E+02  0.98979326727E+02 -0.10782061330E+03  0.14851855670E+03  0.00000000000E+00 0. -1.
        -14    1    6    6    0    0 -0.61893458658E+01  0.31807655704E+02  0.13007244045E+02  0.34917379073E+02  0.00000000000E+00 0.  1.
</event>
<event>
12    1  0.1598254E-001  0.2991380E+03  0.7818608E-02  0.1085732E+00
         21   -1    0    0  501  502  0.00000000000E+00  0.00000000000E+00  0.12764315202E+04  0.12764315202E+04  0.00000000000E+00 0. -1.
         21   -1    0    0  502  503 -0.00000000000E+00 -0.00000000000E+00 -0.92394682285E+02  0.92394682285E+02  0.00000000000E+00 0.  1.
         -6    2    1    2    0  503  0.21237986654E+03  0.12151487731E+03  0.25466760173E+03  0.39250109072E+03  0.17126133752E+03 0.  0.
        -24    2    3    3    0    0  0.32673824312E+02  0.24738735267E+02  0.39965876956E+02  0.96226211764E+02  0.77347454333E+02 0.  0.
          6    2    1    2  501    0 -0.21237986654E+03 -0.12151487731E+03  0.92936923619E+03  0.97632511176E+03  0.17208275208E+03 0.  0.
         24    2    5    5    0    0 -0.99400294566E+02  0.46551047894E+01  0.53695949270E+03  0.54890173283E+03  0.55367201034E+02 0.  0.
          5    1    5    5  501    0 -0.11297957198E+03 -0.12616998210E+03  0.39240974349E+03  0.42742337893E+03  0.47000000000E+01 0. -1.
        -13    1    6    6    0    0 -0.96058929363E+02  0.47823561379E+01  0.53701286596E+03  0.54555751947E+03  0.00000000000E+00 0.  1.
         14    1    6    6    0    0 -0.33413652024E+01 -0.12725134844E+00 -0.53373265325E-01  0.33442133645E+01  0.00000000000E+00 0. -1.
         -5    1    3    3    0  503  0.17970604223E+03  0.96776142045E+02  0.21470172477E+03  0.29627487896E+03  0.47000000000E+01 0.  1.
         13    1    4    4    0    0  0.30654557379E+02  0.50801465783E+02  0.36982614879E+02  0.69915696499E+02  0.00000000000E+00 0. -1.
        -14    1    4    4    0    0  0.20192669337E+01 -0.26062730516E+02  0.29832620775E+01  0.26310515265E+02  0.00000000000E+00 0.  1.
</event>
<event>
12    1  0.1598254E-001  0.2693589E+03  0.7818608E-02  0.1101661E+00
         21   -1    0    0  503  502  0.00000000000E+00  0.00000000000E+00  0.40962918853E+03  0.40962918853E+03  0.00000000000E+00 0. -1.
         21   -1    0    0  501  503 -0.00000000000E+00 -0.00000000000E+00 -0.47655757916E+03  0.47655757916E+03  0.00000000000E+00 0.  1.
          6    2    1    2  501    0  0.16498396329E+03  0.12639590055E+03 -0.38472869694E+03  0.46959194359E+03  0.17118642299E+03 0.  0.
         24    2    3    3    0    0  0.12355743168E+03  0.61120640899E+02 -0.35296298465E+03  0.38587714489E+03  0.72911801171E+02 0.  0.
         -6    2    1    2    0  502 -0.16498396329E+03 -0.12639590055E+03  0.31780030630E+03  0.41659482410E+03  0.17134345906E+03 0.  0.
        -24    2    5    5    0    0 -0.13001655291E+03 -0.12324573665E+03  0.15411193546E+03  0.24911761349E+03  0.78837053909E+02 0.  0.
          5    1    3    3  501    0  0.41426531612E+02  0.65275259650E+02 -0.31765712292E+02  0.83714798699E+02  0.47000000000E+01 0. -1.
        -11    1    4    4    0    0  0.94373276167E+02  0.74716197264E+02 -0.30705055417E+03  0.32980125561E+03  0.00000000000E+00 0.  1.
         12    1    4    4    0    0  0.29184155511E+02 -0.13595556365E+02 -0.45912430479E+02  0.56075889278E+02  0.00000000000E+00 0. -1.
         -5    1    5    5    0  502 -0.34967410379E+02 -0.31501638950E+01  0.16368837085E+03  0.16747721061E+03  0.47000000000E+01 0.  1.
         13    1    6    6    0    0 -0.20658104868E+02 -0.71951567350E+02  0.55560154188E+02  0.93224010182E+02  0.00000000000E+00 0. -1.
        -14    1    6    6    0    0 -0.10935844804E+03 -0.51294169304E+02  0.98551781267E+02  0.15589360331E+03  0.00000000000E+00 0.  1.
</event>
<event>
12    1  0.1598254E-001  0.2013851E+03  0.7818608E-02  0.1150831E+00
         21   -1    0    0  501  502  0.00000000000E+00  0.00000000000E+00  0.12682641739E+04  0.12682641739E+04  0.00000000000E+00 0. -1.
         21   -1    0    0  502  503 -0.00000000000E+00 -0.00000000000E+00 -0.33218323668E+02  0.33218323668E+02  0.00000000000E+00 0. -1.
         -6    2    1    2    0  503 -0.63483130702E+02 -0.83281065960E+02  0.79413430581E+03  0.81675687159E+03  0.15961405888E+03 0.  0.
        -24    2    3    3    0    0 -0.85312982809E+02 -0.90806560995E+02  0.76417422831E+03  0.77864031662E+03  0.82427876995E+02 0.  0.
          6    2    1    2  501    0  0.63483130702E+02  0.83281065960E+02  0.44091154442E+03  0.48472562597E+03  0.17201772771E+03 0.  0.
         24    2    5    5    0    0  0.10161903119E+02  0.10686389020E+03  0.22471661911E+03  0.26075768488E+03  0.77290723996E+02 0.  0.
          5    1    5    5  501    0  0.53321227582E+02 -0.23582824239E+02  0.21619492531E+03  0.22396794110E+03  0.47000000000E+01 0. -1.
        -11    1    6    6    0    0 -0.45322579341E+01  0.44392920066E+02  0.17203502682E+03  0.17772822839E+03  0.00000000000E+00 0.  1.
         12    1    6    6    0    0  0.14694161053E+02  0.62470970133E+02  0.52681592287E+02  0.83029456486E+02  0.00000000000E+00 0. -1.
         -5    1    3    3    0  503  0.21829852107E+02  0.75254950349E+01  0.29960077507E+02  0.38116554970E+02  0.47000000000E+01 0.  1.
         13    1    4    4    0    0 -0.15792741420E+02 -0.13604026842E+02  0.38285002314E+03  0.38341703203E+03  0.00000000000E+00 0. -1.
        -14    1    4    4    0    0 -0.69520241389E+02 -0.77202534153E+02  0.38132420516E+03  0.39522328459E+03  0.00000000000E+00 0.  1.
</event>
<event>
12    1  0.1598254E-001  0.2142689E+03  0.7818608E-02  0.1138303E+00
         21   -1    0    0  503  502  0.00000000000E+00  0.00000000000E+00  0.57237902008E+02  0.57237902008E+02  0.00000000000E+00 0. -1.
         21   -1    0    0  501  503 -0.00000000000E+00 -0.00000000000E+00 -0.12226486408E+04  0.12226486408E+04  0.00000000000E+00 0. -1.
          6    2    1    2  501    0  0.20819029031E+01  0.12658819576E+03 -0.95899841277E+03  0.98264393509E+03  0.17286480805E+03 0.  0.
         24    2    3    3    0    0 -0.30199872499E+02  0.93789296789E+02 -0.35460832169E+03  0.37648607365E+03  0.79285795387E+02 0.  0.
         -6    2    1    2    0  502 -0.20819029031E+01 -0.12658819576E+03 -0.20641232602E+03  0.29724260771E+03  0.17238971512E+03 0.  0.
        -24    2    5    5    0    0  0.38997695680E+02 -0.33598332287E+02 -0.47678072347E+02  0.10868677667E+03  0.83005714500E+02 0.  0.
          5    1    3    3  501    0  0.32281775402E+02  0.32798898973E+02 -0.60439009108E+03  0.60615786144E+03  0.47000000000E+01 0. -1.
        -11    1    4    4    0    0 -0.47631002192E+02  0.65318413012E+02 -0.31229956399E+03  0.32259297128E+03  0.00000000000E+00 0.  1.
         12    1    4    4    0    0  0.17431129694E+02  0.28470883777E+02 -0.42308757698E+02  0.53893102373E+02  0.00000000000E+00 0. -1.
         -5    1    5    5    0  502 -0.41079598583E+02 -0.92989863475E+02 -0.15873425367E+03  0.18855583104E+03  0.47000000000E+01 0.  1.
         13    1    6    6    0    0  0.25129154962E+01 -0.24400714555E+02  0.19735708499E+02  0.31483452877E+02  0.00000000000E+00 0. -1.
        -14    1    6    6    0    0  0.36484780184E+02 -0.91976177318E+01 -0.67413780846E+02  0.77203323795E+02  0.00000000000E+00 0.  1.
</event>
<event>
12    1  0.1598254E-001  0.2103828E+03  0.7818608E-02  0.1141641E+00
         21   -1    0    0  503  502  0.00000000000E+00  0.00000000000E+00  0.18187414166E+03  0.18187414166E+03  0.00000000000E+00 0.  1.
         21   -1    0    0  501  503 -0.00000000000E+00 -0.00000000000E+00 -0.25276547234E+03  0.25276547234E+03  0.00000000000E+00 0.  1.
          6    2    1    2  501    0 -0.55737403419E+02 -0.10348765070E+03  0.10957035533E+02  0.21066792309E+03  0.17448371042E+03 0.  0.
         24    2    3    3    0    0  0.37443986885E+02 -0.39113410298E+02  0.82499844788E+00  0.96862991289E+02  0.80310942218E+02 0.  0.
         -6    2    1    2    0  502  0.55737403419E+02  0.10348765070E+03 -0.81848366211E+02  0.22397169091E+03  0.17218539802E+03 0.  0.
        -24    2    5    5    0    0  0.37399265300E+02  0.45715045769E+02  0.25490731051E+02  0.10061151504E+03  0.77358445786E+02 0.  0.
          5    1    3    3  501    0 -0.93181390304E+02 -0.64374240403E+02  0.10132037085E+02  0.11380493180E+03  0.47000000000E+01 0. -1.
        -13    1    4    4    0    0  0.49802282334E+01 -0.53700405609E+02  0.18642085782E+02  0.57061927746E+02  0.00000000000E+00 0.  1.
         14    1    4    4    0    0  0.32463758652E+02  0.14586995310E+02 -0.17817087335E+02  0.39801063542E+02  0.00000000000E+00 0. -1.
         -5    1    5    5    0  502  0.18338138119E+02  0.57772604933E+02 -0.10733909726E+03  0.12336017587E+03  0.47000000000E+01 0.  1.
         13    1    6    6    0    0 -0.21768104632E+02  0.26373653494E+02  0.26290739348E+01  0.34297696827E+02  0.00000000000E+00 0. -1.
        -14    1    6    6    0    0  0.59167369933E+02  0.19341392276E+02  0.22861657116E+02  0.66313818213E+02  0.00000000000E+00 0.  1.
</event>
<event>
12    1  0.1598254E-001  0.2255115E+03  0.7818608E-02  0.1129913E+00
         21   -1    0    0  501  502  0.00000000000E+00  0.00000000000E+00  0.18512009966E+03  0.18512009966E+03  0.00000000000E+00 0. -1.
         21   -1    0    0  502  503 -0.00000000000E+00 -0.00000000000E+00 -0.33905899438E+03  0.33905899438E+03  0.00000000000E+00 0. -1.
         -6    2    1    2    0  503 -0.71184371315E+02  0.12786721279E+03 -0.19152293439E+03  0.29555709647E+03  0.17104304737E+03 0.  0.
        -24    2    3    3    0    0 -0.56665867004E+02  0.91299686183E+02 -0.53666817784E+02  0.15211941016E+03  0.93346314525E+02 0.  0.
          6    2    1    2  501    0  0.71184371315E+02 -0.12786721279E+03  0.37584039672E+02  0.22862199757E+03  0.17157569440E+03 0.  0.
         24    2    5    5    0    0  0.30218501207E+02 -0.58507588670E+02 -0.44689034367E+02  0.11338351145E+03  0.80761470571E+02 0.  0.
          5    1    5    5  501    0  0.40965870108E+02 -0.69359624119E+02  0.82273074039E+02  0.11523848612E+03  0.47000000000E+01 0. -1.
        -13    1    6    6    0    0  0.39176800708E+01  0.13414122571E+02  0.11746002935E+02  0.18255286534E+02  0.00000000000E+00 0.  1.
         14    1    6    6    0    0  0.26300821136E+02 -0.71921711241E+02 -0.56435037302E+02  0.95128224915E+02  0.00000000000E+00 0. -1.
         -5    1    3    3    0  503 -0.14518504311E+02  0.36567526607E+02 -0.13785611661E+03  0.14343768632E+03  0.47000000000E+01 0.  1.
         11    1    4    4    0    0 -0.27502581549E+02  0.99171009316E+02 -0.16504486486E+02  0.10422897464E+03  0.00000000000E+00 0. -1.
        -12    1    4    4    0    0 -0.29163285455E+02 -0.78713231338E+01 -0.37162331299E+02  0.47890435517E+02  0.00000000000E+00 0.  1.
</event>
<event>
12    1  0.1598254E-001  0.1764412E+03  0.7818608E-02  0.1172604E+00
         21   -1    0    0  501  502  0.00000000000E+00  0.00000000000E+00  0.28432125647E+03  0.28432125647E+03  0.00000000000E+00 0.  1.
         21   -1    0    0  502  503 -0.00000000000E+00 -0.00000000000E+00 -0.13282325700E+03  0.13282325700E+03  0.00000000000E+00 0.  1.
         -6    2    1    2    0  503  0.40731119078E+01  0.22316182321E+02 -0.18364453845E+02  0.17222670430E+03  0.16973562465E+03 0.  0.
        -24    2    3    3    0    0 -0.35807384695E+02  0.51013335401E+02 -0.50118849446E+02  0.11353758909E+03  0.80587566530E+02 0.  0.
          6    2    1    2  501    0 -0.40731119078E+01 -0.22316182321E+02  0.16986245332E+03  0.24491780916E+03  0.17497679265E+03 0.  0.
         24    2    5    5    0    0  0.34499887061E+02  0.42432193841E+02  0.66143996982E+02  0.11662191426E+03  0.78961441648E+02 0.  0.
          5    1    5    5  501    0 -0.38572998969E+02 -0.64748376163E+02  0.10371845633E+03  0.12829589491E+03  0.47000000000E+01 0. -1.
        -11    1    6    6    0    0 -0.69458746537E+01 -0.19636359250E+02  0.19992991271E+02  0.28871291611E+02  0.00000000000E+00 0.  1.
         12    1    6    6    0    0  0.41445761715E+02  0.62068553091E+02  0.46151005710E+02  0.87750622648E+02  0.00000000000E+00 0. -1.
         -5    1    3    3    0  503  0.39880496603E+02 -0.28697153080E+02  0.31754395600E+02  0.58689115210E+02  0.47000000000E+01 0.  1.
         11    1    4    4    0    0 -0.50363956874E+02  0.10612744556E+02 -0.48257051945E+02  0.70554245523E+02  0.00000000000E+00 0. -1.
        -12    1    4    4    0    0  0.14556572179E+02  0.40400590846E+02 -0.18617975009E+01  0.42983343567E+02  0.00000000000E+00 0.  1.
</event>
<event>
12    1  0.1598254E-001  0.2187016E+03  0.7818608E-02  0.1135434E+00
         21   -1    0    0  501  502  0.00000000000E+00  0.00000000000E+00  0.26665993084E+03  0.26665993084E+03  0.00000000000E+00 0.  1.
         21   -1    0    0  502  503 -0.00000000000E+00 -0.00000000000E+00 -0.17993860740E+03  0.17993860740E+03  0.00000000000E+00 0.  1.
         -6    2    1    2    0  503 -0.12515347883E+03 -0.32777899200E+02  0.72837419788E+02  0.23051176559E+03  0.17633094005E+03 0.  0.
        -24    2    3    3    0    0 -0.82705026088E+02  0.48109036837E+02  0.29664933694E+02  0.12936572703E+03  0.81858916886E+02 0.  0.
          6    2    1    2  501    0  0.12515347883E+03  0.32777899200E+02  0.13883903654E+02  0.21608677264E+03  0.17251940932E+03 0.  0.
         24    2    5    5    0    0  0.21148799019E+02  0.64732715336E+02  0.22523396696E+02  0.10684019587E+03  0.79182876431E+02 0.  0.
          5    1    5    5  501    0  0.10400467981E+03 -0.31954816136E+02 -0.86394930419E+01  0.10924657677E+03  0.47000000000E+01 0. -1.
        -11    1    6    6    0    0  0.68613774743E+01  0.89410361911E+01 -0.28028164636E+02  0.30209247622E+02  0.00000000000E+00 0.  1.
         12    1    6    6    0    0  0.14287421545E+02  0.55791679145E+02  0.50551561332E+02  0.76630948248E+02  0.00000000000E+00 0. -1.
         -5    1    3    3    0  503 -0.42448452742E+02 -0.80886936037E+02  0.43172486094E+02  0.10114603856E+03  0.47000000000E+01 0.  1.
         11    1    4    4    0    0 -0.77738768823E+02  0.30491968292E+02  0.53605207605E+02  0.99230008519E+02  0.00000000000E+00 0. -1.
        -12    1    4    4    0    0 -0.49662572645E+01  0.17617068545E+02 -0.23940273910E+02  0.30135718512E+02  0.00000000000E+00 0.  1.
</event>
<event>
12    1  0.1598254E-001  0.2198036E+03  0.7818608E-02  0.1134838E+00
         21   -1    0    0  503  502  0.00000000000E+00  0.00000000000E+00  0.19528313930E+03  0.19528313930E+03  0.00000000000E+00 0.  1.
         21   -1    0    0  501  503 -0.00000000000E+00 -0.00000000000E+00 -0.41781257866E+03  0.41781257866E+03  0.00000000000E+00 0. -1.
          6    2    1    2  501    0  0.44874895412E+02  0.12636285669E+03 -0.30913530369E+03  0.37684539143E+03  0.16872013887E+03 0.  0.
         24    2    3    3    0    0  0.21068287579E+00  0.13677470861E+03 -0.28167883568E+03  0.32318678375E+03  0.79996033777E+02 0.  0.
         -6    2    1    2    0  502 -0.44874895412E+02 -0.12636285669E+03  0.86605864338E+02  0.23625032654E+03  0.17416174454E+03 0.  0.
        -24    2    5    5    0    0 -0.17819939091E+01 -0.91269466945E+01 -0.51837470668E+01  0.81173959820E+02  0.80472752289E+02 0.  0.
          5    1    3    3  501    0  0.44664212536E+02 -0.10411851919E+02 -0.27456468017E+02  0.53658607677E+02  0.47000000000E+01 0. -1.
        -11    1    4    4    0    0 -0.33296909753E+02  0.11101457045E+03 -0.19758823516E+03  0.22907210595E+03  0.00000000000E+00 0.  1.
         12    1    4    4    0    0  0.33507592629E+02  0.25760138155E+02 -0.84090600520E+02  0.94114677799E+02  0.00000000000E+00 0. -1.
         -5    1    5    5    0  502 -0.43092901503E+02 -0.11723590999E+03  0.91789611405E+02  0.15507636672E+03  0.47000000000E+01 0.  1.
         13    1    6    6    0    0  0.77995871395E+01 -0.25137113688E+01 -0.41880507042E+02  0.42674690093E+02  0.00000000000E+00 0. -1.
        -14    1    6    6    0    0 -0.95815810486E+01 -0.66132353257E+01  0.36696759975E+02  0.38499269728E+02  0.00000000000E+00 0.  1.
</event>
<event>
12    1  0.1598254E-001  0.1738976E+03  0.7818608E-02  0.1174034E+00
         21   -1    0    0  503  502  0.00000000000E+00  0.00000000000E+00  0.74797284404E+02  0.74797284404E+02  0.00000000000E+00 0. -1.
         21   -1    0    0  501  503 -0.00000000000E+00 -0.00000000000E+00 -0.40413473704E+03  0.40413473704E+03  0.00000000000E+00 0. -1.
          6    2    1    2  501    0 -0.23400080474E+02 -0.78943899041E+01 -0.18000765903E+03  0.25028609654E+03  0.17213508548E+03 0.  0.
         24    2    3    3    0    0  0.24195253568E+02  0.48728558058E+02 -0.11753535704E+03  0.15335131137E+03  0.82110790282E+02 0.  0.
         -6    2    1    2    0  502  0.23400080474E+02  0.78943899041E+01 -0.14932979361E+03  0.22864592491E+03  0.17137586341E+03 0.  0.
        -24    2    5    5    0    0  0.82012338665E+00 -0.18879182766E+02 -0.95751748387E+01  0.84492804502E+02  0.81793972242E+02 0.  0.
          5    1    3    3  501    0 -0.47595334042E+02 -0.56622947962E+02 -0.62472301996E+02  0.96934785166E+02  0.47000000000E+01 0. -1.
        -11    1    4    4    0    0  0.15009234494E+02 -0.17505605046E+02 -0.68843960359E+01  0.24064875585E+02  0.00000000000E+00 0.  1.
         12    1    4    4    0    0  0.91860190736E+01  0.66234163105E+02 -0.11065096100E+03  0.12928643579E+03  0.00000000000E+00 0. -1.
         -5    1    5    5    0  502  0.22579957087E+02  0.26773572670E+02 -0.13975461877E+03  0.14415312040E+03  0.47000000000E+01 0.  1.
         11    1    6    6    0    0  0.40727852401E+02 -0.94730941262E+01  0.20813424061E+01  0.41866806181E+02  0.00000000000E+00 0. -1.
        -12    1    6    6    0    0 -0.39907729015E+02 -0.94060886398E+01 -0.11656517245E+02  0.42625998321E+02  0.00000000000E+00 0.  1.
</event>
<event>
12    1  0.1598254E-001  0.2039791E+03  0.7818608E-02  0.1146677E+00
         21   -1    0    0  501  502  0.00000000000E+00  0.00000000000E+00  0.63121530559E+03  0.63121530559E+03  0.00000000000E+00 0.  1.
         21   -1    0    0  502  503 -0.00000000000E+00 -0.00000000000E+00 -0.68747282820E+02  0.68747282820E+02  0.00000000000E+00 0. -1.
         -6    2    1    2    0  503  0.79594032785E+02 -0.71175071393E+02  0.20462812390E+03  0.28806837080E+03  0.17236477692E+03 0.  0.
        -24    2    3    3    0    0  0.10543754258E+03 -0.87302498752E+02  0.12293144931E+03  0.20075045998E+03  0.80310673498E+02 0.  0.
          6    2    1    2  501    0 -0.79594032785E+02  0.71175071393E+02  0.35783989887E+03  0.41189421761E+03  0.17379974809E+03 0.  0.
         24    2    5    5    0    0 -0.14034657590E+02 -0.35530482240E+02  0.13677039028E+03  0.15777234827E+03  0.68750181362E+02 0.  0.
          5    1    5    5  501    0 -0.65559375195E+02  0.10670555363E+03  0.22106950859E+03  0.25412186935E+03  0.47000000000E+01 0. -1.
        -13    1    6    6    0    0 -0.44891640472E+01  0.19726808163E+02  0.55163251824E+02  0.58756139304E+02  0.00000000000E+00 0.  1.
         14    1    6    6    0    0 -0.95454935428E+01 -0.55257290403E+02  0.81607138459E+02  0.99016208962E+02  0.00000000000E+00 0. -1.
         -5    1    3    3    0  503 -0.25843509793E+02  0.16127427360E+02  0.81696674588E+02  0.87317910822E+02  0.47000000000E+01 0.  1.
         11    1    4    4    0    0  0.70481315984E+01 -0.44840104854E+02  0.12966745802E+02  0.47206436627E+02  0.00000000000E+00 0. -1.
        -12    1    4    4    0    0  0.98389410980E+02 -0.42462393899E+02  0.10996470351E+03  0.15354402335E+03  0.00000000000E+00 0.  1.
</event>
<event>
12    1  0.1598254E-001  0.1786373E+03  0.7818608E-02  0.1169445E+00
         21   -1    0    0  501  502  0.00000000000E+00  0.00000000000E+00  0.41016598382E+02  0.41016598382E+02  0.00000000000E+00 0.  1.
         21   -1    0    0  502  503 -0.00000000000E+00 -0.00000000000E+00 -0.78960303189E+03  0.78960303189E+03  0.00000000000E+00 0.  1.
         -6    2    1    2    0  503  0.25154934550E+02 -0.30493596906E+02 -0.43426618140E+03  0.46908330789E+03  0.17288552064E+03 0.  0.
        -24    2    3    3    0    0  0.83973174911E+02 -0.97291643103E+01 -0.28494890037E+03  0.30719295155E+03  0.77623984175E+02 0.  0.
          6    2    1    2  501    0 -0.25154934550E+02  0.30493596906E+02 -0.31432025210E+03  0.36153632238E+03  0.17420867181E+03 0.  0.
         24    2    5    5    0    0 -0.45664029768E+02  0.75252040552E+02 -0.16262042990E+03  0.20197797155E+03  0.81250375673E+02 0.  0.
          5    1    5    5  501    0  0.20509095218E+02 -0.44758443646E+02 -0.15169982220E+03  0.15955835083E+03  0.47000000000E+01 0. -1.
        -11    1    6    6    0    0 -0.21775082768E+02  0.41498061676E+02 -0.15231409454E+03  0.15936068131E+03  0.00000000000E+00 0.  1.
         12    1    6    6    0    0 -0.23888947000E+02  0.33753978876E+02 -0.10306335365E+02  0.42617290239E+02  0.00000000000E+00 0. -1.
         -5    1    3    3    0  503 -0.58818240361E+02 -0.20764432596E+02 -0.14931728104E+03  0.16189035634E+03  0.47000000000E+01 0.  1.
         13    1    4    4    0    0  0.15811232170E+02 -0.18230971660E+02 -0.14491567953E+02  0.28149048512E+02  0.00000000000E+00 0. -1.
        -14    1    4    4    0    0  0.68161942741E+02  0.85018073495E+01 -0.27045733241E+03  0.27904390304E+03  0.00000000000E+00 0.  1.
</event>
<event>
12    1  0.1598254E-001  0.2054881E+03  0.7818608E-02  0.1145221E+00
         21   -1    0    0  503  502  0.00000000000E+00  0.00000000000E+00  0.52828127410E+03  0.52828127410E+03  0.00000000000E+00 0.  1.
         21   -1    0    0  501  503 -0.00000000000E+00 -0.00000000000E+00 -0.18454323909E+03  0.18454323909E+03  0.00000000000E+00 0.  1.
          6    2    1    2  501    0 -0.99962671090E+02  0.51808912174E+02 -0.96526967820E+02  0.22703039887E+03  0.17189720039E+03 0.  0.
         24    2    3    3    0    0 -0.94736303875E+02  0.96044211270E+02 -0.84175892608E+02  0.18056841807E+03  0.85556501326E+02 0.  0.
         -6    2    1    2    0  502  0.99962671090E+02 -0.51808912174E+02  0.44026500283E+03  0.48579411433E+03  0.17171473382E+03 0.  0.
        -24    2    5    5    0    0  0.86408112004E+02 -0.38537024647E+01  0.41124374698E+03  0.42793435715E+03  0.80778597116E+02 0.  0.
          5    1    3    3  501    0 -0.52263672143E+01 -0.44235299096E+02 -0.12351075212E+02  0.46461980793E+02  0.47000000000E+01 0. -1.
        -13    1    4    4    0    0 -0.53956713881E+02  0.22555100275E+02  0.41721433133E+01  0.58629909612E+02  0.00000000000E+00 0.  1.
         14    1    4    4    0    0 -0.40779589994E+02  0.73489110995E+02 -0.88348035921E+02  0.12193850846E+03  0.00000000000E+00 0. -1.
         -5    1    5    5    0  502  0.13554559086E+02 -0.47955209709E+02  0.29021255845E+02  0.57859757181E+02  0.47000000000E+01 0.  1.
         11    1    6    6    0    0  0.15211488106E+02 -0.24146111783E+02  0.38577875952E+02  0.47986212579E+02  0.00000000000E+00 0. -1.
        -12    1    6    6    0    0  0.71196623898E+02  0.20292409318E+02  0.37266587103E+03  0.37994814457E+03  0.00000000000E+00 0.  1.
</event>
<event>
12    1  0.1598254E-001  0.1826011E+03  0.7818608E-02  0.1165348E+00
         21   -1    0    0  503  502  0.00000000000E+00  0.00000000000E+00  0.47015427718E+03  0.47015427718E+03  0.00000000000E+00 0. -1.
         21   -1    0    0  501  503 -0.00000000000E+00 -0.00000000000E+00 -0.32466942869E+03  0.32466942869E+03  0.00000000000E+00 0. -1.
          6    2    1    2  501    0  0.48551928610E+02  0.35976428400E+02 -0.27864464483E+03  0.33305644775E+03  0.17213996085E+03 0.  0.
         24    2    3    3    0    0 -0.22923527434E+02  0.53489406599E+02 -0.20948457764E+03  0.23195921675E+03  0.80837399992E+02 0.  0.
         -6    2    1    2    0  502 -0.48551928610E+02 -0.35976428400E+02  0.42412949331E+03  0.46176725812E+03  0.17231244992E+03 0.  0.
        -24    2    5    5    0    0 -0.58607065677E+02 -0.82634185759E+02  0.25348606034E+03  0.28451229113E+03  0.80180198397E+02 0.  0.
          5    1    3    3  501    0  0.71475456044E+02 -0.17512978199E+02 -0.69160067185E+02  0.10109723100E+03  0.47000000000E+01 0. -1.
        -11    1    4    4    0    0 -0.53257822616E+02  0.35298064934E+02 -0.14382795371E+03  0.15738115937E+03  0.00000000000E+00 0.  1.
         12    1    4    4    0    0  0.30334295182E+02  0.18191341665E+02 -0.65656623932E+02  0.74578057376E+02  0.00000000000E+00 0. -1.
         -5    1    5    5    0  502  0.10055137067E+02  0.46657757359E+02  0.17064343298E+03  0.17725496699E+03  0.47000000000E+01 0.  1.
         13    1    6    6    0    0 -0.18137158661E+02 -0.53167038668E+02  0.21254000737E+03  0.21983845264E+03  0.00000000000E+00 0. -1.
        -14    1    6    6    0    0 -0.40469907016E+02 -0.29467147091E+02  0.40946052965E+02  0.64673838490E+02  0.00000000000E+00 0.  1.
</event>
<event>
12    1  0.1598254E-001  0.2171813E+03  0.7818608E-02  0.1136084E+00
         21   -1    0    0  503  502  0.00000000000E+00  0.00000000000E+00  0.67693900072E+03  0.67693900072E+03  0.00000000000E+00 0. -1.
         21   -1    0    0  501  503 -0.00000000000E+00 -0.00000000000E+00 -0.71960464718E+02  0.71960464718E+02  0.00000000000E+00 0. -1.
          6    2    1    2  501    0  0.29779360263E+02  0.12960123711E+03  0.23408900807E+03  0.31932018542E+03  0.17171029719E+03 0.  0.
         24    2    3    3    0    0  0.11687067079E+02  0.76589448006E+02  0.23798260222E+03  0.26297454733E+03  0.80730183333E+02 0.  0.
         -6    2    1    2    0  502 -0.29779360263E+02 -0.12960123711E+03  0.37088952793E+03  0.42957928001E+03  0.17116081599E+03 0.  0.
        -24    2    5    5    0    0 -0.51319676595E+02 -0.11393671248E+03  0.16366508693E+03  0.22059741117E+03  0.79130736604E+02 0.  0.
          5    1    3    3  501    0  0.18092293185E+02  0.53011789104E+02 -0.38935941519E+01  0.56345638093E+02  0.47000000000E+01 0. -1.
        -13    1    4    4    0    0 -0.34469801386E+02  0.24506085288E+02  0.91335949081E+02  0.10065272484E+03  0.00000000000E+00 0.  1.
         14    1    4    4    0    0  0.46156868465E+02  0.52083362718E+02  0.14664665314E+03  0.16232182249E+03  0.00000000000E+00 0. -1.
         -5    1    5    5    0  502  0.21540316332E+02 -0.15664524626E+02  0.20722444100E+03  0.20898186885E+03  0.47000000000E+01 0.  1.
         11    1    6    6    0    0  0.16412762626E+02 -0.50477447846E+02  0.77620461852E+02  0.94033438819E+02  0.00000000000E+00 0. -1.
        -12    1    6    6    0    0 -0.67732439221E+02 -0.63459264638E+02  0.86044625081E+02  0.12656397235E+03  0.00000000000E+00 0.  1.
</event>
<event>
12    1  0.1598254E-001  0.1817728E+03  0.7818608E-02  0.1166425E+00
         21   -1    0    0  501  502  0.00000000000E+00  0.00000000000E+00  0.90683821182E+02  0.90683821182E+02  0.00000000000E+00 0.  1.
         21   -1    0    0  502  503 -0.00000000000E+00 -0.00000000000E+00 -0.37851487746E+03  0.37851487746E+03  0.00000000000E+00 0. -1.
         -6    2    1    2    0  503  0.55351344973E+02  0.96732484220E+01 -0.19397490622E+03  0.26583381285E+03  0.17286991840E+03 0.  0.
        -24    2    3    3    0    0  0.80128141825E+01 -0.35788612877E+02 -0.33255599041E+02  0.92166017826E+02  0.77740658419E+02 0.  0.
          6    2    1    2  501    0 -0.55351344973E+02 -0.96732484220E+01 -0.93856150060E+02  0.20336488579E+03  0.17143790929E+03 0.  0.
         24    2    5    5    0    0 -0.60055541195E+01 -0.13433275256E+02  0.12939389606E+02  0.85566234825E+02  0.83292455687E+02 0.  0.
          5    1    5    5  501    0 -0.49345790853E+02  0.37600268345E+01 -0.10679553967E+03  0.11779865096E+03  0.47000000000E+01 0. -1.
        -11    1    6    6    0    0 -0.11161112507E+02 -0.48011956776E+02  0.11277772899E+02  0.50565863855E+02  0.00000000000E+00 0.  1.
         12    1    6    6    0    0  0.51555583880E+01  0.34578681519E+02  0.16616167065E+01  0.35000370969E+02  0.00000000000E+00 0. -1.
         -5    1    3    3    0  503  0.47338530790E+02  0.45461861299E+02 -0.16071930717E+03  0.17366779502E+03  0.47000000000E+01 0.  1.
         13    1    4    4    0    0  0.47126317466E+01 -0.15745954240E+02 -0.57924091323E+02  0.60210832318E+02  0.00000000000E+00 0. -1.
        -14    1    4    4    0    0  0.33001824359E+01 -0.20042658637E+02  0.24668492282E+02  0.31955185507E+02  0.00000000000E+00 0.  1.
</event>
<event>
12    1  0.1598254E-001  0.1836408E+03  0.7818608E-02  0.1164540E+00
         21   -1    0    0  501  502  0.00000000000E+00  0.00000000000E+00  0.15828666079E+03  0.15828666079E+03  0.00000000000E+00 0.  1.
         21   -1    0    0  502  503 -0.00000000000E+00 -0.00000000000E+00 -0.31705552960E+03  0.31705552960E+03  0.00000000000E+00 0.  1.
         -6    2    1    2    0  503  0.23748418019E+02 -0.58670129738E+02 -0.21632250314E+03  0.28375932146E+03  0.17238838611E+03 0.  0.
        -24    2    3    3    0    0  0.71276417464E+02 -0.75380073371E+02 -0.17363274470E+03  0.21755782281E+03  0.80128603414E+02 0.  0.
          6    2    1    2  501    0 -0.23748418019E+02  0.58670129738E+02  0.57553634332E+02  0.19158286893E+03  0.17142171204E+03 0.  0.
         24    2    5    5    0    0  0.30877485528E+01  0.89992953427E+02  0.37355318296E+00  0.12092205376E+03  0.80707730021E+02 0.  0.
          5    1    5    5  501    0 -0.26836166572E+02 -0.31322823689E+02  0.57180081149E+02  0.70660815169E+02  0.47000000000E+01 0. -1.
        -11    1    6    6    0    0  0.19208121835E+02  0.48416321602E+02  0.36441076037E+02  0.63569207677E+02  0.00000000000E+00 0.  1.
         12    1    6    6    0    0 -0.16120373282E+02  0.41576631825E+02 -0.36067522854E+02  0.57352846080E+02  0.00000000000E+00 0. -1.
         -5    1    3    3    0  503 -0.47527999445E+02  0.16709943633E+02 -0.42689758442E+02  0.66201498648E+02  0.47000000000E+01 0.  1.
         13    1    4    4    0    0  0.19030307486E+02 -0.75579977242E+02 -0.91246089542E+02  0.12000139341E+03  0.00000000000E+00 0. -1.
        -14    1    4    4    0    0  0.52246109978E+02  0.19990387126E+00 -0.82386655158E+02  0.97556429401E+02  0.00000000000E+00 0.  1.
</event>
<event>
12    1  0.1598254E-001  0.1844250E+03  0.7818608E-02  0.1163956E+00
         21   -1    0    0  501  502  0.00000000000E+00  0.00000000000E+00  0.16975256083E+04  0.16975256083E+04  0.00000000000E+00 0.  1.
         21   -1    0    0  502  503 -0.00000000000E+00 -0.00000000000E+00 -0.23072030470E+02  0.23072030470E+02  0.00000000000E+00 0.  1.
         -6    2    1    2    0  503  0.68155917919E+02  0.93547579278E+01  0.51353769137E+03  0.54512400075E+03  0.16942985303E+03 0.  0.
        -24    2    3    3    0    0  0.31706436187E+02 -0.46232136423E+02  0.41426450405E+03  0.42555927660E+03  0.79642388516E+02 0.  0.
          6    2    1    2  501    0 -0.68155917919E+02 -0.93547579278E+01  0.11609158865E+04  0.11754736380E+04  0.17111352253E+03 0.  0.
         24    2    5    5    0    0 -0.45491909874E+01 -0.23208958137E+02  0.97245322314E+03  0.97602935999E+03  0.80054290816E+02 0.  0.
          5    1    5    5  501    0 -0.63606726931E+02  0.13854200210E+02  0.18846266332E+03  0.19944427803E+03  0.47000000000E+01 0. -1.
        -11    1    6    6    0    0 -0.58568363909E+01  0.29839666288E+02  0.35660107446E+03  0.35789528430E+03  0.00000000000E+00 0.  1.
         12    1    6    6    0    0  0.13076454035E+01 -0.53048624425E+02  0.61585214868E+03  0.61813407569E+03  0.00000000000E+00 0. -1.
         -5    1    3    3    0  503  0.36449481731E+02  0.55586894350E+02  0.99273187320E+02  0.11956472416E+03  0.47000000000E+01 0.  1.
         13    1    4    4    0    0 -0.21755936397E+02 -0.35929011408E+02  0.21025892899E+03  0.21441322685E+03  0.00000000000E+00 0. -1.
        -14    1    4    4    0    0  0.53462372584E+02 -0.10303125014E+02  0.20400557506E+03  0.21114604974E+03  0.00000000000E+00 0.  1.
</event>
<event>
12    1  0.1598254E-001  0.1973207E+03  0.7818608E-02  0.1152465E+00
         21   -1    0    0  503  502  0.00000000000E+00  0.00000000000E+00  0.61361887468E+02  0.61361887468E+02  0.00000000000E+00 0.  1.
         21   -1    0    0  501  503 -0.00000000000E+00 -0.00000000000E+00 -0.62833261718E+03  0.62833261718E+03  0.00000000000E+00 0.  1.
          6    2    1    2  501    0  0.51838035149E+02 -0.75947477375E+02 -0.27298551978E+03  0.33562845156E+03  0.17225028963E+03 0.  0.
         24    2    3    3    0    0 -0.35941835146E+01 -0.62225185072E+02 -0.66448019563E+02  0.12129025812E+03  0.80069317453E+02 0.  0.
         -6    2    1    2    0  502 -0.51838035149E+02  0.75947477375E+02 -0.29398520993E+03  0.35406605309E+03  0.17458598193E+03 0.  0.
        -24    2    5    5    0    0  0.41211737542E+02  0.19066913627E+02 -0.12195206346E+03  0.15032319502E+03  0.75251595811E+02 0.  0.
          5    1    3    3  501    0  0.55432218663E+02 -0.13722292303E+02 -0.20653750022E+03  0.21433819344E+03  0.47000000000E+01 0. -1.
        -13    1    4    4    0    0 -0.17394682045E+02 -0.31327054781E+02 -0.77752502981E+02  0.85611979562E+02  0.00000000000E+00 0.  1.
         14    1    4    4    0    0  0.13800498530E+02 -0.30898130291E+02  0.11304483418E+02  0.35678278553E+02  0.00000000000E+00 0. -1.
         -5    1    5    5    0  502 -0.93049772691E+02  0.56880563748E+02 -0.17203314646E+03  0.20374285806E+03  0.47000000000E+01 0.  1.
         13    1    6    6    0    0  0.40687604452E+01  0.32460407310E+02 -0.14382989858E+02  0.35736581419E+02  0.00000000000E+00 0. -1.
        -14    1    6    6    0    0  0.37142977097E+02 -0.13393493683E+02 -0.10756907360E+03  0.11458661360E+03  0.00000000000E+00 0.  1.
</event>
<event>
12    1  0.1598254E-001  0.2250427E+03  0.7818608E-02  0.1130437E+00
         21   -1    0    0  501  502  0.00000000000E+00  0.00000000000E+00  0.48665243505E+03  0.48665243505E+03  0.00000000000E+00 0. -1.
         21   -1    0    0  502  503 -0.00000000000E+00 -0.00000000000E+00 -0.12000868429E+03  0.12000868429E+03  0.00000000000E+00 0. -1.
         -6    2    1    2    0  503  0.14306819407E+03  0.15552481628E+02  0.71011802152E+02  0.23598069837E+03  0.17301394777E+03 0.  0.
        -24    2    3    3    0    0  0.14720447043E+03 -0.29710716545E+02  0.25763975587E+02  0.17167423136E+03  0.79097259638E+02 0.  0.
          6    2    1    2  501    0 -0.14306819407E+03 -0.15552481628E+02  0.29563194861E+03  0.37068042097E+03  0.17115880815E+03 0.  0.
         24    2    5    5    0    0 -0.18218060006E+02 -0.95115726502E+01  0.54435329559E+02  0.98978474709E+02  0.80069754758E+02 0.  0.
          5    1    5    5  501    0 -0.12485013406E+03 -0.60409089774E+01  0.24119661905E+03  0.27170194626E+03  0.47000000000E+01 0. -1.
        -13    1    6    6    0    0 -0.11504310799E+02  0.34927072086E+02  0.17116641327E+02  0.40561421841E+02  0.00000000000E+00 0.  1.
         14    1    6    6    0    0 -0.67137492075E+01 -0.44438644737E+02  0.37318688231E+02  0.58417052868E+02  0.00000000000E+00 0. -1.
         -5    1    3    3    0  503 -0.41362763650E+01  0.45263198172E+02  0.45247826566E+02  0.64306467014E+02  0.47000000000E+01 0.  1.
         11    1    4    4    0    0  0.64177013149E+02  0.26467158875E+02  0.82573016599E+01  0.69909817238E+02  0.00000000000E+00 0. -1.
        -12    1    4    4    0    0  0.83027457283E+02 -0.56177875419E+02  0.17506673927E+02  0.10176441412E+03  0.00000000000E+00 0.  1.
</event>
<event>
12    1  0.1598254E-001  0.1998374E+03  0.7818608E-02  0.1149975E+00
         21   -1    0    0  503  502  0.00000000000E+00  0.00000000000E+00  0.16284689897E+03  0.16284689897E+03  0.00000000000E+00 0. -1.
         21   -1    0    0  501  503 -0.00000000000E+00 -0.00000000000E+00 -0.26728453864E+03  0.26728453864E+03  0.00000000000E+00 0. -1.
          6    2    1    2  501    0  0.73767636133E+02 -0.68099932133E+02 -0.11473462070E+03  0.23002891227E+03  0.17224982553E+03 0.  0.
         24    2    3    3    0    0 -0.11396257481E+02 -0.74793337516E+02 -0.86465582804E+02  0.13992386826E+03  0.79865348427E+02 0.  0.
         -6    2    1    2    0  502 -0.73767636133E+02  0.68099932133E+02  0.10296981038E+02  0.20010252534E+03  0.17278810124E+03 0.  0.
        -24    2    5    5    0    0  0.38131318676E+01  0.51226950025E+02  0.54759486697E+02  0.10898459353E+03  0.78995568604E+02 0.  0.
          5    1    3    3  501    0  0.85163893614E+02  0.66934053821E+01 -0.28269037899E+02  0.90105044003E+02  0.47000000000E+01 0. -1.
        -13    1    4    4    0    0 -0.19903889905E+02 -0.47843172433E+02 -0.31142985652E+01  0.51911779370E+02  0.00000000000E+00 0.  1.
         14    1    4    4    0    0  0.85076324244E+01 -0.26950165083E+02 -0.83351284238E+02  0.88012088895E+02  0.00000000000E+00 0. -1.
         -5    1    5    5    0  502 -0.77580768001E+02  0.16872982108E+02 -0.44462505658E+02  0.91117931815E+02  0.47000000000E+01 0.  1.
         13    1    6    6    0    0 -0.32115494873E+02  0.40499103736E+02  0.13891422800E+02  0.53521528769E+02  0.00000000000E+00 0. -1.
        -14    1    6    6    0    0  0.35928626741E+02  0.10727846290E+02  0.40868063897E+02  0.55463064756E+02  0.00000000000E+00 0.  1.
</event>
<event>
12    1  0.1598254E-001  0.1808679E+03  0.7818608E-02  0.1167024E+00
         21   -1    0    0  501  502  0.00000000000E+00  0.00000000000E+00  0.87393114325E+03  0.87393114325E+03  0.00000000000E+00 0. -1.
         21   -1    0    0  502  503 -0.00000000000E+00 -0.00000000000E+00 -0.39197595464E+02  0.39197595464E+02  0.00000000000E+00 0. -1.
         -6    2    1    2    0  503 -0.81894831104E+00  0.53805497989E+02  0.51589397308E+03  0.54668069080E+03  0.17267739845E+03 0.  0.
        -24    2    3    3    0    0  0.27859402524E+01  0.22508080830E+01  0.46930772432E+03  0.47694368594E+03  0.84927686000E+02 0.  0.
          6    2    1    2  501    0  0.81894831104E+00 -0.53805497989E+02  0.31883957471E+03  0.36644804792E+03  0.17242330219E+03 0.  0.
         24    2    5    5    0    0 -0.95281935777E+01  0.26861912464E+02  0.23333887377E+03  0.24835167069E+03  0.80119744812E+02 0.  0.
          5    1    5    5  501    0  0.10347141889E+02 -0.80667410453E+02  0.85500700939E+02  0.11809637723E+03  0.47000000000E+01 0. -1.
        -13    1    6    6    0    0  0.67203325594E+01  0.28882347819E+02  0.22966421426E+03  0.23157073260E+03  0.00000000000E+00 0.  1.
         14    1    6    6    0    0 -0.16248526137E+02 -0.20204353544E+01  0.36746595075E+01  0.16780938089E+02  0.00000000000E+00 0. -1.
         -5    1    3    3    0  503 -0.36048885634E+01  0.51554689906E+02  0.46586248764E+02  0.69737004860E+02  0.47000000000E+01 0.  1.
         11    1    4    4    0    0 -0.30331228907E+02 -0.24166016454E+02  0.29619304122E+03  0.29872110315E+03  0.00000000000E+00 0. -1.
        -12    1    4    4    0    0  0.33117169159E+02  0.26416824537E+02  0.17311468309E+03  0.17822258279E+03  0.00000000000E+00 0.  1.
</event>
<event>
12    1  0.1598254E-001  0.2515429E+03  0.7818608E-02  0.1112373E+00
         21   -1    0    0  503  502  0.00000000000E+00  0.00000000000E+00  0.19707579733E+03  0.19707579733E+03  0.00000000000E+00 0.  1.
         21   -1    0    0  501  503 -0.00000000000E+00 -0.00000000000E+00 -0.47890665170E+03  0.47890665170E+03  0.00000000000E+00 0.  1.
          6    2    1    2  501    0 -0.13913981619E+03 -0.11924048218E+03 -0.33510427928E+03  0.41886014685E+03  0.17196151774E+03 0.  0.
         24    2    3    3    0    0 -0.13095201376E+03 -0.45119036893E+02 -0.15048041393E+03  0.21968913888E+03  0.80217238587E+02 0.  0.
         -6    2    1    2    0  502  0.13913981619E+03  0.11924048218E+03  0.53273424898E+02  0.25712230219E+03  0.17232422766E+03 0.  0.
        -24    2    5    5    0    0  0.20516391007E+02  0.54587388970E+02 -0.21426027347E+02  0.10267607326E+03  0.81747146966E+02 0.  0.
          5    1    3    3  501    0 -0.81878024378E+01 -0.74121445287E+02 -0.18462386535E+03  0.19917100797E+03  0.47000000000E+01 0. -1.
        -13    1    4    4    0    0 -0.91544648420E+02 -0.51369706155E+02 -0.14559458935E+03  0.17949109675E+03  0.00000000000E+00 0.  1.
         14    1    4    4    0    0 -0.39407365336E+02  0.62506692622E+01 -0.48858245814E+01  0.40198042126E+02  0.00000000000E+00 0. -1.
         -5    1    5    5    0  502  0.11862342519E+03  0.64653093210E+02  0.74699452245E+02  0.15444622893E+03  0.47000000000E+01 0.  1.
         13    1    6    6    0    0 -0.28735719129E+02  0.27290253529E+01 -0.73180867081E+01  0.29778239140E+02  0.00000000000E+00 0. -1.
        -14    1    6    6    0    0  0.49252110136E+02  0.51858363617E+02 -0.14107940639E+02  0.72897834117E+02  0.00000000000E+00 0.  1.
</event>
<event>
12    1  0.1598254E-001  0.2897655E+03  0.7818608E-02  0.1090600E+00
         21   -1    0    0  503  502  0.00000000000E+00  0.00000000000E+00  0.20347182959E+03  0.20347182959E+03  0.00000000000E+00 0.  1.
         21   -1    0    0  501  503 -0.00000000000E+00 -0.00000000000E+00 -0.67997031702E+03  0.67997031702E+03  0.00000000000E+00 0.  1.
          6    2    1    2  501    0  0.20005729792E+03 -0.11864820709E+03 -0.51617590093E+03  0.59194728788E+03  0.17281120169E+03 0.  0.
         24    2    3    3    0    0  0.20787029358E+03 -0.95528274537E+02 -0.36132270002E+03  0.43511241288E+03  0.80206035366E+02 0.  0.
         -6    2    1    2    0  502 -0.20005729792E+03  0.11864820709E+03  0.39677413500E+02  0.29149485874E+03  0.17115675865E+03 0.  0.
        -24    2    5    5    0    0 -0.79472544986E+02  0.33477066632E+02  0.91217688991E+02  0.13505542699E+03  0.49826721521E+02 0.  0.
          5    1    3    3  501    0 -0.78129956567E+01 -0.23119932556E+02 -0.15485320091E+03  0.15683487499E+03  0.47000000000E+01 0. -1.
        -11    1    4    4    0    0  0.12560369070E+03 -0.47447569422E+02 -0.13913722352E+03  0.19335647372E+03  0.00000000000E+00 0.  1.
         12    1    4    4    0    0  0.82266602876E+02 -0.48080705116E+02 -0.22218547650E+03  0.24175593916E+03  0.00000000000E+00 0. -1.
         -5    1    5    5    0  502 -0.12058475293E+03  0.85171140462E+02 -0.51540275491E+02  0.15643943175E+03  0.47000000000E+01 0.  1.
         13    1    6    6    0    0 -0.22872142674E+02 -0.12945723983E+02  0.26957006163E+02  0.37648464261E+02  0.00000000000E+00 0. -1.
        -14    1    6    6    0    0 -0.56600402313E+02  0.46422790615E+02  0.64260682828E+02  0.97406962729E+02  0.00000000000E+00 0.  1.
</event>
<event>
12    1  0.1598254E-001  0.2002050E+03  0.7818608E-02  0.1149667E+00
         21   -1    0    0  501  502  0.00000000000E+00  0.00000000000E+00  0.11714353949E+03  0.11714353949E+03  0.00000000000E+00 0. -1.
         21   -1    0    0  502  503 -0.00000000000E+00 -0.00000000000E+00 -0.41208310507E+03  0.41208310507E+03  0.00000000000E+00 0. -1.
         -6    2    1    2    0  503 -0.71423390237E+02  0.73261503031E+02 -0.25695624657E+03  0.32545038940E+03  0.17153103163E+03 0.  0.
        -24    2    3    3    0    0  0.28206980554E+02  0.33097843096E+02 -0.14310601997E+03  0.16885123723E+03  0.78360107160E+02 0.  0.
          6    2    1    2  501    0  0.71423390237E+02 -0.73261503031E+02 -0.37983319007E+02  0.20377625515E+03  0.17208567965E+03 0.  0.
         24    2    5    5    0    0 -0.23682068979E+02 -0.11218709423E+02 -0.27032991698E+02  0.89599391123E+02  0.81305402140E+02 0.  0.
          5    1    5    5  501    0  0.95105459217E+02 -0.62042793608E+02 -0.10950327309E+02  0.11417686403E+03  0.47000000000E+01 0. -1.
        -11    1    6    6    0    0 -0.12252756966E+02  0.33965269627E+01  0.28414780715E+02  0.31129828329E+02  0.00000000000E+00 0.  1.
         12    1    6    6    0    0 -0.11429312013E+02 -0.14615236386E+02 -0.55447772414E+02  0.58469562794E+02  0.00000000000E+00 0. -1.
         -5    1    3    3    0  503 -0.99630370791E+02  0.40163659935E+02 -0.11385022660E+03  0.15659915217E+03  0.47000000000E+01 0.  1.
         11    1    4    4    0    0 -0.83493708898E+01  0.36096852217E+02 -0.11978972675E+03  0.12538848978E+03  0.00000000000E+00 0. -1.
        -12    1    4    4    0    0  0.36556351444E+02 -0.29990091208E+01 -0.23316293214E+02  0.43462747449E+02  0.00000000000E+00 0.  1.
</event>
<event>
12    1  0.1598254E-001  0.3286259E+03  0.7818608E-02  0.1071780E+00
         21   -1    0    0  501  502  0.00000000000E+00  0.00000000000E+00  0.13360871692E+04  0.13360871692E+04  0.00000000000E+00 0.  1.
         21   -1    0    0  502  503 -0.00000000000E+00 -0.00000000000E+00 -0.22927460342E+03  0.22927460342E+03  0.00000000000E+00 0.  1.
         -6    2    1    2    0  503  0.10693159725E+03  0.25822574406E+03 -0.76619288703E+02  0.33714928105E+03  0.17229109357E+03 0.  0.
        -24    2    3    3    0    0  0.47413170669E+02  0.54687707763E+02  0.16687029542E+02  0.10542027046E+03  0.74807902902E+02 0.  0.
          6    2    1    2  501    0 -0.10693159725E+03 -0.25822574406E+03  0.11834318545E+04  0.12282124916E+04  0.17285852266E+03 0.  0.
         24    2    5    5    0    0 -0.10404706864E+03 -0.15877269754E+03  0.97957231608E+03  0.10013203798E+04  0.83940566333E+02 0.  0.
          5    1    5    5  501    0 -0.28845286097E+01 -0.99453046517E+02  0.20385953841E+03  0.22689211173E+03  0.47000000000E+01 0. -1.
        -13    1    6    6    0    0 -0.26559417178E+02 -0.80036675510E+02  0.60334883877E+03  0.60921350388E+03  0.00000000000E+00 0.  1.
         14    1    6    6    0    0 -0.77487651463E+02 -0.78736022031E+02  0.37622347732E+03  0.39210687596E+03  0.00000000000E+00 0. -1.
         -5    1    3    3    0  503  0.59518426582E+02  0.20353803629E+03 -0.93306318245E+02  0.23172901058E+03  0.47000000000E+01 0.  1.
         13    1    4    4    0    0  0.18860904827E+02  0.63657962948E+02  0.29764228015E+02  0.72759736441E+02  0.00000000000E+00 0. -1.
        -14    1    4    4    0    0  0.28552265842E+02 -0.89702551852E+01 -0.13077198472E+02  0.32660534024E+02  0.00000000000E+00 0.  1.
</event>
<event>
12    1  0.1598254E-001  0.1784009E+03  0.7818608E-02  0.1169563E+00
         21   -1    0    0  501  502  0.00000000000E+00  0.00000000000E+00  0.11525745948E+04  0.11525745948E+04  0.00000000000E+00 0.  1.
         21   -1    0    0  502  503 -0.00000000000E+00 -0.00000000000E+00 -0.35086183528E+02  0.35086183528E+02  0.00000000000E+00 0.  1.
         -6    2    1    2    0  503 -0.20280144092E+01  0.46763842653E+02  0.28134747077E+03  0.33269963258E+03  0.17129412247E+03 0.  0.
        -24    2    3    3    0    0 -0.46521756665E+02  0.71682261700E+02  0.20017274447E+03  0.23672022387E+03  0.93084457748E+02 0.  0.
          6    2    1    2  501    0  0.20280144092E+01 -0.46763842653E+02  0.83614094045E+03  0.85496114570E+03  0.17215085978E+03 0.  0.
         24    2    5    5    0    0  0.31717993498E+02 -0.57425240234E+02  0.80359972300E+03  0.80939601549E+03  0.71033131493E+02 0.  0.
          5    1    5    5  501    0 -0.29689979089E+02  0.10661397581E+02  0.32541217459E+02  0.45565130203E+02  0.47000000000E+01 0. -1.
        -13    1    6    6    0    0  0.16992576114E+02  0.80184035152E+01  0.62411330773E+02  0.65178344923E+02  0.00000000000E+00 0.  1.
         14    1    6    6    0    0  0.14725417384E+02 -0.65443643749E+02  0.74118839222E+03  0.74421767057E+03  0.00000000000E+00 0. -1.
         -5    1    3    3    0  503  0.44493742255E+02 -0.24918419047E+02  0.81174726297E+02  0.95979408714E+02  0.47000000000E+01 0.  1.
         11    1    4    4    0    0  0.16681832354E+02  0.50246318044E+02  0.12748033612E+03  0.13803699542E+03  0.00000000000E+00 0. -1.
        -12    1    4    4    0    0 -0.63203589019E+02  0.21435943656E+02  0.72692408357E+02  0.98683228454E+02  0.00000000000E+00 0.  1.
</event>
<event>
12    1  0.1598254E-001  0.1868122E+03  0.7818608E-02  0.1161494E+00
         21   -1    0    0  501  502  0.00000000000E+00  0.00000000000E+00  0.31188399359E+02  0.31188399359E+02  0.00000000000E+00 0.  1.
         21   -1    0    0  502  503 -0.00000000000E+00 -0.00000000000E+00 -0.15406430146E+04  0.15406430146E+04  0.00000000000E+00 0.  1.
         -6    2    1    2    0  503 -0.72051447242E+02  0.65532527036E+01 -0.11682762755E+04  0.11831180162E+04  0.17223364408E+03 0.  0.
        -24    2    3    3    0    0 -0.77641455742E+02 -0.11143144343E+02 -0.39931115920E+03  0.41391462907E+03  0.75654166970E+02 0.  0.
          6    2    1    2  501    0  0.72051447242E+02 -0.65532527036E+01 -0.34117833972E+03  0.38871339776E+03  0.17164233140E+03 0.  0.
         24    2    5    5    0    0  0.61486889167E+02 -0.14202011941E+02 -0.85389254850E+02  0.13254888159E+03  0.79344479854E+02 0.  0.
          5    1    5    5  501    0  0.10564558075E+02  0.76487592371E+01 -0.25578908487E+03  0.25616451617E+03  0.47000000000E+01 0. -1.
        -13    1    6    6    0    0  0.39943133187E+02 -0.45525120013E+02 -0.36848941828E+02  0.70893123466E+02  0.00000000000E+00 0.  1.
         14    1    6    6    0    0  0.21543755980E+02  0.31323108072E+02 -0.48540313023E+02  0.61655758120E+02  0.00000000000E+00 0. -1.
         -5    1    3    3    0  503  0.55900085003E+01  0.17696397046E+02 -0.76896511631E+03  0.76920338713E+03  0.47000000000E+01 0.  1.
         13    1    4    4    0    0 -0.15406315089E+02 -0.37913616967E+02 -0.13568003163E+03  0.14171756376E+03  0.00000000000E+00 0. -1.
        -14    1    4    4    0    0 -0.62235140653E+02  0.26770472624E+02 -0.26363112757E+03  0.27219706531E+03  0.00000000000E+00 0.  1.
</event>
<event>
12    1  0.1598254E-001  0.1904481E+03  0.7818608E-02  0.1159597E+00
         21   -1    0    0  503  502  0.00000000000E+00  0.00000000000E+00  0.88199764318E+02  0.88199764318E+02  0.00000000000E+00 0. -1.
         21   -1    0    0  501  503 -0.00000000000E+00 -0.00000000000E+00 -0.11650585832E+04  0.11650585832E+04  0.00000000000E+00 0. -1.
          6    2    1    2  501    0 -0.62581944276E+02  0.21503647016E+01 -0.10439416945E+04  0.10599865169E+04  0.17273109349E+03 0.  0.
         24    2    3    3    0    0 -0.64585385611E+02 -0.59415229892E+02 -0.77079577524E+03  0.77994166437E+03  0.80507335795E+02 0.  0.
         -6    2    1    2    0  502  0.62581944276E+02 -0.21503647016E+01 -0.32917124368E+02  0.19327183061E+03  0.17985922165E+03 0.  0.
        -24    2    5    5    0    0  0.98743517093E+02 -0.16496493389E+02  0.18208586027E+02  0.12885600165E+03  0.79056309647E+02 0.  0.
          5    1    3    3  501    0  0.20034413355E+01  0.61565594594E+02 -0.27314591925E+03  0.28004485251E+03  0.47000000000E+01 0. -1.
        -11    1    4    4    0    0  0.18056261630E+02 -0.21598735886E+02 -0.19272810934E+03  0.19477335060E+03  0.00000000000E+00 0.  1.
         12    1    4    4    0    0 -0.82641647241E+02 -0.37816494006E+02 -0.57806766590E+03  0.58516831377E+03  0.00000000000E+00 0. -1.
         -5    1    5    5    0  502 -0.36161572817E+02  0.14346128687E+02 -0.51125710394E+02  0.64415828957E+02  0.47000000000E+01 0.  1.
         13    1    6    6    0    0  0.32145780198E+02 -0.25476026352E+02  0.40903839339E+02  0.57926705205E+02  0.00000000000E+00 0. -1.
        -14    1    6    6    0    0  0.66597736895E+02  0.89795329638E+01 -0.22695253312E+02  0.70929296449E+02  0.00000000000E+00 0.  1.
</event>
<event>
12    1  0.1598254E-001  0.1829228E+03  0.7818608E-02  0.1165118E+00
         21   -1    0    0  501  502  0.00000000000E+00  0.00000000000E+00  0.50705686607E+03  0.50705686607E+03  0.00000000000E+00 0. -1.
         21   -1    0    0  502  503 -0.00000000000E+00 -0.00000000000E+00 -0.84997381939E+02  0.84997381939E+02  0.00000000000E+00 0.  1.
         -6    2    1    2    0  503  0.61486642685E+02  0.24405938493E+01  0.70190184833E+02  0.19547793906E+03  0.17175097928E+03 0.  0.
        -24    2    3    3    0    0  0.22604583966E+02 -0.64129142660E+02  0.45546149089E+02  0.11440536165E+03  0.79941359283E+02 0.  0.
          6    2    1    2  501    0 -0.61486642685E+02 -0.24405938493E+01  0.35186929930E+03  0.39657630895E+03  0.17226201353E+03 0.  0.
         24    2    5    5    0    0 -0.85745243999E+02  0.74839081258E+01  0.13479419194E+03  0.17787407369E+03  0.77855354078E+02 0.  0.
          5    1    5    5  501    0  0.24258601314E+02 -0.99245019751E+01  0.21707510735E+03  0.21870223526E+03  0.47000000000E+01 0. -1.
        -11    1    6    6    0    0  0.71925633040E+01  0.63461161264E+01 -0.43582647592E+01  0.10535683579E+02  0.00000000000E+00 0.  1.
         12    1    6    6    0    0 -0.92937807303E+02  0.11377919994E+01  0.13915245670E+03  0.16733839011E+03  0.00000000000E+00 0. -1.
         -5    1    3    3    0  503  0.38882058719E+02  0.66569736509E+02  0.24644035745E+02  0.81072577404E+02  0.47000000000E+01 0.  1.
         13    1    4    4    0    0 -0.56264554559E+01 -0.26030641569E+02  0.59322700931E+02  0.65026411151E+02  0.00000000000E+00 0. -1.
        -14    1    4    4    0    0  0.28231039422E+02 -0.38098501091E+02 -0.13776551842E+02  0.49378950503E+02  0.00000000000E+00 0.  1.
</event>
<event>
12    1  0.1598254E-001  0.1742842E+03  0.7818608E-02  0.1173613E+00
         21   -1    0    0  503  502  0.00000000000E+00  0.00000000000E+00  0.13731611250E+04  0.13731611250E+04  0.00000000000E+00 0.  1.
         21   -1    0    0  501  503 -0.00000000000E+00 -0.00000000000E+00 -0.10396233207E+03  0.10396233207E+03  0.00000000000E+00 0.  1.
          6    2    1    2  501    0  0.14419484134E+02  0.23070972859E+02 -0.20771441410E+02  0.17551759301E+03  0.17214755696E+03 0.  0.
         24    2    3    3    0    0 -0.14751579599E+01 -0.19003927112E+02 -0.70592953117E+02  0.10823304885E+03  0.79797885290E+02 0.  0.
         -6    2    1    2    0  502 -0.14419484134E+02 -0.23070972859E+02  0.12899702343E+04  0.13016058640E+04  0.17150635137E+03 0.  0.
        -24    2    5    5    0    0 -0.46141158375E+02  0.76139001922E+01  0.39413462625E+03  0.40467144462E+03  0.78929693466E+02 0.  0.
          5    1    3    3  501    0  0.15894642094E+02  0.42074899971E+02  0.49821511706E+02  0.67284544166E+02  0.47000000000E+01 0. -1.
        -11    1    4    4    0    0 -0.21894107248E+02 -0.44085767992E+02 -0.36811873436E+02  0.61465607436E+02  0.00000000000E+00 0.  1.
         12    1    4    4    0    0  0.20418949288E+02  0.25081840880E+02 -0.33781079681E+02  0.46767441413E+02  0.00000000000E+00 0. -1.
         -5    1    5    5    0  502  0.31721674242E+02 -0.30684873051E+02  0.89583560804E+03  0.89693441939E+03  0.47000000000E+01 0.  1.
         13    1    6    6    0    0 -0.54623521358E+02  0.37901281102E+01  0.39105633610E+03  0.39487105764E+03  0.00000000000E+00 0. -1.
        -14    1    6    6    0    0  0.84823629831E+01  0.38237720820E+01  0.30782901456E+01  0.98003869787E+01  0.00000000000E+00 0.  1.
</event>
<event>
12    1  0.1598254E-001  0.2363227E+03  0.7818608E-02  0.1122518E+00
         21   -1    0    0  501  502  0.00000000000E+00  0.00000000000E+00  0.47125419562E+03  0.47125419562E+03  0.00000000000E+00 0.  1.
         21   -1    0    0  502  503 -0.00000000000E+00 -0.00000000000E+00 -0.11869768853E+03  0.11869768853E+03  0.00000000000E+00 0. -1.
         -6    2    1    2    0  503 -0.95656307516E+02  0.12995367075E+03  0.15079177602E+03  0.28033297334E+03  0.17265668396E+03 0.  0.
        -24    2    3    3    0    0  0.19199020029E+02  0.60233539695E+02  0.62811890777E+02  0.11966190205E+03  0.79855842027E+02 0.  0.
          6    2    1    2  501    0  0.95656307516E+02 -0.12995367075E+03  0.20176473106E+03  0.30961891081E+03  0.17063638979E+03 0.  0.
         24    2    5    5    0    0  0.11362532863E+03 -0.13431031117E+03  0.21274855942E+03  0.28760526684E+03  0.80652743204E+02 0.  0.
          5    1    5    5  501    0 -0.17969021114E+02  0.43566404207E+01 -0.10983828354E+02  0.22013643970E+02  0.47000000000E+01 0. -1.
        -11    1    6    6    0    0  0.57563810825E+02 -0.11809620403E+02  0.61617448343E+02  0.85145577636E+02  0.00000000000E+00 0.  1.
         12    1    6    6    0    0  0.56061517805E+02 -0.12250069077E+03  0.15113111107E+03  0.20245968920E+03  0.00000000000E+00 0. -1.
         -5    1    3    3    0  503 -0.11485532754E+03  0.69720131058E+02  0.87979885246E+02  0.16067107129E+03  0.47000000000E+01 0.  1.
         13    1    4    4    0    0  0.31085227316E+02  0.11135251335E+02 -0.67400065986E+01  0.33700339293E+02  0.00000000000E+00 0. -1.
        -14    1    4    4    0    0 -0.11886207287E+02  0.49098288360E+02  0.69551897376E+02  0.85961562760E+02  0.00000000000E+00 0.  1.
</event>
<event>
12    1  0.1598254E-001  0.2064856E+03  0.7818608E-02  0.1144381E+00
         21   -1    0    0  503  502  0.00000000000E+00  0.00000000000E+00  0.77859358462E+03  0.77859358462E+03  0.00000000000E+00 0.  1.
         21   -1    0    0  501  503 -0.00000000000E+00 -0.00000000000E+00 -0.58986044852E+02  0.58986044852E+02  0.00000000000E+00 0. -1.
          6    2    1    2  501    0  0.66516706928E+02  0.93235458545E+02  0.24769907534E+03  0.32247659219E+03  0.17181093549E+03 0.  0.
         24    2    3    3    0    0  0.85835131757E+02  0.76540668207E+01  0.13262351660E+03  0.17769451331E+03  0.80994372152E+02 0.  0.
         -6    2    1    2    0  502 -0.66516706928E+02 -0.93235458545E+02  0.47190846443E+03  0.51510303729E+03  0.17180284395E+03 0.  0.
        -24    2    5    5    0    0  0.17815826098E+02 -0.85101430874E+01  0.14354569793E+03  0.16562549633E+03  0.80228495225E+02 0.  0.
          5    1    3    3  501    0 -0.19318424828E+02  0.85581391725E+02  0.11507555873E+03  0.14478207888E+03  0.47000000000E+01 0. -1.
        -11    1    4    4    0    0  0.46930843812E+02 -0.34642866139E+02  0.48745736826E+02  0.76018281577E+02  0.00000000000E+00 0.  1.
         12    1    4    4    0    0  0.38904287945E+02  0.42296932960E+02  0.83877779776E+02  0.10167623173E+03  0.00000000000E+00 0. -1.
         -5    1    5    5    0  502 -0.84332533026E+02 -0.84725315458E+02  0.32836276651E+03  0.34947754096E+03  0.47000000000E+01 0.  1.
         11    1    6    6    0    0  0.45410764090E+01  0.15510375133E+02  0.13628068039E+03  0.13723562569E+03  0.00000000000E+00 0. -1.
        -12    1    6    6    0    0  0.13274749689E+02 -0.24020518220E+02  0.72650175352E+01  0.28389870635E+02  0.00000000000E+00 0.  1.
</event>
<event>
12    1  0.1598254E-001  0.1961378E+03  0.7818608E-02  0.1153344E+00
         21   -1    0    0  503  502  0.00000000000E+00  0.00000000000E+00  0.14748675921E+04  0.14748675921E+04  0.00000000000E+00 0.  1.
         21   -1    0    0  501  503 -0.00000000000E+00 -0.00000000000E+00 -0.26290636386E+02  0.26290636386E+02  0.00000000000E+00 0.  1.
          6    2    1    2  501    0  0.14152119034E+01  0.90001527332E+02  0.63502316958E+03  0.66462356016E+03  0.17426351619E+03 0.  0.
         24    2    3    3    0    0 -0.56887038962E+02  0.50547359105E+02  0.50395956733E+03  0.51577618303E+03  0.79111660060E+02 0.  0.
         -6    2    1    2    0  502 -0.14152119034E+01 -0.90001527332E+02  0.81355378610E+03  0.83653466829E+03  0.17267950261E+03 0.  0.
        -24    2    5    5    0    0  0.60819295280E+02 -0.73755132822E+02  0.62666852723E+03  0.63883472088E+03  0.79104685671E+02 0.  0.
          5    1    3    3  501    0  0.58302250866E+02  0.39454168227E+02  0.13106360225E+03  0.14884737714E+03  0.47000000000E+01 0. -1.
        -11    1    4    4    0    0  0.16383276162E+02  0.27678142238E+02  0.17971165065E+03  0.18256716209E+03  0.00000000000E+00 0.  1.
         12    1    4    4    0    0 -0.73270315124E+02  0.22869216867E+02  0.32424791668E+03  0.33320902094E+03  0.00000000000E+00 0. -1.
         -5    1    5    5    0  502 -0.62234507184E+02 -0.16246394511E+02  0.18688525887E+03  0.19769994740E+03  0.47000000000E+01 0.  1.
         13    1    6    6    0    0  0.16874504145E+02 -0.13371888700E+02  0.39152950465E+03  0.39212103911E+03  0.00000000000E+00 0. -1.
        -14    1    6    6    0    0  0.43944791135E+02 -0.60383244122E+02  0.23513902257E+03  0.24671368178E+03  0.00000000000E+00 0.  1.
</event>
<event>
12    1  0.1598254E-001  0.2113952E+03  0.7818608E-02  0.1140509E+00
         21   -1    0    0  501  502  0.00000000000E+00  0.00000000000E+00  0.10407333361E+04  0.10407333361E+04  0.00000000000E+00 0. -1.
         21   -1    0    0  502  503 -0.00000000000E+00 -0.00000000000E+00 -0.64960957275E+02  0.64960957275E+02  0.00000000000E+00 0. -1.
         -6    2    1    2    0  503 -0.11838065840E+03  0.25702202943E+02  0.16583852967E+03  0.26868261099E+03  0.17324359729E+03 0.  0.
        -24    2    3    3    0    0  0.46748289493E+00  0.28113929365E+02  0.38267482513E+02  0.94248786321E+02  0.81411436177E+02 0.  0.
          6    2    1    2  501    0  0.11838065840E+03 -0.25702202943E+02  0.80993384920E+03  0.83701168244E+03  0.17297726133E+03 0.  0.
         24    2    5    5    0    0  0.13237316710E+03 -0.67172583601E+01  0.43318789155E+03  0.45949900049E+03  0.76940269963E+02 0.  0.
          5    1    5    5  501    0 -0.13992508701E+02 -0.18984944583E+02  0.37674595766E+03  0.37751268195E+03  0.47000000000E+01 0. -1.
        -11    1    6    6    0    0  0.18952121287E+02 -0.30961962902E+02  0.82634640059E+02  0.90256909905E+02  0.00000000000E+00 0.  1.
         12    1    6    6    0    0  0.11342104582E+03  0.24244704542E+02  0.35055325149E+03  0.36924209059E+03  0.00000000000E+00 0. -1.
         -5    1    3    3    0  503 -0.11884814130E+03 -0.24117264219E+01  0.12757104716E+03  0.17443382466E+03  0.47000000000E+01 0.  1.
         11    1    4    4    0    0  0.97947865492E+01 -0.25784039514E+01 -0.22977891311E+02  0.25111142936E+02  0.00000000000E+00 0. -1.
        -12    1    4    4    0    0 -0.93273036543E+01  0.30692333316E+02  0.61245373824E+02  0.69137643384E+02  0.00000000000E+00 0.  1.
</event>
<event>
12    1  0.1598254E-001  0.3369681E+03  0.7818608E-02  0.1068146E+00
         21   -1    0    0  503  502  0.00000000000E+00  0.00000000000E+00  0.13457734739E+03  0.13457734739E+03  0.00000000000E+00 0. -1.
         21   -1    0    0  501  503 -0.00000000000E+00 -0.00000000000E+00 -0.14939851512E+04  0.14939851512E+04  0.00000000000E+00 0.  1.
          6    2    1    2  501    0 -0.27867175043E+03  0.78582348196E+02 -0.14227751493E+03  0.36577370940E+03  0.17237861033E+03 0.  0.
         24    2    3    3    0    0 -0.78301433027E+02  0.60272842329E+02 -0.95269195710E+02  0.15909672912E+03  0.80446377356E+02 0.  0.
         -6    2    1    2    0  502  0.27867175043E+03 -0.78582348196E+02 -0.12171302888E+04  0.12627887892E+04  0.17145336409E+03 0.  0.
        -24    2    5    5    0    0  0.14686104716E+03 -0.11025913288E+03 -0.76034864056E+03  0.78629215287E+03  0.80000318145E+02 0.  0.
          5    1    3    3  501    0 -0.20037031740E+03  0.18309505867E+02 -0.47008319219E+02  0.20667698028E+03  0.47000000000E+01 0. -1.
        -13    1    4    4    0    0 -0.49779499602E+02 -0.88329205602E+01 -0.52861109498E+02  0.73145854042E+02  0.00000000000E+00 0.  1.
         14    1    4    4    0    0 -0.28521933425E+02  0.69105762889E+02 -0.42408086212E+02  0.85950875080E+02  0.00000000000E+00 0. -1.
         -5    1    5    5    0  502  0.13181070327E+03  0.31676784686E+02 -0.45678164828E+03  0.47649663628E+03  0.47000000000E+01 0.  1.
         13    1    6    6    0    0  0.49436482559E+02 -0.34761530629E+01 -0.29097198457E+03  0.29516223548E+03  0.00000000000E+00 0. -1.
        -14    1    6    6    0    0  0.97424564605E+02 -0.10678297982E+03 -0.46937665599E+03  0.49112991739E+03  0.00000000000E+00 0.  1.
</event>
<event>
12    1  0.1598254E-001  0.1848411E+03  0.7818608E-02  0.1163447E+00
         21   -1    0    0  503  502  0.00000000000E+00  0.00000000000E+00  0.87185868592E+02  0.87185868592E+02  0.00000000000E+00 0.  1.
         21   -1    0    0  501  503 -0.00000000000E+00 -0.00000000000E+00 -0.39005786657E+03  0.39005786657E+03  0.00000000000E+00 0.  1.
          6    2    1    2  501    0 -0.50702659179E+02  0.42199415708E+02 -0.15884215161E+03  0.24291310113E+03  0.17153540520E+03 0.  0.
         24    2    3    3    0    0 -0.10044613744E+03  0.42643760372E+02 -0.12145919500E+03  0.18050968362E+03  0.76964231997E+02 0.  0.
         -6    2    1    2    0  502  0.50702659179E+02 -0.42199415708E+02 -0.14402984637E+03  0.23433063403E+03  0.17266933447E+03 0.  0.
        -24    2    5    5    0    0 -0.13872391309E+02  0.25962565253E+02 -0.97764643893E+02  0.12955204961E+03  0.79745281536E+02 0.  0.
          5    1    3    3  501    0  0.49743478259E+02 -0.44434466383E+00 -0.37382956610E+02  0.62403417505E+02  0.47000000000E+01 0. -1.
        -11    1    4    4    0    0 -0.68720376800E+02  0.49223608337E+02 -0.12161679407E+03  0.14810840086E+03  0.00000000000E+00 0.  1.
         12    1    4    4    0    0 -0.31725760637E+02 -0.65798479651E+01  0.15759907002E+00  0.32401282764E+02  0.00000000000E+00 0. -1.
         -5    1    5    5    0  502  0.64575050487E+02 -0.68161980961E+02 -0.46265202476E+02  0.10477858443E+03  0.47000000000E+01 0.  1.
         11    1    6    6    0    0  0.29203474147E+02  0.43044193724E+01 -0.13479254879E+02  0.32450905079E+02  0.00000000000E+00 0. -1.
        -12    1    6    6    0    0 -0.43075865455E+02  0.21658145881E+02 -0.84285389014E+02  0.97101144530E+02  0.00000000000E+00 0.  1.
</event>
<event>
12    1  0.1598254E-001  0.1981231E+03  0.7818608E-02  0.1151371E+00
         21   -1    0    0  501  502  0.00000000000E+00  0.00000000000E+00  0.70448154507E+03  0.70448154507E+03  0.00000000000E+00 0.  1.
         21   -1    0    0  502  503 -0.00000000000E+00 -0.00000000000E+00 -0.13242727773E+03  0.13242727773E+03  0.00000000000E+00 0.  1.
         -6    2    1    2    0  503 -0.89113235167E+02  0.34807146525E+02 -0.32502992877E+02  0.20077156290E+03  0.17349371687E+03 0.  0.
        -24    2    3    3    0    0  0.19064902759E+02 -0.31570435807E+01 -0.92901669525E+01  0.83704425996E+02  0.80911595510E+02 0.  0.
          6    2    1    2  501    0  0.89113235167E+02 -0.34807146525E+02  0.60455726021E+03  0.63613725989E+03  0.17328712133E+03 0.  0.
         24    2    5    5    0    0  0.66865058577E+02 -0.78492110046E+02  0.53594532480E+03  0.55167990331E+03  0.80507000615E+02 0.  0.
          5    1    5    5  501    0  0.22248176590E+02  0.43684963520E+02  0.68611935414E+02  0.84457356581E+02  0.47000000000E+01 0. -1.
        -13    1    6    6    0    0  0.83891740548E+02 -0.62774911904E+02  0.38658210992E+03  0.40052995070E+03  0.00000000000E+00 0.  1.
         14    1    6    6    0    0 -0.17026681971E+02 -0.15717198142E+02  0.14936321488E+03  0.15114995261E+03  0.00000000000E+00 0. -1.
         -5    1    3    3    0  503 -0.10817813793E+03  0.37964190106E+02 -0.23212825925E+02  0.11706713690E+03  0.47000000000E+01 0.  1.
         13    1    4    4    0    0  0.31788997184E+02 -0.10674141596E+02 -0.38446924918E+02  0.51016111929E+02  0.00000000000E+00 0. -1.
        -14    1    4    4    0    0 -0.12724094425E+02  0.75170980151E+01  0.29156757965E+02  0.32688314067E+02  0.00000000000E+00 0.  1.
</event>
<event>
12    1  0.1598254E-001  0.2315657E+03  0.7818608E-02  0.1125750E+00
         21   -1    0    0  501  502  0.00000000000E+00  0.00000000000E+00  0.62395835568E+03  0.62395835568E+03  0.00000000000E+00 0. -1.
         21   -1    0    0  502  503 -0.00000000000E+00 -0.00000000000E+00 -0.27713185638E+03  0.27713185638E+03  0.00000000000E+00 0. -1.
         -6    2    1    2    0  503 -0.36409752330E+01  0.15378248359E+03 -0.20137732739E+03  0.30598508522E+03  0.17149849979E+03 0.  0.
        -24    2    3    3    0    0  0.54113628778E+02  0.53752278957E+02 -0.78811584903E+02  0.13750337299E+03  0.82935633818E+02 0.  0.
          6    2    1    2  501    0  0.36409752330E+01 -0.15378248359E+03  0.54820382668E+03  0.59510512684E+03  0.17309063361E+03 0.  0.
         24    2    5    5    0    0  0.39396419130E+02 -0.20628145310E+02  0.17466614636E+03  0.19690791667E+03  0.79289764420E+02 0.  0.
          5    1    5    5  501    0 -0.35755443897E+02 -0.13315433828E+03  0.37353768032E+03  0.39819721018E+03  0.47000000000E+01 0. -1.
        -13    1    6    6    0    0 -0.97167398289E+01  0.22736967734E+02  0.37811755651E+02  0.45178685240E+02  0.00000000000E+00 0.  1.
         14    1    6    6    0    0  0.49113158959E+02 -0.43365113044E+02  0.13685439071E+03  0.15172923143E+03  0.00000000000E+00 0. -1.
         -5    1    3    3    0  503 -0.57754604011E+02  0.10003020463E+03 -0.12256574249E+03  0.16848171222E+03  0.47000000000E+01 0.  1.
         11    1    4    4    0    0  0.49948861216E+01  0.55242518036E+02 -0.66965500782E+02  0.86954372986E+02  0.00000000000E+00 0. -1.
        -12    1    4    4    0    0  0.49118742657E+02 -0.14902390794E+01 -0.11846084121E+02  0.50549000007E+02  0.00000000000E+00 0.  1.
</event>
<event>
12    1  0.1598254E-001  0.2234048E+03  0.7818608E-02  0.1131524E+00
         21   -1    0    0  501  502  0.00000000000E+00  0.00000000000E+00  0.15328184673E+03  0.15328184673E+03  0.00000000000E+00 0.  1.
         21   -1    0    0  502  503 -0.00000000000E+00 -0.00000000000E+00 -0.32651065867E+03  0.32651065867E+03  0.00000000000E+00 0.  1.
         -6    2    1    2    0  503 -0.82985673326E+02 -0.11621391311E+03 -0.10616760349E+03  0.24734845789E+03  0.17180629794E+03 0.  0.
        -24    2    3    3    0    0 -0.72559819159E+02 -0.92125112257E+02 -0.14874442245E+03  0.19711058100E+03  0.54550107854E+02 0.  0.
          6    2    1    2  501    0  0.82985673326E+02  0.11621391311E+03 -0.67061208461E+02  0.23244404751E+03  0.17070657270E+03 0.  0.
         24    2    5    5    0    0  0.75771590782E+02  0.50264265742E+02 -0.10144223937E+03  0.15757386478E+03  0.79190684757E+02 0.  0.
          5    1    5    5  501    0  0.72140825438E+01  0.65949647371E+02  0.34381030914E+02  0.74870182730E+02  0.47000000000E+01 0. -1.
        -13    1    6    6    0    0  0.36277766353E+02  0.67797685893E+02 -0.58137120619E+02  0.96397755876E+02  0.00000000000E+00 0.  1.
         14    1    6    6    0    0  0.39493824429E+02 -0.17533420151E+02 -0.43305118755E+02  0.61176108904E+02  0.00000000000E+00 0. -1.
         -5    1    3    3    0  503 -0.10425854167E+02 -0.24088800856E+02  0.42576818962E+02  0.50237876893E+02  0.47000000000E+01 0.  1.
         11    1    4    4    0    0 -0.76004505985E+01 -0.41985405653E+02 -0.77363596471E+02  0.88349687018E+02  0.00000000000E+00 0. -1.
        -12    1    4    4    0    0 -0.64959368560E+02 -0.50139706604E+02 -0.71380825978E+02  0.10876089398E+03  0.00000000000E+00 0.  1.
</event>
<event>
12    1  0.1598254E-001  0.1925287E+03  0.7818608E-02  0.1156497E+00
         21   -1    0    0  503  502  0.00000000000E+00  0.00000000000E+00  0.11660985742E+04  0.11660985742E+04  0.00000000000E+00 0. -1.
         21   -1    0    0  501  503 -0.00000000000E+00 -0.00000000000E+00 -0.36154184046E+02  0.36154184046E+02  0.00000000000E+00 0. -1.
          6    2    1    2  501    0 -0.84363331230E+02  0.15603706852E+02  0.34914947165E+03  0.39807117929E+03  0.17086445769E+03 0.  0.
         24    2    3    3    0    0 -0.11210964781E+02  0.38668445980E+02  0.28494733186E+03  0.29793499371E+03  0.77131991400E+02 0.  0.
         -6    2    1    2    0  502  0.84363331230E+02 -0.15603706852E+02  0.78079491854E+03  0.80418157900E+03  0.17235620052E+03 0.  0.
        -24    2    5    5    0    0  0.60778352375E+01 -0.35777145623E+02  0.59375057317E+03  0.60035993233E+03  0.81088599567E+02 0.  0.
          5    1    3    3  501    0 -0.73152366449E+02 -0.23064739128E+02  0.64202139795E+02  0.10013618558E+03  0.47000000000E+01 0. -1.
        -11    1    4    4    0    0  0.19882792101E+02 -0.21819212930E+01  0.20845789248E+02  0.28890017855E+02  0.00000000000E+00 0.  1.
         12    1    4    4    0    0 -0.31093756882E+02  0.40850367273E+02  0.26410154261E+03  0.26904497585E+03  0.00000000000E+00 0. -1.
         -5    1    5    5    0  502  0.78285495992E+02  0.20173438772E+02  0.18704434538E+03  0.20382164667E+03  0.47000000000E+01 0.  1.
         13    1    6    6    0    0  0.37460789398E+02  0.11488454700E+01  0.18588912775E+03  0.18962963483E+03  0.00000000000E+00 0. -1.
        -14    1    6    6    0    0 -0.31382954160E+02 -0.36925991093E+02  0.40786144541E+03  0.41073029750E+03  0.00000000000E+00 0.  1.
</event>
<event>
12    1  0.1598254E-001  0.3078913E+03  0.7818608E-02  0.1081418E+00
         21   -1    0    0  503  502  0.00000000000E+00  0.00000000000E+00  0.97745520961E+03  0.97745520961E+03  0.00000000000E+00 0.  1.
         21   -1    0    0  501  503 -0.00000000000E+00 -0.00000000000E+00 -0.19289291660E+03  0.19289291660E+03  0.00000000000E+00 0. -1.
          6    2    1    2  501    0 -0.22946144926E+03 -0.11117525997E+03 -0.20814533200E+02  0.30812491828E+03  0.17174174026E+03 0.  0.
         24    2    3    3    0    0 -0.10482051540E+03 -0.12485893037E+03 -0.63529246806E+01  0.18181643342E+03  0.80248133095E+02 0.  0.
         -6    2    1    2    0  502  0.22946144926E+03  0.11117525997E+03  0.80537682621E+03  0.86222320793E+03  0.17258196013E+03 0.  0.
        -24    2    5    5    0    0  0.53054902645E+02  0.44586607625E+02  0.41831546796E+03  0.43165160719E+03  0.80823826812E+02 0.  0.
          5    1    3    3  501    0 -0.12464093386E+03  0.13683670398E+02 -0.14461608519E+02  0.12630848487E+03  0.47000000000E+01 0. -1.
        -11    1    4    4    0    0 -0.10023319407E+03 -0.87782626475E+02  0.21835699439E+02  0.13501585268E+03  0.00000000000E+00 0.  1.
         12    1    4    4    0    0 -0.45873213315E+01 -0.37076303895E+02 -0.28188624119E+02  0.46800580736E+02  0.00000000000E+00 0. -1.
         -5    1    5    5    0  502  0.17640654661E+03  0.66588652347E+02  0.38706135825E+03  0.43057160073E+03  0.47000000000E+01 0.  1.
         13    1    6    6    0    0 -0.15848519291E+02  0.59256063365E+01  0.23202570126E+02  0.28716678683E+02  0.00000000000E+00 0. -1.
        -14    1    6    6    0    0  0.68903421936E+02  0.38661001288E+02  0.39511289784E+03  0.40293492851E+03  0.00000000000E+00 0.  1.
</event>
<event>
12    1  0.1598254E-001  0.2015198E+03  0.7818608E-02  0.1148526E+00
         21   -1    0    0  503  502  0.00000000000E+00  0.00000000000E+00  0.48499293497E+03  0.48499293497E+03  0.00000000000E+00 0. -1.
         21   -1    0    0  501  503 -0.00000000000E+00 -0.00000000000E+00 -0.84147482957E+02  0.84147482957E+02  0.00000000000E+00 0. -1.
          6    2    1    2  501    0  0.95430256100E+02  0.47541322030E+02  0.17750016607E+03  0.26831930281E+03  0.17065118876E+03 0.  0.
         24    2    3    3    0    0  0.68752085698E+02 -0.21510733007E+02  0.46322949023E+02  0.11762270911E+03  0.80620873038E+02 0.  0.
         -6    2    1    2    0  502 -0.95430256100E+02 -0.47541322030E+02  0.22334528595E+03  0.30082111512E+03  0.17100618547E+03 0.  0.
        -24    2    5    5    0    0 -0.10575891331E+03 -0.64286142859E+02  0.10499004993E+03  0.18074979433E+03  0.79560804783E+02 0.  0.
          5    1    3    3  501    0  0.26678170402E+02  0.69052055038E+02  0.13117721705E+03  0.15069659370E+03  0.47000000000E+01 0. -1.
        -11    1    4    4    0    0  0.83528868783E+02 -0.60821386001E+01  0.24911886796E+02  0.87376578291E+02  0.00000000000E+00 0.  1.
         12    1    4    4    0    0 -0.14776783085E+02 -0.15428594407E+02  0.21411062226E+02  0.30246130817E+02  0.00000000000E+00 0. -1.
         -5    1    5    5    0  502  0.10328657208E+02  0.16744820829E+02  0.11835523602E+03  0.12007132079E+03  0.47000000000E+01 0.  1.
         13    1    6    6    0    0 -0.72869254231E+02 -0.73813963486E+02  0.10341943867E+03  0.14647187345E+03  0.00000000000E+00 0. -1.
        -14    1    6    6    0    0 -0.32889659077E+02  0.95278206268E+01  0.15706112643E+01  0.34277920880E+02  0.00000000000E+00 0.  1.
</event>
<event>
12    1  0.1598254E-001  0.1849153E+03  0.7818608E-02  0.1163246E+00
         21   -1    0    0  503  502  0.00000000000E+00  0.00000000000E+00  0.37354514479E+03  0.37354514479E+03  0.00000000000E+00 0. -1.
         21   -1    0    0  501  503 -0.00000000000E+00 -0.00000000000E+00 -0.22794292877E+03  0.22794292877E+03  0.00000000000E+00 0. -1.
          6    2    1    2  501    0  0.57298994666E+02  0.35912925767E+02 -0.16001781286E+03  0.24453908168E+03  0.17210679535E+03 0.  0.
         24    2    3    3    0    0 -0.19932438961E+02 -0.20222473604E+02 -0.10138455802E+03  0.13239709143E+03  0.80273972453E+02 0.  0.
         -6    2    1    2    0  502 -0.57298994666E+02 -0.35912925767E+02  0.30562002889E+03  0.35694899188E+03  0.17156942537E+03 0.  0.
        -24    2    5    5    0    0 -0.38632161993E+02  0.44244111076E+02  0.14157237516E+03  0.17335344758E+03  0.80985770797E+02 0.  0.
          5    1    3    3  501    0  0.77231433627E+02  0.56135399370E+02 -0.58633254848E+02  0.11214199025E+03  0.47000000000E+01 0. -1.
        -11    1    4    4    0    0  0.22007661385E+02 -0.31706352543E+02 -0.30305492370E+02  0.49071914768E+02  0.00000000000E+00 0.  1.
         12    1    4    4    0    0 -0.41940100346E+02  0.11483878940E+02 -0.71079065647E+02  0.83325176662E+02  0.00000000000E+00 0. -1.
         -5    1    5    5    0  502 -0.18666832673E+02 -0.80157036842E+02  0.16404765372E+03  0.18359554431E+03  0.47000000000E+01 0.  1.
         11    1    6    6    0    0 -0.22943500206E+02  0.20961742578E+01  0.12225531841E+03  0.12440723865E+03  0.00000000000E+00 0. -1.
        -12    1    6    6    0    0 -0.15688661787E+02  0.42147936818E+02  0.19317056751E+02  0.48946208926E+02  0.00000000000E+00 0.  1.
</event>
<event>
12    1  0.1598254E-001  0.2058339E+03  0.7818608E-02  0.1145625E+00
         21   -1    0    0  501  502  0.00000000000E+00  0.00000000000E+00  0.27694228577E+03  0.27694228577E+03  0.00000000000E+00 0.  1.
         21   -1    0    0  502  503 -0.00000000000E+00 -0.00000000000E+00 -0.11560101725E+04  0.11560101725E+04  0.00000000000E+00 0.  1.
         -6    2    1    2    0  503 -0.10266943957E+03 -0.35459350998E+02 -0.11082665215E+04  0.11272188178E+04  0.17484050163E+03 0.  0.
        -24    2    3    3    0    0 -0.88675873672E+02 -0.83034590792E+02 -0.63885836386E+03  0.65517503611E+03  0.79725560657E+02 0.  0.
          6    2    1    2  501    0  0.10266943957E+03  0.35459350998E+02  0.22919863484E+03  0.30573364045E+03  0.17071222950E+03 0.  0.
         24    2    5    5    0    0  0.58932141402E+02  0.86228841357E+02  0.17334747459E+03  0.21837269664E+03  0.82029734376E+02 0.  0.
          5    1    5    5  501    0  0.43737298166E+02 -0.50769490359E+02  0.55851160250E+02  0.87360943810E+02  0.47000000000E+01 0. -1.
        -11    1    6    6    0    0  0.69880544577E+02  0.81647538713E+02  0.10948341494E+03  0.15341521840E+03  0.00000000000E+00 0.  1.
         12    1    6    6    0    0 -0.10948403175E+02  0.45813026443E+01  0.63864059642E+02  0.64957478245E+02  0.00000000000E+00 0. -1.
         -5    1    3    3    0  503 -0.13993565896E+02  0.47575239793E+02 -0.46940815766E+03  0.47204378166E+03  0.47000000000E+01 0.  1.
         11    1    4    4    0    0 -0.69394296581E+02 -0.10425311261E+02 -0.31215026997E+03  0.31994069225E+03  0.00000000000E+00 0. -1.
        -12    1    4    4    0    0 -0.19281577091E+02 -0.72609279530E+02 -0.32670809389E+03  0.33523434386E+03  0.00000000000E+00 0.  1.
</event>
<event>
12    1  0.1598254E-001  0.2022222E+03  0.7818608E-02  0.1148529E+00
         21   -1    0    0  503  502  0.00000000000E+00  0.00000000000E+00  0.20872058209E+03  0.20872058209E+03  0.00000000000E+00 0.  1.
         21   -1    0    0  501  503 -0.00000000000E+00 -0.00000000000E+00 -0.23570339676E+03  0.23570339676E+03  0.00000000000E+00 0.  1.
          6    2    1    2  501    0 -0.65665884305E+02 -0.78587539118E+02 -0.10823912127E+03  0.22936766526E+03  0.17437261490E+03 0.  0.
         24    2    3    3    0    0 -0.55084303874E+02 -0.10372083690E+03 -0.13048634747E+03  0.19386158726E+03  0.82239501461E+02 0.  0.
         -6    2    1    2    0  502  0.65665884305E+02  0.78587539118E+02  0.81256306606E+02  0.21505631358E+03  0.17075895579E+03 0.  0.
        -24    2    5    5    0    0  0.83513815367E+01  0.91980582393E+02  0.15022312373E+02  0.12632436991E+03  0.84864618382E+02 0.  0.
          5    1    3    3  501    0 -0.10581580431E+02  0.25133297779E+02  0.22247226195E+02  0.35506078001E+02  0.47000000000E+01 0. -1.
        -13    1    4    4    0    0 -0.15965684674E+02 -0.90387805376E+01 -0.75290177914E+02  0.77493312815E+02  0.00000000000E+00 0.  1.
         14    1    4    4    0    0 -0.39118619200E+02 -0.94682056359E+02 -0.55196169554E+02  0.11636827445E+03  0.00000000000E+00 0. -1.
         -5    1    5    5    0  502  0.57314502768E+02 -0.13393043275E+02  0.66233994233E+02  0.88731943672E+02  0.47000000000E+01 0.  1.
         11    1    6    6    0    0  0.11970755847E+02  0.97797921567E+00 -0.24313368451E+02  0.27118173322E+02  0.00000000000E+00 0. -1.
        -12    1    6    6    0    0 -0.36193743104E+01  0.91002603177E+02  0.39335680824E+02  0.99206196587E+02  0.00000000000E+00 0.  1.
</event>
<event>
12    1  0.1598254E-001  0.2220365E+03  0.7818608E-02  0.1132406E+00
         21   -1    0    0  501  502  0.00000000000E+00  0.00000000000E+00  0.97606260688E+02  0.97606260688E+02  0.00000000000E+00 0. -1.
         21   -1    0    0  502  503 -0.00000000000E+00 -0.00000000000E+00 -0.75263384765E+03  0.75263384765E+03  0.00000000000E+00 0. -1.
         -6    2    1    2    0  503  0.32670029379E+02 -0.13612115715E+03 -0.57160529157E+03  0.61321514014E+03  0.17234818972E+03 0.  0.
        -24    2    3    3    0    0  0.35839840011E+02 -0.48752872844E+02 -0.46276861079E+03  0.47353415401E+03  0.80115361454E+02 0.  0.
          6    2    1    2  501    0 -0.32670029379E+02  0.13612115715E+03 -0.83422295394E+02  0.23702496820E+03  0.17211988827E+03 0.  0.
         24    2    5    5    0    0 -0.68179502490E+02  0.73908367602E+02 -0.20911791304E+02  0.14183564640E+03  0.97822064036E+02 0.  0.
          5    1    5    5  501    0  0.35509473111E+02  0.62212789548E+02 -0.62510504090E+02  0.95189321805E+02  0.47000000000E+01 0. -1.
        -11    1    6    6    0    0 -0.35431370809E+02  0.28257812234E+02 -0.58676733886E+02  0.74140711416E+02  0.00000000000E+00 0.  1.
         12    1    6    6    0    0 -0.32748131681E+02  0.45650555368E+02  0.37764942582E+02  0.67694934982E+02  0.00000000000E+00 0. -1.
         -5    1    3    3    0  503 -0.31698106327E+01 -0.87368284306E+02 -0.10883668078E+03  0.13968098613E+03  0.47000000000E+01 0.  1.
         11    1    4    4    0    0  0.57799452193E+02 -0.47844244130E+02 -0.29775591168E+03  0.30706421366E+03  0.00000000000E+00 0. -1.
        -12    1    4    4    0    0 -0.21959612181E+02 -0.90862871413E+00 -0.16501269912E+03  0.16646994036E+03  0.00000000000E+00 0.  1.
</event>
<event>
12    1  0.1598254E-001  0.2679002E+03  0.7818608E-02  0.1104164E+00
         21   -1    0    0  503  502  0.00000000000E+00  0.00000000000E+00  0.81924530808E+03  0.81924530808E+03  0.00000000000E+00 0. -1.
         21   -1    0    0  501  503 -0.00000000000E+00 -0.00000000000E+00 -0.96451639154E+02  0.96451639154E+02  0.00000000000E+00 0.  1.
          6    2    1    2  501    0 -0.33120012254E+02 -0.20268567517E+03  0.18971492865E+03  0.31908697417E+03  0.15377361542E+03 0.  0.
         24    2    3    3    0    0  0.23192612542E+02 -0.17459213024E+03  0.14550247764E+03  0.24203381198E+03  0.79931757929E+02 0.  0.
         -6    2    1    2    0  502  0.33120012254E+02  0.20268567517E+03  0.53307874027E+03  0.59660997306E+03  0.17202354053E+03 0.  0.
        -24    2    5    5    0    0 -0.16646660726E+02  0.33343509778E+02  0.21369085023E+03  0.23166586087E+03  0.81341199047E+02 0.  0.
          5    1    3    3  501    0 -0.56312624795E+02 -0.28093544934E+02  0.44212451019E+02  0.77053162190E+02  0.47000000000E+01 0. -1.
        -11    1    4    4    0    0  0.29992435557E+02 -0.53739255608E+02  0.89611637242E+02  0.10870924208E+03  0.00000000000E+00 0.  1.
         12    1    4    4    0    0 -0.67998230149E+01 -0.12085287463E+03  0.55890840394E+02  0.13332456990E+03  0.00000000000E+00 0. -1.
         -5    1    5    5    0  502  0.49766672979E+02  0.16934216540E+03  0.31938789004E+03  0.36494411219E+03  0.47000000000E+01 0.  1.
         13    1    6    6    0    0  0.85089949903E+01  0.52485217618E+02  0.16716718554E+03  0.17541940881E+03  0.00000000000E+00 0. -1.
        -14    1    6    6    0    0 -0.25155655716E+02 -0.19141707840E+02  0.46523664686E+02  0.56246452060E+02  0.00000000000E+00 0.  1.
</event>
<event>
12    1  0.1598254E-001  0.1741828E+03  0.7818608E-02  0.1173999E+00
         21   -1    0    0  503  502  0.00000000000E+00  0.00000000000E+00  0.44264932076E+02  0.44264932076E+02  0.00000000000E+00 0.  1.
         21   -1    0    0  501  503 -0.00000000000E+00 -0.00000000000E+00 -0.74668354776E+03  0.74668354776E+03  0.00000000000E+00 0.  1.
          6    2    1    2  501    0  0.26980920226E+01  0.23726449868E+01 -0.47229493519E+03  0.50339067214E+03  0.17414578332E+03 0.  0.
         24    2    3    3    0    0 -0.31111734454E+02  0.52867263999E+02 -0.37374351445E+03  0.38751451650E+03  0.81978035373E+02 0.  0.
         -6    2    1    2    0  502 -0.26980920226E+01 -0.23726449868E+01 -0.23012368049E+03  0.28755780769E+03  0.17239395377E+03 0.  0.
        -24    2    5    5    0    0  0.36349680617E+02 -0.54949475597E+01 -0.47749968035E+02  0.10096536863E+03  0.81008965462E+02 0.  0.
          5    1    3    3  501    0  0.33809826477E+02 -0.50494619012E+02 -0.98551420743E+02  0.11587615564E+03  0.47000000000E+01 0. -1.
        -13    1    4    4    0    0 -0.17131974668E+02  0.71778442993E+01 -0.10896402901E+02  0.21535031947E+02  0.00000000000E+00 0.  1.
         14    1    4    4    0    0 -0.13979759786E+02  0.45689419700E+02 -0.36284711154E+03  0.36597948455E+03  0.00000000000E+00 0. -1.
         -5    1    5    5    0  502 -0.39047772639E+02  0.31223025729E+01 -0.18237371246E+03  0.18659243907E+03  0.47000000000E+01 0.  1.
         11    1    6    6    0    0 -0.20505592000E+02 -0.94103229633E+00  0.72110670639E+01  0.21756937589E+02  0.00000000000E+00 0. -1.
        -12    1    6    6    0    0  0.56855272616E+02 -0.45539152634E+01 -0.54961035099E+02  0.79208431039E+02  0.00000000000E+00 0.  1.
</event>
<event>
12    1  0.1598254E-001  0.1839561E+03  0.7818608E-02  0.1164060E+00
         21   -1    0    0  503  502  0.00000000000E+00  0.00000000000E+00  0.27320864123E+03  0.27320864123E+03  0.00000000000E+00 0.  1.
         21   -1    0    0  501  503 -0.00000000000E+00 -0.00000000000E+00 -0.12645523402E+03  0.12645523402E+03  0.00000000000E+00 0. -1.
          6    2    1    2  501    0  0.54971630771E+02  0.36482194575E+02  0.44233791567E+02  0.18906923594E+03  0.17157423161E+03 0.  0.
         24    2    3    3    0    0  0.72741982349E+02  0.65695911945E+02  0.71030342188E+02  0.14537287679E+03  0.80502266752E+02 0.  0.
         -6    2    1    2    0  502 -0.54971630771E+02 -0.36482194575E+02  0.10251961565E+03  0.21059463931E+03  0.17171779116E+03 0.  0.
        -24    2    5    5    0    0 -0.94704229237E+02  0.47388155669E+00  0.45846533725E+02  0.13199210017E+03  0.79692498106E+02 0.  0.
          5    1    3    3  501    0 -0.17770351579E+02 -0.29213717370E+02 -0.26796550621E+02  0.43696359150E+02  0.47000000000E+01 0. -1.
        -13    1    4    4    0    0  0.48451920314E+02  0.46221456981E+02 -0.92713109752E+00  0.66969181267E+02  0.00000000000E+00 0.  1.
         14    1    4    4    0    0  0.24290062036E+02  0.19474454964E+02  0.71957473286E+02  0.78403695522E+02  0.00000000000E+00 0. -1.
         -5    1    5    5    0  502  0.39732598467E+02 -0.36956076132E+02  0.56673081923E+02  0.78602539136E+02  0.47000000000E+01 0.  1.
         13    1    6    6    0    0 -0.12778961830E+02 -0.31860298848E+02  0.42547350828E+01  0.34590219409E+02  0.00000000000E+00 0. -1.
        -14    1    6    6    0    0 -0.81925267407E+02  0.32334180404E+02  0.41591798642E+02  0.97401880765E+02  0.00000000000E+00 0.  1.
</event>
<event>
12    1  0.1598254E-001  0.1923633E+03  0.7818608E-02  0.1157051E+00
         21   -1    0    0  501  502  0.00000000000E+00  0.00000000000E+00  0.40413053832E+03  0.40413053832E+03  0.00000000000E+00 0. -1.
         21   -1    0    0  502  503 -0.00000000000E+00 -0.00000000000E+00 -0.13852780814E+03  0.13852780814E+03  0.00000000000E+00 0. -1.
         -6    2    1    2    0  503  0.39417748799E+02 -0.73609390084E+02 -0.28378623080E+02  0.19133415021E+03  0.16979784910E+03 0.  0.
        -24    2    3    3    0    0  0.46620071232E+02 -0.11483083223E+03 -0.18204382859E+02  0.14801341724E+03  0.78848088478E+02 0.  0.
          6    2    1    2  501    0 -0.39417748799E+02  0.73609390084E+02  0.29398135326E+03  0.35132419625E+03  0.17329614414E+03 0.  0.
         24    2    5    5    0    0  0.35844519703E+02  0.66478171193E+02  0.21479122422E+03  0.24174121454E+03  0.81236494045E+02 0.  0.
          5    1    5    5  501    0 -0.75262268502E+02  0.71312188912E+01  0.79190129040E+02  0.10958298171E+03  0.47000000000E+01 0. -1.
        -13    1    6    6    0    0  0.45597557512E+02  0.26071242520E+01  0.76409284261E+02  0.89018610802E+02  0.00000000000E+00 0.  1.
         14    1    6    6    0    0 -0.97530378091E+01  0.63871046941E+02  0.13838193996E+03  0.15272260374E+03  0.00000000000E+00 0. -1.
         -5    1    3    3    0  503 -0.72023224328E+01  0.41221442144E+02 -0.10174240222E+02  0.43320732969E+02  0.47000000000E+01 0.  1.
         13    1    4    4    0    0  0.68276095448E+02 -0.94846281003E+02 -0.19670383894E+02  0.11850892891E+03  0.00000000000E+00 0. -1.
        -14    1    4    4    0    0 -0.21656024216E+02 -0.19984551225E+02  0.14660010349E+01  0.29504488329E+02  0.00000000000E+00 0.  1.
</event>
<event>
12    1  0.1598254E-001  0.2076838E+03  0.7818608E-02  0.1144211E+00
         21   -1    0    0  501  502  0.00000000000E+00  0.00000000000E+00  0.91482623764E+02  0.91482623764E+02  0.00000000000E+00 0.  1.
         21   -1    0    0  502  503 -0.00000000000E+00 -0.00000000000E+00 -0.57588001077E+03  0.57588001077E+03  0.00000000000E+00 0.  1.
         -6    2    1    2    0  503 -0.53236017247E+02  0.10373436293E+03 -0.38832597016E+03  0.43853459067E+03  0.16709469330E+03 0.  0.
        -24    2    3    3    0    0  0.28623667858E+01  0.11444547578E+03 -0.21676723711E+03  0.25765826409E+03  0.79333384523E+02 0.  0.
          6    2    1    2  501    0  0.53236017247E+02 -0.10373436293E+03 -0.96071416839E+02  0.22882804386E+03  0.17186525227E+03 0.  0.
         24    2    5    5    0    0  0.46798372236E+02  0.10026198104E+02 -0.15595469080E+02  0.89252341508E+02  0.73703117413E+02 0.  0.
          5    1    5    5  501    0  0.64376450107E+01 -0.11376056103E+03 -0.80475947759E+02  0.13957570235E+03  0.47000000000E+01 0. -1.
        -13    1    6    6    0    0  0.16505724535E+02 -0.16396216012E+01 -0.43431081005E+02  0.46490709811E+02  0.00000000000E+00 0.  1.
         14    1    6    6    0    0  0.30292647701E+02  0.11665819705E+02  0.27835611925E+02  0.42761631697E+02  0.00000000000E+00 0. -1.
         -5    1    3    3    0  503 -0.56098384033E+02 -0.10711112856E+02 -0.17155873306E+03  0.18087632658E+03  0.47000000000E+01 0.  1.
         13    1    4    4    0    0 -0.11099382899E+02  0.21966280351E+02 -0.35963658388E+01  0.24872627936E+02  0.00000000000E+00 0. -1.
        -14    1    4    4    0    0  0.13961749685E+02  0.92479195433E+02 -0.21317087127E+03  0.23278563615E+03  0.00000000000E+00 0.  1.
</event>
<event>
12    1  0.1598254E-001  0.2703943E+03  0.7818608E-02  0.1101409E+00
         21   -1    0    0  501  502  0.00000000000E+00  0.00000000000E+00  0.63455410580E+02  0.63455410580E+02  0.00000000000E+00 0. -1.
         21   -1    0    0  502  503 -0.00000000000E+00 -0.00000000000E+00 -0.15141467931E+04  0.15141467931E+04  0.00000000000E+00 0. -1.
         -6    2    1    2    0  503  0.20342543502E+03 -0.24855424629E+02 -0.11140514570E+04  0.11458157622E+04  0.17257871363E+03 0.  0.
        -24    2    3    3    0    0  0.83917065373E+02  0.34547017657E+02 -0.71100926872E+03  0.72122655359E+03  0.79987443434E+02 0.  0.
          6    2    1    2  501    0 -0.20342543502E+03  0.24855424629E+02 -0.33663992551E+03  0.43178644143E+03  0.17638988580E+03 0.  0.
         24    2    5    5    0    0 -0.14861616888E+03  0.35812880039E+02 -0.12650994301E+03  0.21429892218E+03  0.80931664638E+02 0.  0.
          5    1    5    5  501    0 -0.54809266139E+02 -0.10957455410E+02 -0.21012998250E+03  0.21748751925E+03  0.47000000000E+01 0. -1.
        -11    1    6    6    0    0 -0.80932581160E+02 -0.21018621545E+02 -0.72881318422E+02  0.11092137630E+03  0.00000000000E+00 0.  1.
         12    1    6    6    0    0 -0.67683587718E+02  0.56831501584E+02 -0.53628624587E+02  0.10337754589E+03  0.00000000000E+00 0. -1.
         -5    1    3    3    0  503  0.11950836964E+03 -0.59402442286E+02 -0.40304218826E+03  0.42458920863E+03  0.47000000000E+01 0.  1.
         11    1    4    4    0    0  0.40786921256E+02 -0.24451471098E+02 -0.25458369815E+03  0.25898707834E+03  0.00000000000E+00 0. -1.
        -12    1    4    4    0    0  0.43130144118E+02  0.58998488756E+02 -0.45642557057E+03  0.46223947525E+03  0.00000000000E+00 0.  1.
</event>
<event>
12    1  0.1598254E-001  0.1846330E+03  0.7818608E-02  0.1163965E+00
         21   -1    0    0  503  502  0.00000000000E+00  0.00000000000E+00  0.81966924133E+03  0.81966924133E+03  0.00000000000E+00 0. -1.
         21   -1    0    0  501  503 -0.00000000000E+00 -0.00000000000E+00 -0.64981831331E+02  0.64981831331E+02  0.00000000000E+00 0. -1.
          6    2    1    2  501    0  0.23664886895E+02  0.61342982565E+02  0.10730967790E+03  0.21145923045E+03  0.16993131198E+03 0.  0.
         24    2    3    3    0    0  0.73160749872E+02  0.20251499247E+02  0.96840590321E+02  0.14611367018E+03  0.78793947323E+02 0.  0.
         -6    2    1    2    0  502 -0.23664886895E+02 -0.61342982565E+02  0.64737773210E+03  0.67319184221E+03  0.17252924396E+03 0.  0.
        -24    2    5    5    0    0  0.32410592862E+01 -0.11060838662E+02  0.56827995823E+03  0.57556617055E+03  0.90561907792E+02 0.  0.
          5    1    3    3  501    0 -0.49495862977E+02  0.41091483317E+02  0.10469087581E+02  0.65345560276E+02  0.47000000000E+01 0. -1.
        -11    1    4    4    0    0  0.66495861802E+02  0.46133982309E+02  0.60708808437E+02  0.10117115885E+03  0.00000000000E+00 0.  1.
         12    1    4    4    0    0  0.66648880701E+01 -0.25882483062E+02  0.36131781884E+02  0.44942511329E+02  0.00000000000E+00 0. -1.
         -5    1    5    5    0  502 -0.26905946182E+02 -0.50282143903E+02  0.79097773868E+02  0.97625671656E+02  0.47000000000E+01 0.  1.
         11    1    6    6    0    0  0.40585407629E+02 -0.26777475827E+01  0.14613617933E+03  0.15169089806E+03  0.00000000000E+00 0. -1.
        -12    1    6    6    0    0 -0.37344348343E+02 -0.83830910790E+01  0.42214377890E+03  0.42387527249E+03  0.00000000000E+00 0.  1.
</event>
<event>
12    1  0.1598254E-001  0.2020842E+03  0.7818608E-02  0.1148270E+00
         21   -1    0    0  503  502  0.00000000000E+00  0.00000000000E+00  0.33981169106E+03  0.33981169106E+03  0.00000000000E+00 0. -1.
         21   -1    0    0  501  503 -0.00000000000E+00 -0.00000000000E+00 -0.12153905840E+03  0.12153905840E+03  0.00000000000E+00 0. -1.
          6    2    1    2  501    0 -0.21152839165E+02  0.10100426168E+03  0.14017119348E+03  0.24593900559E+03  0.17374903600E+03 0.  0.
         24    2    3    3    0    0 -0.42145785898E+02  0.13438714697E+03  0.11653064280E+03  0.19972118999E+03  0.80454897166E+02 0.  0.
         -6    2    1    2    0  502  0.21152839165E+02 -0.10100426168E+03  0.78101439181E+02  0.21541174386E+03  0.17220070008E+03 0.  0.
        -24    2    5    5    0    0 -0.31300597136E+01 -0.10369905264E+03 -0.13090130278E+01  0.13219497274E+03  0.81917681304E+02 0.  0.
          5    1    3    3  501    0  0.20992946733E+02 -0.33382885294E+02  0.23640550676E+02  0.46217815606E+02  0.47000000000E+01 0. -1.
        -11    1    4    4    0    0 -0.17468276741E+02  0.64175512487E+02  0.64208386806E+01  0.66819639812E+02  0.00000000000E+00 0.  1.
         12    1    4    4    0    0 -0.24677509157E+02  0.70211634483E+02  0.11010980412E+03  0.13290155017E+03  0.00000000000E+00 0. -1.
         -5    1    5    5    0  502  0.24282898878E+02  0.26947909602E+01  0.79410452209E+02  0.83216771124E+02  0.47000000000E+01 0.  1.
         11    1    6    6    0    0  0.31416680005E+02 -0.21811027693E+02  0.16327373695E+02  0.41584995411E+02  0.00000000000E+00 0. -1.
        -12    1    6    6    0    0 -0.34546739718E+02 -0.81888024943E+02 -0.17636386723E+02  0.90609977325E+02  0.00000000000E+00 0.  1.
</event>
<event>
12    1  0.1598254E-001  0.2256912E+03  0.7818608E-02  0.1130358E+00
         21   -1    0    0  503  502  0.00000000000E+00  0.00000000000E+00  0.91644119929E+03  0.91644119929E+03  0.00000000000E+00 0.  1.
         21   -1    0    0  501  503 -0.00000000000E+00 -0.00000000000E+00 -0.87477081873E+02  0.87477081873E+02  0.00000000000E+00 0. -1.
          6    2    1    2  501    0 -0.11418342459E+03  0.82370506732E+02  0.10932279813E+03  0.25077474239E+03  0.17639087958E+03 0.  0.
         24    2    3    3    0    0 -0.11421101638E+03  0.48668322031E+02  0.14118027614E+03  0.20416115081E+03  0.79606176250E+02 0.  0.
         -6    2    1    2    0  502  0.11418342459E+03 -0.82370506732E+02  0.71964131928E+03  0.75314353877E+03  0.17181038020E+03 0.  0.
        -24    2    5    5    0    0  0.37627813556E+01 -0.77407435465E+02  0.35677462266E+03  0.37378660916E+03  0.80138805969E+02 0.  0.
          5    1    3    3  501    0  0.27591788502E-01  0.33702184701E+02 -0.31857478010E+02  0.46613591581E+02  0.47000000000E+01 0. -1.
        -13    1    4    4    0    0 -0.11365825836E+03  0.34736746954E+02  0.84587706659E+02  0.14587639083E+03  0.00000000000E+00 0.  1.
         14    1    4    4    0    0 -0.55275801540E+00  0.13931575077E+02  0.56592569485E+02  0.58284759985E+02  0.00000000000E+00 0. -1.
         -5    1    5    5    0  502  0.11042064323E+03 -0.49630712667E+01  0.36286669662E+03  0.37935692961E+03  0.47000000000E+01 0.  1.
         11    1    6    6    0    0  0.14527239565E+02 -0.85978834904E+02  0.22516285304E+03  0.24145747271E+03  0.00000000000E+00 0. -1.
        -12    1    6    6    0    0 -0.10764458209E+02  0.85713994389E+01  0.13161176963E+03  0.13232913645E+03  0.00000000000E+00 0.  1.
</event>
<event>
12    1  0.1598254E-001  0.1862919E+03  0.7818608E-02  0.1161922E+00
         21   -1    0    0  501  502  0.00000000000E+00  0.00000000000E+00  0.37296349530E+03  0.37296349530E+03  0.00000000000E+00 0. -1.
         21   -1    0    0  502  503 -0.00000000000E+00 -0.00000000000E+00 -0.15888073627E+03  0.15888073627E+03  0.00000000000E+00 0. -1.
         -6    2    1    2    0  503  0.27300125146E+02 -0.64307572903E+02 -0.64385841511E+02  0.19680775224E+03  0.17235716982E+03 0.  0.
        -24    2    3    3    0    0  0.49181384794E+02  0.14957469271E+02 -0.63215056865E+02  0.11443544396E+03  0.80354171781E+02 0.  0.
          6    2    1    2  501    0 -0.27300125146E+02  0.64307572903E+02  0.27846860054E+03  0.33503647934E+03  0.17269603421E+03 0.  0.
         24    2    5    5    0    0  0.57801930136E+02  0.93621974563E+01  0.17127488373E+03  0.18747653551E+03  0.48822655645E+02 0.  0.
          5    1    5    5  501    0 -0.85102055281E+02  0.54945375447E+02  0.10719371682E+03  0.14755994382E+03  0.47000000000E+01 0. -1.
        -11    1    6    6    0    0 -0.74657776494E+01 -0.53671868873E+01  0.24565691246E+02  0.26230091829E+02  0.00000000000E+00 0.  1.
         12    1    6    6    0    0  0.65267707785E+02  0.14729384344E+02  0.14670919248E+03  0.16124644368E+03  0.00000000000E+00 0. -1.
         -5    1    3    3    0  503 -0.21881259648E+02 -0.79265042174E+02 -0.11707846457E+01  0.82372308279E+02  0.47000000000E+01 0.  1.
         13    1    4    4    0    0  0.28994453851E+02  0.33665879136E+02  0.11366305716E+01  0.44445041357E+02  0.00000000000E+00 0. -1.
        -14    1    4    4    0    0  0.20186930942E+02 -0.18708409865E+02 -0.64351687437E+02  0.69990402603E+02  0.00000000000E+00 0.  1.
</event>
<event>
12    1  0.1598254E-001  0.2260557E+03  0.7818608E-02  0.1129465E+00
         21   -1    0    0  503  502  0.00000000000E+00  0.00000000000E+00  0.40536861877E+03  0.40536861877E+03  0.00000000000E+00 0. -1.
         21   -1    0    0  501  503 -0.00000000000E+00 -0.00000000000E+00 -0.16307454691E+03  0.16307454691E+03  0.00000000000E+00 0. -1.
          6    2    1    2  501    0  0.78804435631E+02 -0.12251521956E+03  0.25663616778E+03  0.34193291938E+03  0.17273065926E+03 0.  0.
         24    2    3    3    0    0  0.11514473301E+03 -0.57826258158E+02  0.17108617411E+03  0.22859197198E+03  0.79885073765E+02 0.  0.
         -6    2    1    2    0  502 -0.78804435631E+02  0.12251521956E+03 -0.14342095917E+02  0.22651024630E+03  0.17286144124E+03 0.  0.
        -24    2    5    5    0    0 -0.10725821102E+02  0.10146048183E+03 -0.58799533122E+02  0.14238799324E+03  0.80048003800E+02 0.  0.
          5    1    3    3  501    0 -0.36340297381E+02 -0.64688961399E+02  0.85549993669E+02  0.11334094740E+03  0.47000000000E+01 0. -1.
        -13    1    4    4    0    0  0.41641914953E+02 -0.18347628412E+02  0.91353916989E+01  0.46412713030E+02  0.00000000000E+00 0.  1.
         14    1    4    4    0    0  0.73502818059E+02 -0.39478629746E+02  0.16195078241E+03  0.18217925895E+03  0.00000000000E+00 0. -1.
         -5    1    5    5    0  502 -0.68078614529E+02  0.21054737725E+02  0.44457437205E+02  0.84122253059E+02  0.47000000000E+01 0.  1.
         13    1    6    6    0    0 -0.34797435629E+02  0.12432923310E+02 -0.11245566427E+02  0.38625145601E+02  0.00000000000E+00 0. -1.
        -14    1    6    6    0    0  0.24071614527E+02  0.89027558522E+02 -0.47553966695E+02  0.10376284764E+03  0.00000000000E+00 0.  1.
</event>
<event>
12    1  0.1598254E-001  0.3013766E+03  0.7818608E-02  0.1084946E+00
         21   -1    0    0  501  502  0.00000000000E+00  0.00000000000E+00  0.81660495839E+02  0.81660495839E+02  0.00000000000E+00 0. -1.
         21   -1    0    0  502  503 -0.00000000000E+00 -0.00000000000E+00 -0.18133472615E+04  0.18133472615E+04  0.00000000000E+00 0. -1.
         -6    2    1    2    0  503  0.24085918043E+03 -0.41680009835E+02 -0.14570678489E+04  0.14872781949E+04  0.17087815778E+03 0.  0.
        -24    2    3    3    0    0  0.83246515326E+02  0.37591174875E+02 -0.52312234716E+03  0.53680359604E+03  0.78473128378E+02 0.  0.
          6    2    1    2  501    0 -0.24085918043E+03  0.41680009835E+02 -0.27461891684E+03  0.40772956248E+03  0.17628805581E+03 0.  0.
         24    2    5    5    0    0 -0.32624970263E+02 -0.58566655446E+01 -0.97242680491E+02  0.13005053733E+03  0.79739037708E+02 0.  0.
          5    1    5    5  501    0 -0.20823421017E+03  0.47536675380E+02 -0.17737623635E+03  0.27767902515E+03  0.47000000000E+01 0. -1.
        -11    1    6    6    0    0 -0.26850880369E+02  0.35208189350E+02 -0.42502321156E+02  0.61376165386E+02  0.00000000000E+00 0.  1.
         12    1    6    6    0    0 -0.57740898938E+01 -0.41064854895E+02 -0.54740359335E+02  0.68674371943E+02  0.00000000000E+00 0. -1.
         -5    1    3    3    0  503  0.15761266510E+03 -0.79271184710E+02 -0.93394550169E+03  0.95047459885E+03  0.47000000000E+01 0.  1.
         13    1    4    4    0    0  0.68967068791E+02 -0.75129090969E+00 -0.21040658749E+03  0.22142256677E+03  0.00000000000E+00 0. -1.
        -14    1    4    4    0    0  0.14279446536E+02  0.38342465785E+02 -0.31271575967E+03  0.31538102927E+03  0.00000000000E+00 0.  1.
</event>
<event>
12    1  0.1598254E-001  0.2056668E+03  0.7818608E-02  0.1145406E+00
         21   -1    0    0  503  502  0.00000000000E+00  0.00000000000E+00  0.57109200486E+02  0.57109200486E+02  0.00000000000E+00 0. -1.
         21   -1    0    0  501  503 -0.00000000000E+00 -0.00000000000E+00 -0.73463242674E+03  0.73463242674E+03  0.00000000000E+00 0. -1.
          6    2    1    2  501    0 -0.69653254687E+02  0.84540309065E+02 -0.32890763119E+03  0.38698036081E+03  0.17197363186E+03 0.  0.
         24    2    3    3    0    0 -0.95716870807E+02  0.96220292904E+02 -0.19847900834E+03  0.25337852786E+03  0.79916816181E+02 0.  0.
         -6    2    1    2    0  502  0.69653254687E+02 -0.84540309065E+02 -0.34861559506E+03  0.40476126641E+03  0.17406955484E+03 0.  0.
        -24    2    5    5    0    0  0.59448261102E+01  0.19271981557E+02 -0.16866135070E+03  0.18741045408E+03  0.79178765142E+02 0.  0.
          5    1    3    3  501    0  0.26063616120E+02 -0.11679983839E+02 -0.13042862285E+03  0.13360183295E+03  0.47000000000E+01 0. -1.
        -11    1    4    4    0    0 -0.27090914161E+02 -0.48570777822E+01 -0.11074155770E+02  0.29667250642E+02  0.00000000000E+00 0.  1.
         12    1    4    4    0    0 -0.68625956646E+02  0.10107737069E+03 -0.18740485257E+03  0.22371127722E+03  0.00000000000E+00 0. -1.
         -5    1    5    5    0  502  0.63708428577E+02 -0.10381229062E+03 -0.17995424436E+03  0.21735081233E+03  0.47000000000E+01 0.  1.
         11    1    6    6    0    0  0.11831310708E+02 -0.52721068535E+01  0.34931264511E+01  0.13415549044E+02  0.00000000000E+00 0. -1.
        -12    1    6    6    0    0 -0.58864845980E+01  0.24544088411E+02 -0.17215447715E+03  0.17399490504E+03  0.00000000000E+00 0.  1.
</event>
<event>
12    1  0.1598254E-001  0.2089569E+03  0.7818608E-02  0.1142471E+00
         21   -1    0    0  501  502  0.00000000000E+00  0.00000000000E+00  0.68076187754E+03  0.68076187754E+03  0.00000000000E+00 0.  1.
         21   -1    0    0  502  503 -0.00000000000E+00 -0.00000000000E+00 -0.64080509994E+02  0.64080509994E+02  0.00000000000E+00 0. -1.
         -6    2    1    2    0  503 -0.39546386600E+02 -0.11212790328E+03  0.29678513746E+03  0.36274739091E+03  0.17136997522E+03 0.  0.
        -24    2    3    3    0    0  0.80452406087E+01 -0.40840025461E+01  0.66990260334E+02  0.10435578303E+03  0.79504902364E+02 0.  0.
          6    2    1    2  501    0  0.39546386600E+02  0.11212790328E+03  0.31989623008E+03  0.38209499662E+03  0.17183249120E+03 0.  0.
         24    2    5    5    0    0  0.74567204529E+02  0.30095018810E+02  0.20146659863E+03  0.23375916336E+03  0.87112444245E+02 0.  0.
          5    1    5    5  501    0 -0.35020817929E+02  0.82032884473E+02  0.11842963146E+03  0.14833583327E+03  0.47000000000E+01 0. -1.
        -13    1    6    6    0    0  0.49848041728E+01  0.15391268148E+01  0.12968284764E+03  0.12978774270E+03  0.00000000000E+00 0.  1.
         14    1    6    6    0    0  0.69582400356E+02  0.28555891995E+02  0.71783750987E+02  0.10397142065E+03  0.00000000000E+00 0. -1.
         -5    1    3    3    0  503 -0.47591627209E+02 -0.10804390074E+03  0.22979487712E+03  0.25839160787E+03  0.47000000000E+01 0.  1.
         11    1    4    4    0    0 -0.10716175637E+02 -0.31196015501E+02  0.39587901707E+01  0.33221978012E+02  0.00000000000E+00 0. -1.
        -12    1    4    4    0    0  0.18761416246E+02  0.27112012955E+02  0.63031470163E+02  0.71133805022E+02  0.00000000000E+00 0.  1.
</event>
<event>
12    1  0.1598254E-001  0.1913238E+03  0.7818608E-02  0.1157361E+00
         21   -1    0    0  501  502  0.00000000000E+00  0.00000000000E+00  0.22602840237E+03  0.22602840237E+03  0.00000000000E+00 0. -1.
         21   -1    0    0  502  503 -0.00000000000E+00 -0.00000000000E+00 -0.16161971341E+03  0.16161971341E+03  0.00000000000E+00 0. -1.
         -6    2    1    2    0  503  0.70082072270E+02  0.44075130064E+02  0.33545863373E+02  0.19424244202E+03  0.17248387574E+03 0.  0.
        -24    2    3    3    0    0  0.48124068341E+02 -0.18263163825E+02 -0.34202928407E+02  0.99478495242E+02  0.77952944764E+02 0.  0.
          6    2    1    2  501    0 -0.70082072270E+02 -0.44075130064E+02  0.30862825591E+02  0.19340567376E+03  0.17204396733E+03 0.  0.
         24    2    5    5    0    0 -0.13217095450E+02  0.38688488582E+02  0.17599541602E+02  0.92008204053E+02  0.80524996042E+02 0.  0.
          5    1    5    5  501    0 -0.56864976819E+02 -0.82763618646E+02  0.13263283989E+02  0.10139746970E+03  0.47000000000E+01 0. -1.
        -13    1    6    6    0    0  0.20075964900E+02  0.26893459024E+02  0.38415223961E+02  0.51010116026E+02  0.00000000000E+00 0.  1.
         14    1    6    6    0    0 -0.33293060351E+02  0.11795029557E+02 -0.20815682360E+02  0.40998088027E+02  0.00000000000E+00 0. -1.
         -5    1    3    3    0  503  0.21958003929E+02  0.62338293889E+02  0.67748791781E+02  0.94763946780E+02  0.47000000000E+01 0.  1.
         11    1    4    4    0    0  0.42357015697E+02  0.23328931250E+02 -0.56170151756E+01  0.48681687230E+02  0.00000000000E+00 0. -1.
        -12    1    4    4    0    0  0.57670526435E+01 -0.41592095075E+02 -0.28585913232E+02  0.50796808012E+02  0.00000000000E+00 0.  1.
</event>
<event>
12    1  0.1598254E-001  0.2324869E+03  0.7818608E-02  0.1124998E+00
         21   -1    0    0  501  502  0.00000000000E+00  0.00000000000E+00  0.18714876126E+04  0.18714876126E+04  0.00000000000E+00 0. -1.
         21   -1    0    0  502  503 -0.00000000000E+00 -0.00000000000E+00 -0.29027630613E+02  0.29027630613E+02  0.00000000000E+00 0. -1.
         -6    2    1    2    0  503  0.10990763274E+03  0.11067989882E+03  0.83819632700E+03  0.86969245099E+03  0.17164541641E+03 0.  0.
        -24    2    3    3    0    0  0.62420889366E+02  0.13804636939E+03  0.70166222734E+03  0.72249338551E+03  0.81936825053E+02 0.  0.
          6    2    1    2  501    0 -0.10990763274E+03 -0.11067989882E+03  0.10042636550E+04  0.10308227923E+04  0.17239609189E+03 0.  0.
         24    2    5    5    0    0 -0.38491534897E+02 -0.56189206243E+02  0.24934290424E+03  0.27056170252E+03  0.79955774138E+02 0.  0.
          5    1    5    5  501    0 -0.71416097847E+02 -0.54490692580E+02  0.75492075078E+03  0.76026108974E+03  0.47000000000E+01 0. -1.
        -13    1    6    6    0    0 -0.35424327005E+02 -0.71461707040E+02  0.23875847990E+03  0.25172856461E+03  0.00000000000E+00 0.  1.
         14    1    6    6    0    0 -0.30672078917E+01  0.15272500797E+02  0.10584424339E+02  0.18833137907E+02  0.00000000000E+00 0. -1.
         -5    1    3    3    0  503  0.47486743378E+02 -0.27366470571E+02  0.13653409966E+03  0.14719906548E+03  0.47000000000E+01 0.  1.
         13    1    4    4    0    0  0.31373273176E+02  0.77441211015E+02  0.20796955893E+03  0.22412666257E+03  0.00000000000E+00 0. -1.
        -14    1    4    4    0    0  0.31047616189E+02  0.60605158378E+02  0.49369266842E+03  0.49836672295E+03  0.00000000000E+00 0.  1.
</event>
<event>
12    1  0.1598254E-001  0.2404752E+03  0.7818608E-02  0.1120118E+00
         21   -1    0    0  501  502  0.00000000000E+00  0.00000000000E+00  0.26214606230E+03  0.26214606230E+03  0.00000000000E+00 0. -1.
         21   -1    0    0  502  503 -0.00000000000E+00 -0.00000000000E+00 -0.54906719340E+03  0.54906719340E+03  0.00000000000E+00 0. -1.
         -6    2    1    2    0  503 -0.12707946511E+03 -0.10986263130E+03 -0.45838589606E+03  0.51586860044E+03  0.16668471738E+03 0.  0.
        -24    2    3    3    0    0 -0.12179119799E+03 -0.12274806385E+03 -0.28939601966E+03  0.34624057073E+03  0.78944876548E+02 0.  0.
          6    2    1    2  501    0  0.12707946511E+03  0.10986263130E+03  0.17146476496E+03  0.29534465525E+03  0.17207356437E+03 0.  0.
         24    2    5    5    0    0  0.42952407188E+02  0.11704926884E+03  0.74089666895E+02  0.16637563046E+03  0.81523806648E+02 0.  0.
          5    1    5    5  501    0  0.84127057917E+02 -0.71866375373E+01  0.97375098064E+02  0.12896902479E+03  0.47000000000E+01 0. -1.
        -11    1    6    6    0    0 -0.28466980417E+00  0.82901261552E+02  0.74232683936E+02  0.11127978958E+03  0.00000000000E+00 0.  1.
         12    1    6    6    0    0  0.43237076993E+02  0.34148007289E+02 -0.14301704093E+00  0.55095840882E+02  0.00000000000E+00 0. -1.
         -5    1    3    3    0  503 -0.52882671115E+01  0.12885432543E+02 -0.16898987640E+03  0.16962802972E+03  0.47000000000E+01 0.  1.
         13    1    4    4    0    0  0.48931413356E+01 -0.35937882195E+02 -0.48643166782E+02  0.60676452462E+02  0.00000000000E+00 0. -1.
        -14    1    4    4    0    0 -0.12668433933E+03 -0.86810181651E+02 -0.24075285288E+03  0.28556411826E+03  0.00000000000E+00 0.  1.
</event>
<event>
12    1  0.1598254E-001  0.2411984E+03  0.7818608E-02  0.1119055E+00
         21   -1    0    0  503  502  0.00000000000E+00  0.00000000000E+00  0.36856133876E+03  0.36856133876E+03  0.00000000000E+00 0. -1.
         21   -1    0    0  501  503 -0.00000000000E+00 -0.00000000000E+00 -0.18476805989E+03  0.18476805989E+03  0.00000000000E+00 0. -1.
          6    2    1    2  501    0 -0.13119172243E+03 -0.10455507992E+03  0.19800213629E+03  0.31206009883E+03  0.17330212502E+03 0.  0.
         24    2    3    3    0    0 -0.54401805335E+02 -0.49369534227E+02  0.19150832276E+02  0.10969405729E+03  0.79177803043E+02 0.  0.
         -6    2    1    2    0  502  0.13119172243E+03  0.10455507992E+03 -0.14208857419E+02  0.24126929983E+03  0.17281768034E+03 0.  0.
        -24    2    5    5    0    0  0.87749599073E+02  0.55187026396E+02  0.57813857849E+02  0.14362820036E+03  0.80876558771E+02 0.  0.
          5    1    3    3  501    0 -0.76789917096E+02 -0.55185545693E+02  0.17885130401E+03  0.20236604154E+03  0.47000000000E+01 0. -1.
        -13    1    4    4    0    0 -0.73514681521E+02 -0.36519016716E+02  0.41138532533E+01  0.82188629199E+02  0.00000000000E+00 0.  1.
         14    1    4    4    0    0  0.19112876186E+02 -0.12850517512E+02  0.15036979022E+02  0.27505428093E+02  0.00000000000E+00 0. -1.
         -5    1    5    5    0  502  0.43442123358E+02  0.49368053525E+02 -0.72022715268E+02  0.97641099468E+02  0.47000000000E+01 0.  1.
         13    1    6    6    0    0  0.42045611517E+02  0.67037557358E+02  0.16377603412E+02  0.80808993546E+02  0.00000000000E+00 0. -1.
        -14    1    6    6    0    0  0.45703987556E+02 -0.11850530962E+02  0.41436254438E+02  0.62819206812E+02  0.00000000000E+00 0.  1.
</event>
<event>
12    1  0.1598254E-001  0.2500292E+03  0.7818608E-02  0.1113543E+00
         21   -1    0    0  501  502  0.00000000000E+00  0.00000000000E+00  0.19686760716E+03  0.19686760716E+03  0.00000000000E+00 0. -1.
         21   -1    0    0  502  503 -0.00000000000E+00 -0.00000000000E+00 -0.49963587792E+03  0.49963587792E+03  0.00000000000E+00 0.  1.
         -6    2    1    2    0  503  0.16760835252E+03  0.65636924061E+02 -0.36249173407E+03  0.43944031431E+03  0.17119219296E+03 0.  0.
        -24    2    3    3    0    0  0.17555387884E+03  0.71839816677E+02 -0.37159974613E+03  0.42506487869E+03  0.81324388313E+02 0.  0.
          6    2    1    2  501    0 -0.16760835252E+03 -0.65636924061E+02  0.59723463311E+02  0.25706317077E+03  0.17353332839E+03 0.  0.
         24    2    5    5    0    0 -0.14544057179E+03 -0.10233801419E+03  0.12732234237E+02  0.19327723087E+03  0.74618691449E+02 0.  0.
          5    1    5    5  501    0 -0.22167780728E+02  0.36701090129E+02  0.46991229075E+02  0.63785939901E+02  0.47000000000E+01 0. -1.
        -11    1    6    6    0    0 -0.24384149205E+01 -0.18265657869E+02 -0.16620189201E+02  0.24815535735E+02  0.00000000000E+00 0.  1.
         12    1    6    6    0    0 -0.14300215687E+03 -0.84072356321E+02  0.29352423437E+02  0.16846169514E+03  0.00000000000E+00 0. -1.
         -5    1    3    3    0  503 -0.79455263247E+01 -0.62028926152E+01  0.91080120598E+01  0.14375435613E+02  0.47000000000E+01 0.  1.
         11    1    4    4    0    0  0.57574774130E+02  0.57674242101E+02 -0.20346954659E+03  0.21918263893E+03  0.00000000000E+00 0. -1.
        -12    1    4    4    0    0  0.11797910471E+03  0.14165574576E+02 -0.16813019955E+03  0.20588223977E+03  0.00000000000E+00 0.  1.
</event>
<event>
12    1  0.1598254E-001  0.1896251E+03  0.7818608E-02  0.1158880E+00
         21   -1    0    0  503  502  0.00000000000E+00  0.00000000000E+00  0.13921999729E+04  0.13921999729E+04  0.00000000000E+00 0. -1.
         21   -1    0    0  501  503 -0.00000000000E+00 -0.00000000000E+00 -0.30029581913E+02  0.30029581913E+02  0.00000000000E+00 0. -1.
          6    2    1    2  501    0 -0.76813058141E+02 -0.20539530759E+02  0.41411357704E+03  0.45546432302E+03  0.17214986679E+03 0.  0.
         24    2    3    3    0    0 -0.63473252163E+02 -0.59859536237E+02  0.18422188943E+03  0.22180583017E+03  0.87453438644E+02 0.  0.
         -6    2    1    2    0  502  0.76813058141E+02  0.20539530759E+02  0.94805681392E+03  0.96676523176E+03  0.17175905419E+03 0.  0.
        -24    2    5    5    0    0  0.94079746741E+02  0.37691554413E+01  0.92240185848E+03  0.93127367273E+03  0.87064687009E+02 0.  0.
          5    1    3    3  501    0 -0.13339805978E+02  0.39320005478E+02  0.22989168761E+03  0.23365849286E+03  0.47000000000E+01 0. -1.
        -13    1    4    4    0    0  0.12993026183E+02 -0.38589406500E+01 -0.11565502576E+01  0.13603226118E+02  0.00000000000E+00 0.  1.
         14    1    4    4    0    0 -0.76466278345E+02 -0.56000595587E+02  0.18537843969E+03  0.20820260405E+03  0.00000000000E+00 0. -1.
         -5    1    5    5    0  502 -0.17266688600E+02  0.16770375317E+02  0.25654955444E+02  0.35491559029E+02  0.47000000000E+01 0.  1.
         11    1    6    6    0    0 -0.14023132392E+02  0.11142277858E+02  0.19865319506E+03  0.19945899455E+03  0.00000000000E+00 0. -1.
        -12    1    6    6    0    0  0.10810287913E+03 -0.73731224170E+01  0.72374866341E+03  0.73181467818E+03  0.00000000000E+00 0.  1.
</event>
<event>
12    1  0.1598254E-001  0.3120928E+03  0.7818608E-02  0.1079463E+00
         21   -1    0    0  501  502  0.00000000000E+00  0.00000000000E+00  0.23289151052E+03  0.23289151052E+03  0.00000000000E+00 0. -1.
         21   -1    0    0  502  503 -0.00000000000E+00 -0.00000000000E+00 -0.43099523959E+03  0.43099523959E+03  0.00000000000E+00 0.  1.
         -6    2    1    2    0  503  0.22753366219E+03  0.12563453528E+03 -0.15916746090E+03  0.35033727559E+03  0.17276088148E+03 0.  0.
        -24    2    3    3    0    0  0.20598609306E+03  0.52063443378E+02 -0.12714142310E+03  0.26712213035E+03  0.10024179959E+03 0.  0.
          6    2    1    2  501    0 -0.22753366219E+03 -0.12563453528E+03 -0.38936268170E+02  0.31354947451E+03  0.17100185994E+03 0.  0.
         24    2    5    5    0    0 -0.32829276453E+02 -0.55812993720E+02 -0.28231072923E+02  0.10637433919E+03  0.79533985809E+02 0.  0.
          5    1    5    5  501    0 -0.19470438574E+03 -0.69821541565E+02 -0.10705195246E+02  0.20717513533E+03  0.47000000000E+01 0. -1.
        -13    1    6    6    0    0 -0.41708284663E+02 -0.68668832635E+02 -0.37004902747E+02  0.88455369607E+02  0.00000000000E+00 0.  1.
         14    1    6    6    0    0  0.88790082096E+01  0.12855838915E+02  0.87738298241E+01  0.17918969579E+02  0.00000000000E+00 0. -1.
         -5    1    3    3    0  503  0.21547569135E+02  0.73571091906E+02 -0.32026037802E+02  0.83215145239E+02  0.47000000000E+01 0.  1.
         13    1    4    4    0    0  0.86084479314E+02 -0.28169560275E+02 -0.45693844501E+02  0.10144944125E+03  0.00000000000E+00 0. -1.
        -14    1    4    4    0    0  0.11990161374E+03  0.80233003653E+02 -0.81447578598E+02  0.16567268910E+03  0.00000000000E+00 0.  1.
</event>
<event>
12    1  0.1598254E-001  0.2403588E+03  0.7818608E-02  0.1119674E+00
         21   -1    0    0  501  502  0.00000000000E+00  0.00000000000E+00  0.39339084933E+03  0.39339084933E+03  0.00000000000E+00 0. -1.
         21   -1    0    0  502  503 -0.00000000000E+00 -0.00000000000E+00 -0.52334333028E+03  0.52334333028E+03  0.00000000000E+00 0. -1.
         -6    2    1    2    0  503 -0.16644739142E+03  0.63790593886E+01 -0.45394776846E+03  0.51331717938E+03  0.17228036353E+03 0.  0.
        -24    2    3    3    0    0 -0.16459642027E+03 -0.29757661016E+02 -0.28052962436E+03  0.33610196740E+03  0.79310544022E+02 0.  0.
          6    2    1    2  501    0  0.16644739142E+03 -0.63790593886E+01  0.32399528750E+03  0.40341700023E+03  0.17328272633E+03 0.  0.
         24    2    5    5    0    0  0.30227916138E+02  0.27696945805E+02  0.68256786869E+02  0.11162736662E+03  0.78235748252E+02 0.  0.
          5    1    5    5  501    0  0.13621947528E+03 -0.34076005193E+02  0.25573850063E+03  0.29178963360E+03  0.47000000000E+01 0. -1.
        -13    1    6    6    0    0 -0.50825011072E+01 -0.49856513982E+01  0.62802748527E+02  0.63205013725E+02  0.00000000000E+00 0.  1.
         14    1    6    6    0    0  0.35310417246E+02  0.32682597203E+02  0.54540383421E+01  0.48422352898E+02  0.00000000000E+00 0. -1.
         -5    1    3    3    0  503 -0.18509711424E+01  0.36136720404E+02 -0.17341814410E+03  0.17721521198E+03  0.47000000000E+01 0.  1.
         13    1    4    4    0    0 -0.89777664620E+02  0.94999915843E+01 -0.19976564182E+03  0.21921813464E+03  0.00000000000E+00 0. -1.
        -14    1    4    4    0    0 -0.74818755654E+02 -0.39257652600E+02 -0.80763982543E+02  0.11688383276E+03  0.00000000000E+00 0.  1.
</event>
<event>
12    1  0.1598254E-001  0.2422361E+03  0.7818608E-02  0.1118424E+00
         21   -1    0    0  503  502  0.00000000000E+00  0.00000000000E+00  0.36886089854E+03  0.36886089854E+03  0.00000000000E+00 0. -1.
         21   -1    0    0  501  503 -0.00000000000E+00 -0.00000000000E+00 -0.27238779020E+03  0.27238779020E+03  0.00000000000E+00 0.  1.
          6    2    1    2  501    0  0.18814107796E+02  0.16948721857E+03 -0.15892204478E+03  0.28971457727E+03  0.17204194853E+03 0.  0.
         24    2    3    3    0    0  0.14924696151E+02  0.99217836256E+02 -0.17430646121E+03  0.21752258406E+03  0.82863783233E+02 0.  0.
         -6    2    1    2    0  502 -0.18814107796E+02 -0.16948721857E+03  0.25539515311E+03  0.35153411147E+03  0.17108377884E+03 0.  0.
        -24    2    5    5    0    0  0.31973902294E+02 -0.16492737379E+03  0.16917360071E+03  0.25125220756E+03  0.79275441161E+02 0.  0.
          5    1    3    3  501    0  0.38894116457E+01  0.70269382318E+02  0.15384416429E+02  0.72191993207E+02  0.47000000000E+01 0. -1.
        -11    1    4    4    0    0  0.27594716406E+02  0.10368994378E+03 -0.17358057867E+03  0.20406687656E+03  0.00000000000E+00 0.  1.
         12    1    4    4    0    0 -0.12670020256E+02 -0.44721075252E+01 -0.72588253329E+00  0.13455707505E+02  0.00000000000E+00 0. -1.
         -5    1    5    5    0  502 -0.50788010090E+02 -0.45598447814E+01  0.86221552406E+02  0.10028190391E+03  0.47000000000E+01 0.  1.
         13    1    6    6    0    0  0.45833850407E+02 -0.15320234948E+03  0.16958998083E+03  0.23309325028E+03  0.00000000000E+00 0. -1.
        -14    1    6    6    0    0 -0.13859948113E+02 -0.11725024315E+02 -0.41638012313E+00  0.18158957274E+02  0.00000000000E+00 0.  1.
</event>
<event>
12    1  0.1598254E-001  0.1838259E+03  0.7818608E-02  0.1164534E+00
         21   -1    0    0  503  502  0.00000000000E+00  0.00000000000E+00  0.38258413450E+03  0.38258413450E+03  0.00000000000E+00 0.  1.
         21   -1    0    0  501  503 -0.00000000000E+00 -0.00000000000E+00 -0.33706409971E+03  0.33706409971E+03  0.00000000000E+00 0.  1.
          6    2    1    2  501    0  0.34324246343E+02 -0.49742868053E+02 -0.28685161387E+03  0.33982872351E+03  0.17189300781E+03 0.  0.
         24    2    3    3    0    0  0.43706845788E+01 -0.16117194519E+02 -0.28488773321E+03  0.29450931696E+03  0.72772593745E+02 0.  0.
         -6    2    1    2    0  502 -0.34324246343E+02  0.49742868053E+02  0.33237164866E+03  0.37981951069E+03  0.17360714577E+03 0.  0.
        -24    2    5    5    0    0 -0.68468045407E+02 -0.13175665267E+01  0.12264212822E+03  0.16122964648E+03  0.79147318753E+02 0.  0.
          5    1    3    3  501    0  0.29953561764E+02 -0.33625673534E+02 -0.19638806601E+01  0.45319406552E+02  0.47000000000E+01 0. -1.
        -13    1    4    4    0    0  0.37423473593E+02 -0.39940682943E+01 -0.17928288518E+03  0.18319067082E+03  0.00000000000E+00 0.  1.
         14    1    4    4    0    0 -0.33052789014E+02 -0.12123126225E+02 -0.10560484803E+03  0.11131864614E+03  0.00000000000E+00 0. -1.
         -5    1    5    5    0  502  0.34143799064E+02  0.51060434580E+02  0.20972952044E+03  0.21858986421E+03  0.47000000000E+01 0.  1.
         11    1    6    6    0    0 -0.61469286920E+02  0.22491685330E+02  0.11945064177E+03  0.13620868167E+03  0.00000000000E+00 0. -1.
        -12    1    6    6    0    0 -0.69987584871E+01 -0.23809251856E+02  0.31914864564E+01  0.25020964812E+02  0.00000000000E+00 0.  1.
</event>
<event>
12    1  0.1598254E-001  0.2419289E+03  0.7818608E-02  0.1119309E+00
         21   -1    0    0  503  502  0.00000000000E+00  0.00000000000E+00  0.84031511841E+03  0.84031511841E+03  0.00000000000E+00 0. -1.
         21   -1    0    0  501  503 -0.00000000000E+00 -0.00000000000E+00 -0.78251294936E+02  0.78251294936E+02  0.00000000000E+00 0.  1.
          6    2    1    2  501    0 -0.12806294901E+03  0.10004916006E+03  0.21382940079E+03  0.31932472854E+03  0.17272902557E+03 0.  0.
         24    2    3    3    0    0 -0.15884725237E+03  0.65312136943E+02  0.17881206770E+03  0.26099259566E+03  0.81518431149E+02 0.  0.
         -6    2    1    2    0  502  0.12806294901E+03 -0.10004916006E+03  0.54823442268E+03  0.59924168481E+03  0.17921958952E+03 0.  0.
        -24    2    5    5    0    0  0.24125189462E+02 -0.30169835688E+02  0.39038562039E+03  0.39768645114E+03  0.65278917464E+02 0.  0.
          5    1    3    3  501    0  0.30784303366E+02  0.34737023114E+02  0.35017333096E+02  0.58332132875E+02  0.47000000000E+01 0. -1.
        -11    1    4    4    0    0 -0.80647777599E+02  0.62874282048E+02  0.14078075204E+03  0.17400132046E+03  0.00000000000E+00 0.  1.
         12    1    4    4    0    0 -0.78199474773E+02  0.24378548951E+01  0.38031315655E+02  0.86991275205E+02  0.00000000000E+00 0. -1.
         -5    1    5    5    0  502  0.10393775954E+03 -0.69879324370E+02  0.15784880229E+03  0.20155523367E+03  0.47000000000E+01 0.  1.
         13    1    6    6    0    0  0.37810960262E+02  0.48367236936E+01  0.20891681464E+03  0.21236595313E+03  0.00000000000E+00 0. -1.
        -14    1    6    6    0    0 -0.13685770800E+02 -0.35006559381E+02  0.18146880575E+03  0.18532049801E+03  0.00000000000E+00 0.  1.
</event>
<event>
12    1  0.1598254E-001  0.2312035E+03  0.7818608E-02  0.1126546E+00
         21   -1    0    0  501  502  0.00000000000E+00  0.00000000000E+00  0.12309154947E+03  0.12309154947E+03  0.00000000000E+00 0. -1.
         21   -1    0    0  502  503 -0.00000000000E+00 -0.00000000000E+00 -0.45647470461E+03  0.45647470461E+03  0.00000000000E+00 0.  1.
         -6    2    1    2    0  503 -0.11975242888E+03 -0.86450295381E+02 -0.23971897169E+03  0.33011077701E+03  0.17231843175E+03 0.  0.
        -24    2    3    3    0    0 -0.17495932455E+02  0.16216505060E+02 -0.48356915040E+02  0.90030811797E+02  0.72097663983E+02 0.  0.
          6    2    1    2  501    0  0.11975242888E+03  0.86450295381E+02 -0.93664183456E+02  0.24945547706E+03  0.17787849218E+03 0.  0.
         24    2    5    5    0    0  0.56458737983E+02  0.11836994659E+03 -0.90783067151E+02  0.17835451875E+03  0.79810624161E+02 0.  0.
          5    1    5    5  501    0  0.63293690902E+02 -0.31919651207E+02 -0.28811163048E+01  0.71100958308E+02  0.47000000000E+01 0. -1.
        -11    1    6    6    0    0 -0.35587979874E+01 -0.41559756604E+01  0.81555977117E+01  0.98209444984E+01  0.00000000000E+00 0.  1.
         12    1    6    6    0    0  0.60017535971E+02  0.12252592225E+03 -0.98938664863E+02  0.16853357426E+03  0.00000000000E+00 0. -1.
         -5    1    3    3    0  503 -0.10225649643E+03 -0.10266680044E+03 -0.19136205665E+03  0.24007996522E+03  0.47000000000E+01 0.  1.
         13    1    4    4    0    0  0.10316327040E+02 -0.23830955899E+02 -0.24692191335E+02  0.35833578883E+02  0.00000000000E+00 0. -1.
        -14    1    4    4    0    0 -0.27812259495E+02  0.40047460959E+02 -0.23664723705E+02  0.54197232914E+02  0.00000000000E+00 0.  1.
</event>
<event>
12    1  0.1598254E-001  0.2782236E+03  0.7818608E-02  0.1096705E+00
         21   -1    0    0  503  502  0.00000000000E+00  0.00000000000E+00  0.87324429101E+02  0.87324429101E+02  0.00000000000E+00 0.  1.
         21   -1    0    0  501  503 -0.00000000000E+00 -0.00000000000E+00 -0.12259872525E+04  0.12259872525E+04  0.00000000000E+00 0. -1.
          6    2    1    2  501    0 -0.65992302315E+02  0.20797514527E+03 -0.91517483405E+03  0.95644304253E+03  0.17213271543E+03 0.  0.
         24    2    3    3    0    0  0.32163350673E+02  0.12105145160E+03 -0.50950870200E+03  0.53008947866E+03  0.75550002737E+02 0.  0.
         -6    2    1    2    0  502  0.65992302315E+02 -0.20797514527E+03 -0.22348798939E+03  0.35686863910E+03  0.17262589366E+03 0.  0.
        -24    2    5    5    0    0  0.43847191281E+02 -0.61795120714E+02 -0.49784948805E+02  0.12871552861E+03  0.91367023866E+02 0.  0.
          5    1    3    3  501    0 -0.98155652988E+02  0.86923693667E+02 -0.40566613205E+03  0.42635356387E+03  0.47000000000E+01 0. -1.
        -13    1    4    4    0    0  0.14263953672E+02 -0.53128731675E+01 -0.27080196087E+02  0.31064835679E+02  0.00000000000E+00 0.  1.
         14    1    4    4    0    0  0.17899397001E+02  0.12636432477E+03 -0.48242850591E+03  0.49902464298E+03  0.00000000000E+00 0. -1.
         -5    1    5    5    0  502  0.22145111034E+02 -0.14618002455E+03 -0.17370304058E+03  0.22815311049E+03  0.47000000000E+01 0.  1.
         11    1    6    6    0    0  0.53933213227E+02 -0.15514753978E+02 -0.57927422007E+02  0.80654109011E+02  0.00000000000E+00 0. -1.
        -12    1    6    6    0    0 -0.10086021946E+02 -0.46280366736E+02  0.81424732013E+01  0.48061419598E+02  0.00000000000E+00 0.  1.
</event>
<event>
12    1  0.1598254E-001  0.2196284E+03  0.7818608E-02  0.1134538E+00
         21   -1    0    0  503  502  0.00000000000E+00  0.00000000000E+00  0.46688088138E+03  0.46688088138E+03  0.00000000000E+00 0. -1.
         21   -1    0    0  501  503 -0.00000000000E+00 -0.00000000000E+00 -0.13243867838E+03  0.13243867838E+03  0.00000000000E+00 0. -1.
          6    2    1    2  501    0 -0.25729450003E+02  0.13048655481E+03  0.23849312248E+02  0.21891900313E+03  0.17224399743E+03 0.  0.
         24    2    3    3    0    0  0.40518140902E+02  0.35301681276E+02 -0.15876254026E+02  0.96244172510E+02  0.78249324963E+02 0.  0.
         -6    2    1    2    0  502  0.25729450003E+02 -0.13048655481E+03  0.31059289075E+03  0.38040055663E+03  0.17477955864E+03 0.  0.
        -24    2    5    5    0    0 -0.41291211889E+02 -0.12244548985E+03  0.21920045651E+03  0.26668558452E+03  0.79840457739E+02 0.  0.
          5    1    3    3  501    0 -0.66247590905E+02  0.95184873538E+02  0.39725566275E+02  0.12267483062E+03  0.47000000000E+01 0. -1.
        -13    1    4    4    0    0 -0.47187493813E+01 -0.21169492372E+02  0.17902791021E+01  0.21762791693E+02  0.00000000000E+00 0.  1.
         14    1    4    4    0    0  0.45236890283E+02  0.56471173648E+02 -0.17666533129E+02  0.74481380817E+02  0.00000000000E+00 0. -1.
         -5    1    5    5    0  502  0.67020661892E+02 -0.80410649607E+01  0.91392434244E+02  0.11371497212E+03  0.47000000000E+01 0.  1.
         11    1    6    6    0    0  0.66387262003E+01 -0.82054317540E+02  0.16251223718E+03  0.18217357368E+03  0.00000000000E+00 0. -1.
        -12    1    6    6    0    0 -0.47929938089E+02 -0.40391172313E+02  0.56688219327E+02  0.84512010841E+02  0.00000000000E+00 0.  1.
</event>
<event>
12    1  0.1598254E-001  0.2206054E+03  0.7818608E-02  0.1134819E+00
         21   -1    0    0  501  502  0.00000000000E+00  0.00000000000E+00  0.79491955520E+03  0.79491955520E+03  0.00000000000E+00 0. -1.
         21   -1    0    0  502  503 -0.00000000000E+00 -0.00000000000E+00 -0.60091581144E+02  0.60091581144E+02  0.00000000000E+00 0.  1.
         -6    2    1    2    0  503 -0.60872187101E+02 -0.11482882940E+03  0.30935114412E+03  0.37574371618E+03  0.16909797945E+03 0.  0.
        -24    2    3    3    0    0 -0.20339299358E+02 -0.11985434346E+03  0.30032554645E+03  0.33365188569E+03  0.79683098761E+02 0.  0.
          6    2    1    2  501    0  0.60872187101E+02  0.11482882940E+03  0.42547682994E+03  0.47926742017E+03  0.17825724109E+03 0.  0.
         24    2    5    5    0    0  0.83838340038E+02  0.12216368717E+03  0.42232470334E+03  0.45450312689E+03  0.79133454238E+02 0.  0.
          5    1    5    5  501    0 -0.22966152938E+02 -0.73348577742E+01  0.31521265934E+01  0.24764293275E+02  0.47000000000E+01 0. -1.
        -11    1    6    6    0    0  0.64002754515E+02  0.24859076754E+02  0.17070511408E+03  0.18399609304E+03  0.00000000000E+00 0.  1.
         12    1    6    6    0    0  0.19835585524E+02  0.97304610419E+02  0.25161958927E+03  0.27050703385E+03  0.00000000000E+00 0. -1.
         -5    1    3    3    0  503 -0.40532887742E+02  0.50255140634E+01  0.90255976691E+01  0.42091830485E+02  0.47000000000E+01 0.  1.
         11    1    4    4    0    0  0.29738732786E+02 -0.55893184135E+02  0.11430161907E+03  0.13066483989E+03  0.00000000000E+00 0. -1.
        -12    1    4    4    0    0 -0.50078032144E+02 -0.63961159327E+02  0.18602392738E+03  0.20298704581E+03  0.00000000000E+00 0.  1.
</event>
<event>
12    1  0.1598254E-001  0.1944202E+03  0.7818608E-02  0.1154810E+00
         21   -1    0    0  501  502  0.00000000000E+00  0.00000000000E+00  0.79195909420E+03  0.79195909420E+03  0.00000000000E+00 0. -1.
         21   -1    0    0  502  503 -0.00000000000E+00 -0.00000000000E+00 -0.52868132269E+02  0.52868132269E+02  0.00000000000E+00 0. -1.
         -6    2    1    2    0  503 -0.71542746683E+02 -0.55390480115E+02  0.23287007344E+03  0.30255532499E+03  0.17065984790E+03 0.  0.
        -24    2    3    3    0    0 -0.72632071379E+02 -0.99078874282E+02  0.15896426434E+03  0.21656683139E+03  0.80867261592E+02 0.  0.
          6    2    1    2  501    0  0.71542746683E+02  0.55390480115E+02  0.50622088850E+03  0.54227190149E+03  0.17208357650E+03 0.  0.
         24    2    5    5    0    0  0.42902921314E+02 -0.28422806578E+02  0.17187481215E+03  0.19636108149E+03  0.79801044358E+02 0.  0.
          5    1    5    5  501    0  0.28639825369E+02  0.83813286693E+02  0.33434607635E+03  0.34591082000E+03  0.47000000000E+01 0. -1.
        -13    1    6    6    0    0 -0.22440737672E+02 -0.17784463258E+02  0.47465137727E+02  0.55432960773E+02  0.00000000000E+00 0.  1.
         14    1    6    6    0    0  0.65343658986E+02 -0.10638343320E+02  0.12440967442E+03  0.14092812071E+03  0.00000000000E+00 0. -1.
         -5    1    3    3    0  503  0.10893246961E+01  0.43688394167E+02  0.73905809098E+02  0.85988493601E+02  0.47000000000E+01 0.  1.
         11    1    4    4    0    0 -0.58768494372E+02 -0.51589811512E+02  0.14568193884E+03  0.16534349665E+03  0.00000000000E+00 0. -1.
        -12    1    4    4    0    0 -0.13863577007E+02 -0.47489062770E+02  0.13282325503E+02  0.51223334731E+02  0.00000000000E+00 0.  1.
</event>
<event>
12    1  0.1598254E-001  0.1793646E+03  0.7818608E-02  0.1168597E+00
         21   -1    0    0  503  502  0.00000000000E+00  0.00000000000E+00  0.27140666604E+03  0.27140666604E+03  0.00000000000E+00 0.  1.
         21   -1    0    0  501  503 -0.00000000000E+00 -0.00000000000E+00 -0.11725863491E+04  0.11725863491E+04  0.00000000000E+00 0.  1.
          6    2    1    2  501    0  0.81472857421E+01  0.42081550096E+02 -0.11351846920E+04  0.11491540610E+04  0.17341723054E+03 0.  0.
         24    2    3    3    0    0  0.39204496832E+02  0.36377440917E+02 -0.34495772402E+03  0.35828249233E+03  0.80685823827E+02 0.  0.
         -6    2    1    2    0  502 -0.81472857421E+01 -0.42081550096E+02  0.23400500890E+03  0.29483895419E+03  0.17416782020E+03 0.  0.
        -24    2    5    5    0    0  0.30871731780E+02 -0.82637146844E+02  0.18655811696E+03  0.22107895344E+03  0.79309588247E+02 0.  0.
          5    1    3    3  501    0 -0.31057211090E+02  0.57041091789E+01 -0.79022696798E+03  0.79087156867E+03  0.47000000000E+01 0. -1.
        -13    1    4    4    0    0  0.33588004230E+02  0.17362794744E+02 -0.33297733864E+03  0.33511718654E+03  0.00000000000E+00 0.  1.
         14    1    4    4    0    0  0.56164926019E+01  0.19014646173E+02 -0.11980385385E+02  0.23165305787E+02  0.00000000000E+00 0. -1.
         -5    1    5    5    0  502 -0.39019017522E+02  0.40555596748E+02  0.47446891940E+02  0.73760000751E+02  0.47000000000E+01 0.  1.
         13    1    6    6    0    0  0.25707170671E+02 -0.41794815723E+01  0.10170348817E+02  0.27960019406E+02  0.00000000000E+00 0. -1.
        -14    1    6    6    0    0  0.51645611091E+01 -0.78457665272E+02  0.17638776814E+03  0.19311893403E+03  0.00000000000E+00 0.  1.
</event>
<event>
12    1  0.1598254E-001  0.2019459E+03  0.7818608E-02  0.1148502E+00
         21   -1    0    0  503  502  0.00000000000E+00  0.00000000000E+00  0.98312101910E+03  0.98312101910E+03  0.00000000000E+00 0. -1.
         21   -1    0    0  501  503 -0.00000000000E+00 -0.00000000000E+00 -0.67925475303E+02  0.67925475303E+02  0.00000000000E+00 0.  1.
          6    2    1    2  501    0  0.35772917705E+02 -0.97928161579E+02  0.12861866388E+03  0.23942616901E+03  0.17295231492E+03 0.  0.
         24    2    3    3    0    0 -0.42141401749E+02 -0.64484024859E+02  0.42755010164E+02  0.11866272882E+03  0.79490660538E+02 0.  0.
         -6    2    1    2    0  502 -0.35772917705E+02  0.97928161579E+02  0.78657687991E+03  0.81162032539E+03  0.17074758595E+03 0.  0.
        -24    2    5    5    0    0 -0.72531129798E+02  0.22250262734E+02  0.53865564522E+03  0.54977048457E+03  0.79635686665E+02 0.  0.
          5    1    3    3  501    0  0.77914319454E+02 -0.33444136719E+02  0.85863653717E+02  0.12076344019E+03  0.47000000000E+01 0. -1.
        -13    1    4    4    0    0 -0.91605978112E+01 -0.73990198673E+02  0.38985624374E+02  0.84132900579E+02  0.00000000000E+00 0.  1.
         14    1    4    4    0    0 -0.32980803937E+02  0.95061738139E+01  0.37693857899E+01  0.34529828238E+02  0.00000000000E+00 0. -1.
         -5    1    5    5    0  502  0.36758212093E+02  0.75677898845E+02  0.24792123469E+03  0.26184984082E+03  0.47000000000E+01 0.  1.
         11    1    6    6    0    0 -0.52920582945E+02 -0.20560407238E+02  0.38183531778E+03  0.38603306639E+03  0.00000000000E+00 0. -1.
        -12    1    6    6    0    0 -0.19610546853E+02  0.42810669972E+02  0.15682032745E+03  0.16373741818E+03  0.00000000000E+00 0.  1.
</event>
<event>
12    1  0.1598254E-001  0.2360251E+03  0.7818608E-02  0.1122690E+00
         21   -1    0    0  503  502  0.00000000000E+00  0.00000000000E+00  0.81900862164E+03  0.81900862164E+03  0.00000000000E+00 0. -1.
         21   -1    0    0  501  503 -0.00000000000E+00 -0.00000000000E+00 -0.79290592961E+02  0.79290592961E+02  0.00000000000E+00 0. -1.
          6    2    1    2  501    0 -0.15432453137E+03  0.42605459362E+02  0.19688040127E+03  0.30636971130E+03  0.17166601716E+03 0.  0.
         24    2    3    3    0    0 -0.10765354233E+02 -0.72198647093E+01  0.88930566460E+02  0.11991044740E+03  0.79384195196E+02 0.  0.
         -6    2    1    2    0  502  0.15432453137E+03 -0.42605459362E+02  0.54283762741E+03  0.59192950330E+03  0.17342595250E+03 0.  0.
        -24    2    5    5    0    0  0.17715563077E+03 -0.60275803161E+02  0.42666989393E+03  0.47213579540E+03  0.76470392680E+02 0.  0.
          5    1    3    3  501    0 -0.14355917713E+03  0.49825324071E+02  0.10794983481E+03  0.18645926390E+03  0.47000000000E+01 0. -1.
        -13    1    4    4    0    0  0.19957362512E+02 -0.19433367275E+02  0.32162451853E+01  0.28040975646E+02  0.00000000000E+00 0.  1.
         14    1    4    4    0    0 -0.30722716745E+02  0.12213502565E+02  0.85714321275E+02  0.91869471756E+02  0.00000000000E+00 0. -1.
         -5    1    5    5    0  502 -0.22831099406E+02  0.17670343799E+02  0.11616773348E+03  0.11979370790E+03  0.47000000000E+01 0.  1.
         11    1    6    6    0    0  0.12005827295E+03 -0.69450732968E+02  0.24563379444E+03  0.28208749385E+03  0.00000000000E+00 0. -1.
        -12    1    6    6    0    0  0.57097357821E+02  0.91749298077E+01  0.18103609949E+03  0.19004830156E+03  0.00000000000E+00 0.  1.
</event>
<event>
12    1  0.1598254E-001  0.2125637E+03  0.7818608E-02  0.1141700E+00
         21   -1    0    0  501  502  0.00000000000E+00  0.00000000000E+00  0.31726800261E+03  0.31726800261E+03  0.00000000000E+00 0. -1.
         21   -1    0    0  502  503 -0.00000000000E+00 -0.00000000000E+00 -0.16281845726E+03  0.16281845726E+03  0.00000000000E+00 0. -1.
         -6    2    1    2    0  503  0.27457849687E+02  0.10417120852E+03 -0.23057218605E+02  0.20315331599E+03  0.17068702433E+03 0.  0.
        -24    2    3    3    0    0  0.16473790707E+02  0.83029252436E+01  0.19810598766E+02  0.97459810726E+02  0.93624946117E+02 0.  0.
          6    2    1    2  501    0 -0.27457849687E+02 -0.10417120852E+03  0.17750676396E+03  0.27693314387E+03  0.18324230060E+03 0.  0.
         24    2    5    5    0    0 -0.34204613894E+02  0.15985456772E+02  0.57166399106E+02  0.10667734675E+03  0.81771441734E+02 0.  0.
          5    1    5    5  501    0  0.67467642071E+01 -0.12015666529E+03  0.12034036485E+03  0.17025579712E+03  0.47000000000E+01 0. -1.
        -13    1    6    6    0    0 -0.24457665966E+02  0.86476936533E+01  0.78184021048E+02  0.82375367539E+02  0.00000000000E+00 0.  1.
         14    1    6    6    0    0 -0.97469479275E+01  0.73377631186E+01 -0.21017621942E+02  0.24301979211E+02  0.00000000000E+00 0. -1.
         -5    1    3    3    0  503  0.10984058980E+02  0.95868283274E+02 -0.42867817371E+02  0.10569350527E+03  0.47000000000E+01 0.  1.
         11    1    4    4    0    0  0.24887920618E+02  0.44984618115E+02  0.28575580527E+02  0.58818264699E+02  0.00000000000E+00 0. -1.
        -12    1    4    4    0    0 -0.84141299116E+01 -0.36681692872E+02 -0.87649817612E+01  0.38641546027E+02  0.00000000000E+00 0.  1.
</event>
<event>
12    1  0.1598254E-001  0.1935826E+03  0.7818608E-02  0.1155451E+00
         21   -1    0    0  501  502  0.00000000000E+00  0.00000000000E+00  0.91638759274E+03  0.91638759274E+03  0.00000000000E+00 0.  1.
         21   -1    0    0  502  503 -0.00000000000E+00 -0.00000000000E+00 -0.48557812638E+02  0.48557812638E+02  0.00000000000E+00 0. -1.
         -6    2    1    2    0  503  0.14314135200E+02 -0.83852019886E+02  0.23928905908E+03  0.30726946470E+03  0.17297171572E+03 0.  0.
        -24    2    3    3    0    0 -0.37384456646E+02 -0.74238545495E+02  0.83196408325E+02  0.14249031278E+03  0.80454258072E+02 0.  0.
          6    2    1    2  501    0 -0.14314135200E+02  0.83852019886E+02  0.62854072103E+03  0.65767594068E+03  0.17389119947E+03 0.  0.
         24    2    5    5    0    0 -0.21443158493E+02  0.30467109178E+02  0.57476467525E+03  0.58142159809E+03  0.79426626662E+02 0.  0.
          5    1    5    5  501    0  0.71290232927E+01  0.53384910708E+02  0.53776045782E+02  0.76254342593E+02  0.47000000000E+01 0. -1.
        -13    1    6    6    0    0 -0.23567801912E+02  0.56348194558E+02  0.43470164280E+03  0.43897161477E+03  0.00000000000E+00 0.  1.
         14    1    6    6    0    0  0.21246434192E+01 -0.25881085380E+02  0.14006303244E+03  0.14244998332E+03  0.00000000000E+00 0. -1.
         -5    1    3    3    0  503  0.51698591846E+02 -0.96134743909E+01  0.15609265076E+03  0.16477915192E+03  0.47000000000E+01 0.  1.
         13    1    4    4    0    0 -0.55092603842E+02 -0.21583251386E+02  0.33746037783E+02  0.68116274153E+02  0.00000000000E+00 0. -1.
        -14    1    4    4    0    0  0.17708147196E+02 -0.52655294110E+02  0.49450370542E+02  0.74374038626E+02  0.00000000000E+00 0.  1.
</event>
<event>
12    1  0.1598254E-001  0.2480144E+03  0.7818608E-02  0.1114678E+00
         21   -1    0    0  501  502  0.00000000000E+00  0.00000000000E+00  0.36887261482E+03  0.36887261482E+03  0.00000000000E+00 0. -1.
         21   -1    0    0  502  503 -0.00000000000E+00 -0.00000000000E+00 -0.16949246633E+03  0.16949246633E+03  0.00000000000E+00 0. -1.
         -6    2    1    2    0  503 -0.40067854267E+02 -0.17347596224E+03  0.13686633320E+03  0.28327293657E+03  0.17266100026E+03 0.  0.
        -24    2    3    3    0    0  0.35672786417E+02 -0.13923720868E+03  0.11869291370E+03  0.19805967427E+03  0.66933391043E+02 0.  0.
          6    2    1    2  501    0  0.40067854267E+02  0.17347596224E+03  0.62513815289E+02  0.25509214457E+03  0.17165279695E+03 0.  0.
         24    2    5    5    0    0  0.67886926504E+02  0.40312952340E+02  0.24489398585E+02  0.11376191337E+03  0.78155443666E+02 0.  0.
          5    1    5    5  501    0 -0.27819072238E+02  0.13316300990E+03  0.38024416705E+02  0.14133023120E+03  0.47000000000E+01 0. -1.
        -13    1    6    6    0    0  0.61891869842E+01  0.99117522448E+01 -0.25955849672E+02  0.28464978488E+02  0.00000000000E+00 0.  1.
         14    1    6    6    0    0  0.61697739520E+02  0.30401200096E+02  0.50445248257E+02  0.85296934885E+02  0.00000000000E+00 0. -1.
         -5    1    3    3    0  503 -0.75740640683E+02 -0.34238753561E+02  0.18173419500E+02  0.85213262306E+02  0.47000000000E+01 0.  1.
         13    1    4    4    0    0 -0.96376856316E+01 -0.85890300403E+02  0.49313740377E+02  0.99508158850E+02  0.00000000000E+00 0. -1.
        -14    1    4    4    0    0  0.45310472048E+02 -0.53346908274E+02  0.69379173327E+02  0.98551515418E+02  0.00000000000E+00 0.  1.
</event>
<event>
12    1  0.1598254E-001  0.2062092E+03  0.7818608E-02  0.1144663E+00
         21   -1    0    0  503  502  0.00000000000E+00  0.00000000000E+00  0.14879798931E+04  0.14879798931E+04  0.00000000000E+00 0. -1.
         21   -1    0    0  501  503 -0.00000000000E+00 -0.00000000000E+00 -0.50021862513E+02  0.50021862513E+02  0.00000000000E+00 0. -1.
          6    2    1    2  501    0 -0.19689322942E+02 -0.10965854372E+03  0.21470556061E+03  0.29749023787E+03  0.17317418463E+03 0.  0.
         24    2    3    3    0    0  0.20825692261E+02 -0.69885897454E+02  0.42366374118E+02  0.11597931520E+03  0.79614972066E+02 0.  0.
         -6    2    1    2    0  502  0.19689322942E+02  0.10965854372E+03  0.12232524699E+04  0.12405115177E+04  0.17352104971E+03 0.  0.
        -24    2    5    5    0    0 -0.23181632448E+01  0.72246727270E+02  0.33626751745E+03  0.35245275309E+03  0.76955418194E+02 0.  0.
          5    1    3    3  501    0 -0.40515015203E+02 -0.39772646270E+02  0.17233918649E+03  0.18151092267E+03  0.47000000000E+01 0. -1.
        -11    1    4    4    0    0  0.96058488841E+01  0.16015796502E+02  0.18114225749E+02  0.26017364295E+02  0.00000000000E+00 0.  1.
         12    1    4    4    0    0  0.11219843377E+02 -0.85901693957E+02  0.24252148370E+02  0.89961950905E+02  0.00000000000E+00 0. -1.
         -5    1    5    5    0  502  0.22007486187E+02  0.37411816455E+02  0.88698495249E+03  0.88805876461E+03  0.47000000000E+01 0.  1.
         11    1    6    6    0    0  0.36824510107E+02  0.36009198306E+02  0.18596889923E+03  0.19296926799E+03  0.00000000000E+00 0. -1.
        -12    1    6    6    0    0 -0.39142673351E+02  0.36237528964E+02  0.15029861822E+03  0.15948348511E+03  0.00000000000E+00 0.  1.
</event>
<event>
12    1  0.1598254E-001  0.2160732E+03  0.7818608E-02  0.1136878E+00
         21   -1    0    0  503  502  0.00000000000E+00  0.00000000000E+00  0.63243385242E+02  0.63243385242E+02  0.00000000000E+00 0. -1.
         21   -1    0    0  501  503 -0.00000000000E+00 -0.00000000000E+00 -0.14967458123E+04  0.14967458123E+04  0.00000000000E+00 0. -1.
          6    2    1    2  501    0 -0.12942075715E+03  0.14509448780E+02 -0.12723779453E+04  0.12905941462E+04  0.17241623451E+03 0.  0.
         24    2    3    3    0    0 -0.13746357647E+02  0.50252102673E+02 -0.56471418018E+03  0.57263300621E+03  0.79323504307E+02 0.  0.
         -6    2    1    2    0  502  0.12942075715E+03 -0.14509448780E+02 -0.16112448171E+03  0.26939505134E+03  0.17219854412E+03 0.  0.
        -24    2    5    5    0    0  0.72379167973E+02  0.12710667850E+02 -0.13960927497E+02  0.10916434475E+03  0.79508751937E+02 0.  0.
          5    1    3    3  501    0 -0.11567439950E+03 -0.35742653893E+02 -0.70766376515E+03  0.71796113997E+03  0.47000000000E+01 0. -1.
        -13    1    4    4    0    0 -0.16722384572E+02  0.44040001496E+02 -0.13717627971E+03  0.14503962077E+03  0.00000000000E+00 0.  1.
         14    1    4    4    0    0  0.29760269243E+01  0.62121011778E+01 -0.42753790047E+03  0.42759338544E+03  0.00000000000E+00 0. -1.
         -5    1    5    5    0  502  0.57041589172E+02 -0.27220116630E+02 -0.14716355422E+03  0.16023070659E+03  0.47000000000E+01 0.  1.
         13    1    6    6    0    0  0.19207840835E+02  0.42352087394E+02 -0.12977808590E+02  0.48281093318E+02  0.00000000000E+00 0. -1.
        -14    1    6    6    0    0  0.53171327138E+02 -0.29641419544E+02 -0.98311890670E+00  0.60883251432E+02  0.00000000000E+00 0.  1.
</event>
<event>
12    1  0.1598254E-001  0.1723141E+03  0.7818608E-02  0.1175535E+00
         21   -1    0    0  503  502  0.00000000000E+00  0.00000000000E+00  0.34050051122E+03  0.34050051122E+03  0.00000000000E+00 0. -1.
         21   -1    0    0  501  503 -0.00000000000E+00 -0.00000000000E+00 -0.14186368968E+03  0.14186368968E+03  0.00000000000E+00 0. -1.
          6    2    1    2  501    0 -0.11893826993E+02  0.89497952243E+01 -0.50660946143E+02  0.17931050620E+03  0.17135975086E+03 0.  0.
         24    2    3    3    0    0  0.11306153754E+01  0.34600108986E+02 -0.93766965305E+02  0.12727404223E+03  0.78790812973E+02 0.  0.
         -6    2    1    2    0  502  0.11893826993E+02 -0.89497952243E+01  0.24929776768E+03  0.30305369470E+03  0.17167004091E+03 0.  0.
        -24    2    5    5    0    0 -0.47825876266E+02  0.28656003510E+02  0.10479916919E+03  0.14217307430E+03  0.78242163923E+02 0.  0.
          5    1    3    3  501    0 -0.13024442368E+02 -0.25650313761E+02  0.43106019162E+02  0.52036463975E+02  0.47000000000E+01 0. -1.
        -13    1    4    4    0    0 -0.81550515662E+01 -0.22299216313E+02 -0.10417030454E+02  0.25928255585E+02  0.00000000000E+00 0.  1.
         14    1    4    4    0    0  0.92856669416E+01  0.56899325299E+02 -0.83349934851E+02  0.10134578664E+03  0.00000000000E+00 0. -1.
         -5    1    5    5    0  502  0.59719703259E+02 -0.37605798735E+02  0.14449859848E+03  0.16088062040E+03  0.47000000000E+01 0.  1.
         11    1    6    6    0    0  0.10764318226E+02  0.35469375534E+02  0.38942846185E+02  0.53763299905E+02  0.00000000000E+00 0. -1.
        -12    1    6    6    0    0 -0.58590194492E+02 -0.68133720240E+01  0.65856323010E+02  0.88409774399E+02  0.00000000000E+00 0.  1.
</event>
<event>
12    1  0.1598254E-001  0.2956975E+03  0.7818608E-02  0.1087460E+00
         21   -1    0    0  501  502  0.00000000000E+00  0.00000000000E+00  0.85391021006E+02  0.85391021006E+02  0.00000000000E+00 0.  1.
         21   -1    0    0  502  503 -0.00000000000E+00 -0.00000000000E+00 -0.22147045020E+04  0.22147045020E+04  0.00000000000E+00 0. -1.
         -6    2    1    2    0  503 -0.14865230610E+03 -0.18872390898E+03 -0.19080767837E+04  0.19307952950E+04  0.17175341788E+03 0.  0.
        -24    2    3    3    0    0 -0.68135451029E+02 -0.27600634630E+02 -0.52822141717E+03  0.53922546341E+03  0.79636675700E+02 0.  0.
          6    2    1    2  501    0  0.14865230610E+03  0.18872390898E+03 -0.22123669722E+03  0.36930022798E+03  0.17240290098E+03 0.  0.
         24    2    5    5    0    0  0.17556019384E+03  0.16026416480E+03 -0.21174463897E+03  0.32872707638E+03  0.81973864344E+02 0.  0.
          5    1    5    5  501    0 -0.26907887740E+02  0.28459744174E+02 -0.94920582452E+01  0.40573151600E+02  0.47000000000E+01 0. -1.
        -13    1    6    6    0    0  0.12346204369E+03  0.14972484912E+03 -0.13933718789E+03  0.23890428754E+03  0.00000000000E+00 0.  1.
         14    1    6    6    0    0  0.52098150146E+02  0.10539315682E+02 -0.72407451077E+02  0.89822788841E+02  0.00000000000E+00 0. -1.
         -5    1    3    3    0  503 -0.80516855069E+02 -0.16112327435E+03 -0.13798553666E+04  0.13915698316E+04  0.47000000000E+01 0.  1.
         11    1    4    4    0    0 -0.73115584408E+02 -0.21943439517E+02 -0.52579492478E+03  0.53130754384E+03  0.00000000000E+00 0. -1.
        -12    1    4    4    0    0  0.49801333793E+01 -0.56571951127E+01 -0.24264923941E+01  0.79179195726E+01  0.00000000000E+00 0.  1.
</event>
<event>
12    1  0.1598254E-001  0.1745852E+03  0.7818608E-02  0.1173222E+00
         21   -1    0    0  501  502  0.00000000000E+00  0.00000000000E+00  0.92760239253E+03  0.92760239253E+03  0.00000000000E+00 0. -1.
         21   -1    0    0  502  503 -0.00000000000E+00 -0.00000000000E+00 -0.12072660425E+03  0.12072660425E+03  0.00000000000E+00 0. -1.
         -6    2    1    2    0  503 -0.15976527132E+02  0.24167895147E+02 -0.43788048308E+02  0.17999277573E+03  0.17216465829E+03 0.  0.
        -24    2    3    3    0    0 -0.77081347470E+02  0.19007736258E+02 -0.21407496256E+02  0.11454504530E+03  0.79746212081E+02 0.  0.
          6    2    1    2  501    0  0.15976527132E+02 -0.24167895147E+02  0.85066383658E+03  0.86833622105E+03  0.17187057149E+03 0.  0.
         24    2    5    5    0    0 -0.50854299373E+02  0.12728095424E+02  0.41571550019E+03  0.42671441585E+03  0.80731972748E+02 0.  0.
          5    1    5    5  501    0  0.66830826505E+02 -0.36895990572E+02  0.43494833640E+03  0.44162180520E+03  0.47000000000E+01 0. -1.
        -11    1    6    6    0    0  0.20366767147E+02 -0.43283330333E+00  0.51802016559E+02  0.55663645840E+02  0.00000000000E+00 0.  1.
         12    1    6    6    0    0 -0.71221066519E+02  0.13160928728E+02  0.36391348363E+03  0.37105077001E+03  0.00000000000E+00 0. -1.
         -5    1    3    3    0  503  0.61104820338E+02  0.51601588891E+01 -0.22380552052E+02  0.65447730430E+02  0.47000000000E+01 0.  1.
         13    1    4    4    0    0 -0.34349016531E+02 -0.26959191873E+02 -0.27316799552E+02  0.51505926851E+02  0.00000000000E+00 0. -1.
        -14    1    4    4    0    0 -0.42732330939E+02  0.45966928131E+02  0.59093032959E+01  0.63039118448E+02  0.00000000000E+00 0.  1.
</event>
<event>
12    1  0.1598254E-001  0.1935098E+03  0.7818608E-02  0.1155520E+00
         21   -1    0    0  503  502  0.00000000000E+00  0.00000000000E+00  0.28376693763E+02  0.28376693763E+02  0.00000000000E+00 0. -1.
         21   -1    0    0  501  503 -0.00000000000E+00 -0.00000000000E+00 -0.13155675797E+04  0.13155675797E+04  0.00000000000E+00 0.  1.
          6    2    1    2  501    0  0.85114561332E+02  0.18215267255E+02 -0.61778522603E+03  0.64713009756E+03  0.17187929823E+03 0.  0.
         24    2    3    3    0    0 -0.16375232097E+02  0.26243188630E+02 -0.20757959872E+03  0.22445365823E+03  0.79582043906E+02 0.  0.
         -6    2    1    2    0  502 -0.85114561332E+02 -0.18215267255E+02 -0.66940565989E+03  0.69681417588E+03  0.17282874097E+03 0.  0.
        -24    2    5    5    0    0 -0.12727211738E+02  0.62945961202E+01 -0.14351659357E+03  0.16538020834E+03  0.80944405742E+02 0.  0.
          5    1    3    3  501    0  0.10148979343E+03 -0.80279213753E+01 -0.41020562731E+03  0.42267643933E+03  0.47000000000E+01 0. -1.
        -13    1    4    4    0    0 -0.22992767226E+02  0.24388907417E+02 -0.21304955706E+03  0.21567011827E+03  0.00000000000E+00 0.  1.
         14    1    4    4    0    0  0.66175351294E+01  0.18542812133E+01  0.54699583413E+01  0.87835399619E+01  0.00000000000E+00 0. -1.
         -5    1    5    5    0  502 -0.72387349595E+02 -0.24509863375E+02 -0.52588906632E+03  0.53143396754E+03  0.47000000000E+01 0.  1.
         11    1    6    6    0    0 -0.48346866746E+01 -0.24637122252E+02 -0.82953404632E+01  0.26441911079E+02  0.00000000000E+00 0. -1.
        -12    1    6    6    0    0 -0.78925250633E+01  0.30931718372E+02 -0.13522125311E+03  0.13893829726E+03  0.00000000000E+00 0.  1.
</event>
<event>
12    1  0.1598254E-001  0.2041068E+03  0.7818608E-02  0.1146400E+00
         21   -1    0    0  503  502  0.00000000000E+00  0.00000000000E+00  0.12760089897E+03  0.12760089897E+03  0.00000000000E+00 0. -1.
         21   -1    0    0  501  503 -0.00000000000E+00 -0.00000000000E+00 -0.32663635148E+03  0.32663635148E+03  0.00000000000E+00 0.  1.
          6    2    1    2  501    0 -0.10932070647E+03  0.13064908575E+02 -0.88357645782E+02  0.22205377090E+03  0.17140331065E+03 0.  0.
         24    2    3    3    0    0 -0.62023231368E+02 -0.49078509640E+02 -0.87365184764E+02  0.14381100409E+03  0.82421769281E+02 0.  0.
         -6    2    1    2    0  502  0.10932070647E+03 -0.13064908575E+02 -0.11067780673E+03  0.23218347956E+03  0.17186588545E+03 0.  0.
        -24    2    5    5    0    0  0.32772988202E+02  0.29486652378E+02 -0.11126343315E+03  0.14447588884E+03  0.80933302647E+02 0.  0.
          5    1    3    3  501    0 -0.47297475099E+02  0.62143418215E+02 -0.99246101832E+00  0.78242766804E+02  0.47000000000E+01 0. -1.
        -13    1    4    4    0    0 -0.66128804973E+02 -0.25117226915E+02 -0.94896532778E+02  0.11836066014E+03  0.00000000000E+00 0.  1.
         14    1    4    4    0    0  0.41055736044E+01 -0.23961282726E+02  0.75313480145E+01  0.25450343954E+02  0.00000000000E+00 0. -1.
         -5    1    5    5    0  502  0.76547718265E+02 -0.42551560953E+02  0.58562641982E+00  0.87707590717E+02  0.47000000000E+01 0.  1.
         11    1    6    6    0    0 -0.21717321771E+02  0.10802842063E+02 -0.68688944124E+02  0.72845826967E+02  0.00000000000E+00 0. -1.
        -12    1    6    6    0    0  0.54490309973E+02  0.18683810315E+02 -0.42574489022E+02  0.71630061876E+02  0.00000000000E+00 0.  1.
</event>
<event>
12    1  0.1598254E-001  0.1853389E+03  0.7818608E-02  0.1163196E+00
         21   -1    0    0  501  502  0.00000000000E+00  0.00000000000E+00  0.69467451733E+03  0.69467451733E+03  0.00000000000E+00 0. -1.
         21   -1    0    0  502  503 -0.00000000000E+00 -0.00000000000E+00 -0.11482803264E+03  0.11482803264E+03  0.00000000000E+00 0.  1.
         -6    2    1    2    0  503  0.64813694401E+02 -0.14638576471E+02 -0.16049574597E+02  0.18603252307E+03  0.17301851893E+03 0.  0.
        -24    2    3    3    0    0  0.10883805028E+03 -0.33106748789E+01 -0.20555191477E+02  0.14011024255E+03  0.85741952482E+02 0.  0.
          6    2    1    2  501    0 -0.64813694401E+02  0.14638576471E+02  0.59589605929E+03  0.62347002690E+03  0.17090248113E+03 0.  0.
         24    2    5    5    0    0  0.23462749837E+02  0.14120997807E+02  0.38602684725E+03  0.39574173560E+03  0.82733858167E+02 0.  0.
          5    1    5    5  501    0 -0.88276444238E+02  0.51757866318E+00  0.20986921204E+03  0.22772829130E+03  0.47000000000E+01 0. -1.
        -11    1    6    6    0    0  0.39920474485E+02  0.16137316759E+01  0.84096456333E+02  0.93104577658E+02  0.00000000000E+00 0.  1.
         12    1    6    6    0    0 -0.16457724649E+02  0.12507266132E+02  0.30193039092E+03  0.30263715794E+03  0.00000000000E+00 0. -1.
         -5    1    3    3    0  503 -0.44024355875E+02 -0.11327901592E+02  0.45056168800E+01  0.45922280520E+02  0.47000000000E+01 0.  1.
         13    1    4    4    0    0  0.22941775589E+02  0.32070228764E+02  0.12721173995E+02  0.41432510279E+02  0.00000000000E+00 0. -1.
        -14    1    4    4    0    0  0.85896274687E+02 -0.35380903643E+02 -0.33276365472E+02  0.98677732274E+02  0.00000000000E+00 0.  1.
</event>
<event>
12    1  0.1598254E-001  0.1768811E+03  0.7818608E-02  0.1170934E+00
         21   -1    0    0  501  502  0.00000000000E+00  0.00000000000E+00  0.10043153435E+04  0.10043153435E+04  0.00000000000E+00 0. -1.
         21   -1    0    0  502  503 -0.00000000000E+00 -0.00000000000E+00 -0.56086896996E+02  0.56086896996E+02  0.00000000000E+00 0. -1.
         -6    2    1    2    0  503  0.27726951650E+02  0.33850763078E+02  0.11997573009E+03  0.21347279750E+03  0.17106081214E+03 0.  0.
        -24    2    3    3    0    0  0.59946602993E+02 -0.16888187291E+02  0.11450245464E+03  0.15293690928E+03  0.80000500139E+02 0.  0.
          6    2    1    2  501    0 -0.27726951650E+02 -0.33850763078E+02  0.82825271645E+03  0.84692944304E+03  0.17138337484E+03 0.  0.
         24    2    5    5    0    0 -0.48295338108E+02  0.17762810923E+01  0.76938843726E+03  0.77496112944E+03  0.79187056359E+02 0.  0.
          5    1    5    5  501    0  0.20568386458E+02 -0.35627044171E+02  0.58864279188E+02  0.71968313598E+02  0.47000000000E+01 0. -1.
        -13    1    6    6    0    0  0.41081666873E+01 -0.26162412287E+02  0.12128839786E+03  0.12414597982E+03  0.00000000000E+00 0.  1.
         14    1    6    6    0    0 -0.52403504796E+02  0.27938693379E+02  0.64810003940E+03  0.65081514962E+03  0.00000000000E+00 0. -1.
         -5    1    3    3    0  503 -0.32219651343E+02  0.50738950370E+02  0.54732754523E+01  0.60535888210E+02  0.47000000000E+01 0.  1.
         13    1    4    4    0    0  0.20692431779E+02  0.18111765332E+02  0.63020146736E+00  0.27506543408E+02  0.00000000000E+00 0. -1.
        -14    1    4    4    0    0  0.39254171215E+02 -0.34999952623E+02  0.11387225317E+03  0.12543036588E+03  0.00000000000E+00 0.  1.
</event>
<event>
12    1  0.1598254E-001  0.1730942E+03  0.7818608E-02  0.1174871E+00
         21   -1    0    0  503  502  0.00000000000E+00  0.00000000000E+00  0.25943592655E+03  0.25943592655E+03  0.00000000000E+00 0. -1.
         21   -1    0    0  501  503 -0.00000000000E+00 -0.00000000000E+00 -0.16103774943E+03  0.16103774943E+03  0.00000000000E+00 0. -1.
          6    2    1    2  501    0  0.12023625504E+01  0.20469390516E+02 -0.63206866674E+02  0.18427349558E+03  0.17187545361E+03 0.  0.
         24    2    3    3    0    0 -0.63444668794E+00  0.30045157907E+02  0.38867417948E+02  0.81626923443E+02  0.65185615105E+02 0.  0.
         -6    2    1    2    0  502 -0.12023625504E+01 -0.20469390516E+02  0.16160504380E+03  0.23620018040E+03  0.17103769590E+03 0.  0.
        -24    2    5    5    0    0  0.51576288378E+02  0.21992122861E+02  0.11501730215E+03  0.15385290490E+03  0.85428154374E+02 0.  0.
          5    1    3    3  501    0  0.18368092384E+01 -0.95757673908E+01 -0.10207428462E+03  0.10264657213E+03  0.47000000000E+01 0. -1.
        -11    1    4    4    0    0 -0.20256846719E+02  0.32890219513E+02  0.46437644625E+02  0.60403321241E+02  0.00000000000E+00 0.  1.
         12    1    4    4    0    0  0.19622400031E+02 -0.28450616064E+01 -0.75702266768E+01  0.21223602203E+02  0.00000000000E+00 0. -1.
         -5    1    5    5    0  502 -0.52778650929E+02 -0.42461513377E+02  0.46587741644E+02  0.82347275508E+02  0.47000000000E+01 0.  1.
         11    1    6    6    0    0  0.73487282055E+01  0.47710793067E+02  0.38208693308E+02  0.61564826205E+02  0.00000000000E+00 0. -1.
        -12    1    6    6    0    0  0.44227560173E+02 -0.25718670206E+02  0.76808608843E+02  0.92288078691E+02  0.00000000000E+00 0.  1.
</event>
<event>
12    1  0.1598254E-001  0.2681415E+03  0.7818608E-02  0.1102379E+00
         21   -1    0    0  501  502  0.00000000000E+00  0.00000000000E+00  0.18776398721E+03  0.18776398721E+03  0.00000000000E+00 0.  1.
         21   -1    0    0  502  503 -0.00000000000E+00 -0.00000000000E+00 -0.43813213144E+03  0.43813213144E+03  0.00000000000E+00 0. -1.
         -6    2    1    2    0  503 -0.13147459496E+02  0.20507966113E+03 -0.23661728198E+03  0.35761373745E+03  0.17224785624E+03 0.  0.
        -24    2    3    3    0    0 -0.48343462991E+02  0.20870899694E+03 -0.22285839397E+03  0.31936027042E+03  0.80178443123E+02 0.  0.
          6    2    1    2  501    0  0.13147459496E+02 -0.20507966113E+03 -0.13750862249E+02  0.26828238119E+03  0.17191808149E+03 0.  0.
         24    2    5    5    0    0  0.13659078303E+02 -0.31450635982E+02  0.22036981640E+02  0.90940451863E+02  0.81294675727E+02 0.  0.
          5    1    5    5  501    0 -0.51161880640E+00 -0.17362902515E+03 -0.35787843889E+02  0.17734192933E+03  0.47000000000E+01 0. -1.
        -11    1    6    6    0    0 -0.31798530189E+02 -0.15088429605E+02 -0.50427230151E+01  0.35556100539E+02  0.00000000000E+00 0.  1.
         12    1    6    6    0    0  0.45457608492E+02 -0.16362206378E+02  0.27079704655E+02  0.55384351324E+02  0.00000000000E+00 0. -1.
         -5    1    3    3    0  503  0.35196003495E+02 -0.36293358112E+01 -0.13758888007E+02  0.38253467027E+02  0.47000000000E+01 0.  1.
         11    1    4    4    0    0 -0.25065076087E+02  0.37751460740E+02 -0.92879883324E+02  0.10334458647E+03  0.00000000000E+00 0. -1.
        -12    1    4    4    0    0 -0.23278386904E+02  0.17095753620E+03 -0.12997851065E+03  0.21601568395E+03  0.00000000000E+00 0.  1.
</event>
<event>
12    1  0.1598254E-001  0.2672659E+03  0.7818608E-02  0.1103566E+00
         21   -1    0    0  501  502  0.00000000000E+00  0.00000000000E+00  0.14656638880E+04  0.14656638880E+04  0.00000000000E+00 0.  1.
         21   -1    0    0  502  503 -0.00000000000E+00 -0.00000000000E+00 -0.26382671540E+03  0.26382671540E+03  0.00000000000E+00 0. -1.
         -6    2    1    2    0  503  0.15422856829E+03  0.13227410812E+03 -0.18247297619E+03  0.31961626331E+03  0.16605805544E+03 0.  0.
        -24    2    3    3    0    0  0.16295874021E+03  0.11824479960E+03 -0.10562423892E+03  0.24087075030E+03  0.79528956112E+02 0.  0.
          6    2    1    2  501    0 -0.15422856829E+03 -0.13227410812E+03  0.13843101488E+04  0.14098743400E+04  0.17363230064E+03 0.  0.
         24    2    5    5    0    0 -0.40537849729E+02 -0.49847951081E+02  0.89389681301E+03  0.89973026165E+03  0.79592059444E+02 0.  0.
          5    1    5    5  501    0 -0.11369071856E+03 -0.82426157036E+02  0.49041333574E+03  0.51014407840E+03  0.47000000000E+01 0. -1.
        -13    1    6    6    0    0 -0.44523364077E+02 -0.18735637104E+01  0.62281599293E+03  0.62440820081E+03  0.00000000000E+00 0.  1.
         14    1    6    6    0    0  0.39855143481E+01 -0.47974387370E+02  0.27108082008E+03  0.27532206084E+03  0.00000000000E+00 0. -1.
         -5    1    3    3    0  503 -0.87301719165E+01  0.14029308520E+02 -0.76848737271E+02  0.78745513011E+02  0.47000000000E+01 0.  1.
         11    1    4    4    0    0  0.49656396483E+02  0.78166099531E+02 -0.68160051980E+02  0.11498473600E+03  0.00000000000E+00 0. -1.
        -12    1    4    4    0    0  0.11330234372E+03  0.40078700064E+02 -0.37464186942E+02  0.12588601430E+03  0.00000000000E+00 0.  1.
</event>
<event>
12    1  0.1598254E-001  0.1845376E+03  0.7818608E-02  0.1163651E+00
         21   -1    0    0  503  502  0.00000000000E+00  0.00000000000E+00  0.20209582027E+03  0.20209582027E+03  0.00000000000E+00 0.  1.
         21   -1    0    0  501  503 -0.00000000000E+00 -0.00000000000E+00 -0.18534734683E+03  0.18534734683E+03  0.00000000000E+00 0.  1.
          6    2    1    2  501    0 -0.20531178138E+02  0.65565990935E+02 -0.51131067676E+02  0.19149020879E+03  0.17127079592E+03 0.  0.
         24    2    3    3    0    0 -0.27008926922E+02 -0.19088586362E+01  0.26235309590E+02  0.88521947242E+02  0.80091933423E+02 0.  0.
         -6    2    1    2    0  502  0.20531178138E+02 -0.65565990935E+02  0.67879541117E+02  0.19595295831E+03  0.17049780446E+03 0.  0.
        -24    2    5    5    0    0  0.31365722123E+01 -0.36054175154E+02  0.10947126995E+03  0.14186523795E+03  0.82656186472E+02 0.  0.
          5    1    3    3  501    0  0.64777487839E+01  0.67474849571E+02 -0.77366377266E+02  0.10296826154E+03  0.47000000000E+01 0. -1.
        -13    1    4    4    0    0 -0.45006459710E+02  0.69345674659E+01 -0.10443175075E+02  0.46719691215E+02  0.00000000000E+00 0.  1.
         14    1    4    4    0    0  0.17997532788E+02 -0.88434261021E+01  0.36678484665E+02  0.41802256027E+02  0.00000000000E+00 0. -1.
         -5    1    5    5    0  502  0.17394605926E+02 -0.29511815780E+02 -0.41591728836E+02  0.54087720359E+02  0.47000000000E+01 0.  1.
         11    1    6    6    0    0 -0.25731426338E+02 -0.76337228160E+01  0.18863278279E+01  0.26906100760E+02  0.00000000000E+00 0. -1.
        -12    1    6    6    0    0  0.28867998550E+02 -0.28420452339E+02  0.10758494213E+03  0.11495913719E+03  0.00000000000E+00 0.  1.
</event>
<event>
12    1  0.1598254E-001  0.2094732E+03  0.7818608E-02  0.1142146E+00
         21   -1    0    0  503  502  0.00000000000E+00  0.00000000000E+00  0.13562230000E+03  0.13562230000E+03  0.00000000000E+00 0.  1.
         21   -1    0    0  501  503 -0.00000000000E+00 -0.00000000000E+00 -0.40203348480E+03  0.40203348480E+03  0.00000000000E+00 0. -1.
          6    2    1    2  501    0 -0.11417880410E+03 -0.30707189199E+02 -0.25273153604E+03  0.32773635398E+03  0.17192486043E+03 0.  0.
         24    2    3    3    0    0 -0.94232578327E+02 -0.70381700664E+02 -0.24317974900E+03  0.28207186648E+03  0.81208281158E+02 0.  0.
         -6    2    1    2    0  502  0.11417880410E+03  0.30707189199E+02 -0.13679648758E+02  0.20991943082E+03  0.17291415174E+03 0.  0.
        -24    2    5    5    0    0  0.11003546641E+03 -0.35668941904E+02 -0.19091913344E+02  0.14302891852E+03  0.81931026443E+02 0.  0.
          5    1    3    3  501    0 -0.19946225771E+02  0.39674511465E+02 -0.95517870371E+01  0.45664487494E+02  0.47000000000E+01 0. -1.
        -11    1    4    4    0    0 -0.58074404108E+01 -0.48661122696E+02 -0.11339960876E+03  0.12353583485E+03  0.00000000000E+00 0.  1.
         12    1    4    4    0    0 -0.88425137916E+02 -0.21720577968E+02 -0.12978014025E+03  0.15853603163E+03  0.00000000000E+00 0. -1.
         -5    1    5    5    0  502  0.41433376924E+01  0.66376131103E+02  0.54122645854E+01  0.66890512297E+02  0.47000000000E+01 0.  1.
         13    1    6    6    0    0  0.14408518853E+01  0.19465279699E+02 -0.65848265088E+01  0.20599347273E+02  0.00000000000E+00 0. -1.
        -14    1    6    6    0    0  0.10859461452E+03 -0.55134221602E+02 -0.12507086835E+02  0.12242957125E+03  0.00000000000E+00 0.  1.
</event>
<event>
12    1  0.1598254E-001  0.2126840E+03  0.7818608E-02  0.1139574E+00
         21   -1    0    0  501  502  0.00000000000E+00  0.00000000000E+00  0.66703171633E+02  0.66703171633E+02  0.00000000000E+00 0. -1.
         21   -1    0    0  502  503 -0.00000000000E+00 -0.00000000000E+00 -0.11807846638E+04  0.11807846638E+04  0.00000000000E+00 0.  1.
         -6    2    1    2    0  503 -0.14540097246E+02  0.12435992439E+03 -0.96520809819E+03  0.98836285876E+03  0.17192342058E+03 0.  0.
        -24    2    3    3    0    0 -0.11689812031E+01  0.30779138758E+02 -0.72855846966E+03  0.73348781709E+03  0.79108862995E+02 0.  0.
          6    2    1    2  501    0  0.14540097246E+02 -0.12435992439E+03 -0.14887339402E+03  0.25912497672E+03  0.17118896252E+03 0.  0.
         24    2    5    5    0    0  0.62948040271E+01  0.67372101490E+01 -0.61623057826E+02  0.10136200669E+03  0.79948987404E+02 0.  0.
          5    1    5    5  501    0  0.82452932192E+01 -0.13109713454E+03 -0.87250336195E+02  0.15776297002E+03  0.47000000000E+01 0. -1.
        -11    1    6    6    0    0  0.62403370319E+01 -0.30936055272E+02 -0.54563478218E+02  0.63032963419E+02  0.00000000000E+00 0.  1.
         12    1    6    6    0    0  0.54466995201E-01  0.37673265421E+02 -0.70595796078E+01  0.38329043275E+02  0.00000000000E+00 0. -1.
         -5    1    3    3    0  503 -0.13371116043E+02  0.93580785631E+02 -0.23664962853E+03  0.25487504167E+03  0.47000000000E+01 0.  1.
         13    1    4    4    0    0 -0.20208126309E+02 -0.18965690546E+02 -0.15470700316E+03  0.15716972550E+03  0.00000000000E+00 0. -1.
        -14    1    4    4    0    0  0.19039145106E+02  0.49744829304E+02 -0.57385146650E+03  0.57631809159E+03  0.00000000000E+00 0.  1.
</event>
<event>
12    1  0.1598254E-001  0.2229965E+03  0.7818608E-02  0.1132132E+00
         21   -1    0    0  501  502  0.00000000000E+00  0.00000000000E+00  0.32297495764E+03  0.32297495764E+03  0.00000000000E+00 0.  1.
         21   -1    0    0  502  503 -0.00000000000E+00 -0.00000000000E+00 -0.15420365410E+03  0.15420365410E+03  0.00000000000E+00 0.  1.
         -6    2    1    2    0  503  0.74864435158E+02 -0.11613892857E+03  0.11086061930E+03  0.24678532497E+03  0.17181381006E+03 0.  0.
        -24    2    3    3    0    0 -0.22596124939E+02 -0.75134054793E+02  0.38080267983E+02  0.11833677502E+03  0.79986089163E+02 0.  0.
          6    2    1    2  501    0 -0.74864435158E+02  0.11613892857E+03  0.57910684243E+02  0.23039328677E+03  0.17502709750E+03 0.  0.
         24    2    5    5    0    0 -0.16834455709E+02  0.12172920088E+03  0.81562559942E+02  0.16730421574E+03  0.78973743567E+02 0.  0.
          5    1    5    5  501    0 -0.58029979449E+02 -0.55902723149E+01 -0.23651875698E+02  0.63089071030E+02  0.47000000000E+01 0. -1.
        -13    1    6    6    0    0  0.10360285014E+01  0.61055117518E+02 -0.36608017688E+01  0.61173541665E+02  0.00000000000E+00 0.  1.
         14    1    6    6    0    0 -0.17870484210E+02  0.60674083365E+02  0.85223361710E+02  0.10613067407E+03  0.00000000000E+00 0. -1.
         -5    1    3    3    0  503  0.97460560097E+02 -0.41004873775E+02  0.72780351317E+02  0.12844854995E+03  0.47000000000E+01 0.  1.
         11    1    4    4    0    0 -0.24221891002E+01  0.11504720422E+01  0.39328577559E+02  0.39419888366E+02  0.00000000000E+00 0. -1.
        -12    1    4    4    0    0 -0.20173935839E+02 -0.76284526836E+02 -0.12483095759E+01  0.78916886650E+02  0.00000000000E+00 0.  1.
</event>
<event>
12    1  0.1598254E-001  0.2084573E+03  0.7818608E-02  0.1142867E+00
         21   -1    0    0  503  502  0.00000000000E+00  0.00000000000E+00  0.49422155932E+03  0.49422155932E+03  0.00000000000E+00 0. -1.
         21   -1    0    0  501  503 -0.00000000000E+00 -0.00000000000E+00 -0.16623217200E+03  0.16623217200E+03  0.00000000000E+00 0.  1.
          6    2    1    2  501    0  0.10560539818E+03  0.51377178824E+02 -0.62954808542E+02  0.21740542169E+03  0.17178386081E+03 0.  0.
         24    2    3    3    0    0  0.79270611657E+02  0.96887064851E+02 -0.21430893082E+02  0.15024147107E+03  0.80263835219E+02 0.  0.
         -6    2    1    2    0  502 -0.10560539818E+03 -0.51377178824E+02  0.39094419586E+03  0.44304830963E+03  0.17222754067E+03 0.  0.
        -24    2    5    5    0    0 -0.38544641914E+02 -0.59121502407E+02  0.34509079935E+03  0.36130637700E+03  0.80458665166E+02 0.  0.
          5    1    3    3  501    0  0.26334786523E+02 -0.45509886027E+02 -0.41523915460E+02  0.67163950617E+02  0.47000000000E+01 0. -1.
        -13    1    4    4    0    0  0.75213091553E+02  0.77643857514E+02 -0.47091213296E+02  0.11791166236E+03  0.00000000000E+00 0.  1.
         14    1    4    4    0    0  0.40575201041E+01  0.19243207337E+02  0.25660320214E+02  0.32329808714E+02  0.00000000000E+00 0. -1.
         -5    1    5    5    0  502 -0.67060756266E+02  0.77443235825E+01  0.45853396509E+02  0.81741932630E+02  0.47000000000E+01 0.  1.
         11    1    6    6    0    0 -0.22498917521E+02 -0.11787593826E+01  0.23319491599E+03  0.23428072820E+03  0.00000000000E+00 0. -1.
        -12    1    6    6    0    0 -0.16045724393E+02 -0.57942743024E+02  0.11189588336E+03  0.12702564880E+03  0.00000000000E+00 0.  1.
</event>
<event>
12    1  0.1598254E-001  0.1944351E+03  0.7818608E-02  0.1154759E+00
         21   -1    0    0  503  502  0.00000000000E+00  0.00000000000E+00  0.19301852919E+03  0.19301852919E+03  0.00000000000E+00 0. -1.
         21   -1    0    0  501  503 -0.00000000000E+00 -0.00000000000E+00 -0.27556825483E+03  0.27556825483E+03  0.00000000000E+00 0.  1.
          6    2    1    2  501    0  0.77587127548E+02 -0.41963827760E+02 -0.16805915905E+03  0.25617943167E+03  0.17205608118E+03 0.  0.
         24    2    3    3    0    0  0.84716690831E+01  0.35869019727E+02 -0.83569948321E+02  0.12203243962E+03  0.80929749197E+02 0.  0.
         -6    2    1    2    0  502 -0.77587127548E+02  0.41963827760E+02  0.85509433409E+02  0.21240735235E+03  0.17327519998E+03 0.  0.
        -24    2    5    5    0    0 -0.53917115278E+02 -0.16129818678E+01 -0.17574194584E+02  0.97919221180E+02  0.79810178116E+02 0.  0.
          5    1    3    3  501    0  0.69115458465E+02 -0.77832847487E+02 -0.84489210728E+02  0.13414699205E+03  0.47000000000E+01 0. -1.
        -11    1    4    4    0    0  0.33154185679E+02  0.40067377705E+02 -0.81801050341E+02  0.96933000681E+02  0.00000000000E+00 0.  1.
         12    1    4    4    0    0 -0.24682516596E+02 -0.41983579778E+01 -0.17688979800E+01  0.25099438943E+02  0.00000000000E+00 0. -1.
         -5    1    5    5    0  502 -0.23670012270E+02  0.43576809628E+02  0.10308362799E+03  0.11448813117E+03  0.47000000000E+01 0.  1.
         11    1    6    6    0    0 -0.53649816627E+02 -0.16455953516E+02  0.18356181472E+02  0.59042786422E+02  0.00000000000E+00 0. -1.
        -12    1    6    6    0    0 -0.26729865045E+00  0.14842971648E+02 -0.35930376057E+02  0.38876434758E+02  0.00000000000E+00 0.  1.
</event>
<event>
12    1  0.1598254E-001  0.2128265E+03  0.7818608E-02  0.1139619E+00
         21   -1    0    0  503  502  0.00000000000E+00  0.00000000000E+00  0.17314433611E+04  0.17314433611E+04  0.00000000000E+00 0.  1.
         21   -1    0    0  501  503 -0.00000000000E+00 -0.00000000000E+00 -0.26698234710E+02  0.26698234710E+02  0.00000000000E+00 0.  1.
          6    2    1    2  501    0 -0.12427831113E+03  0.15822978072E+01  0.71186892256E+03  0.74300233301E+03  0.17276429509E+03 0.  0.
         24    2    3    3    0    0 -0.77611923108E+02  0.39181965590E+02  0.63267794352E+03  0.64358006211E+03  0.79718749945E+02 0.  0.
         -6    2    1    2    0  502  0.12427831113E+03 -0.15822978072E+01  0.99287620381E+03  0.10151392628E+04  0.17104667338E+03 0.  0.
        -24    2    5    5    0    0  0.40283441592E+02  0.31317027962E+02  0.24918649047E+03  0.26598374925E+03  0.77781334021E+02 0.  0.
          5    1    3    3  501    0 -0.46666388021E+02 -0.37599667782E+02  0.79190979039E+02  0.99422270893E+02  0.47000000000E+01 0. -1.
        -13    1    4    4    0    0 -0.86027067805E+02  0.15812314298E+02  0.39286789629E+03  0.40248710490E+03  0.00000000000E+00 0.  1.
         14    1    4    4    0    0  0.84151446977E+01  0.23369651292E+02  0.23981004724E+03  0.24109295721E+03  0.00000000000E+00 0. -1.
         -5    1    5    5    0  502  0.83994869537E+02 -0.32899325769E+02  0.74368971334E+03  0.74915551354E+03  0.47000000000E+01 0.  1.
         13    1    6    6    0    0  0.59646071586E+02  0.24937370991E+02  0.13136317021E+03  0.14640972924E+03  0.00000000000E+00 0. -1.
        -14    1    6    6    0    0 -0.19362629995E+02  0.63796569705E+01  0.11782332027E+03  0.11957402001E+03  0.00000000000E+00 0.  1.
</event>
<event>
12    1  0.1598254E-001  0.2371857E+03  0.7818608E-02  0.1121738E+00
         21   -1    0    0  503  502  0.00000000000E+00  0.00000000000E+00  0.39575609879E+03  0.39575609879E+03  0.00000000000E+00 0.  1.
         21   -1    0    0  501  503 -0.00000000000E+00 -0.00000000000E+00 -0.16773133810E+03  0.16773133810E+03  0.00000000000E+00 0. -1.
          6    2    1    2  501    0  0.48704658283E+02  0.15554971759E+03  0.36235192698E+01  0.23721333453E+03  0.17230547817E+03 0.  0.
         24    2    3    3    0    0  0.99132324711E+02  0.10994809510E+03 -0.12930679285E+01  0.16888529969E+03  0.81269742273E+02 0.  0.
         -6    2    1    2    0  502 -0.48704658283E+02 -0.15554971759E+03  0.22440124143E+03  0.32627410235E+03  0.17184590287E+03 0.  0.
        -24    2    5    5    0    0 -0.57171683978E+02 -0.69278217035E+02  0.46908842239E+02  0.12868841436E+03  0.79323361660E+02 0.  0.
          5    1    3    3  501    0 -0.50427666427E+02  0.45601622496E+02  0.49165871982E+01  0.68328034841E+02  0.47000000000E+01 0. -1.
        -13    1    4    4    0    0  0.44756762586E+02  0.10374687515E+03  0.84177010409E+01  0.11330242536E+03  0.00000000000E+00 0.  1.
         14    1    4    4    0    0  0.54375562125E+02  0.62012199442E+01 -0.97107689694E+01  0.55582874334E+02  0.00000000000E+00 0. -1.
         -5    1    5    5    0  502  0.84670256948E+01 -0.86271500557E+02  0.17749239919E+03  0.19758568800E+03  0.47000000000E+01 0.  1.
         11    1    6    6    0    0 -0.22128715753E+02 -0.31666323388E+02 -0.20642424814E+02  0.43801207746E+02  0.00000000000E+00 0. -1.
        -12    1    6    6    0    0 -0.35042968225E+02 -0.37611893647E+02  0.67551267053E+02  0.84887206611E+02  0.00000000000E+00 0.  1.
</event>
<event>
12    1  0.1598254E-001  0.1736448E+03  0.7818608E-02  0.1174561E+00
         21   -1    0    0  501  502  0.00000000000E+00  0.00000000000E+00  0.65680037434E+02  0.65680037434E+02  0.00000000000E+00 0. -1.
         21   -1    0    0  502  503 -0.00000000000E+00 -0.00000000000E+00 -0.66042424322E+03  0.66042424322E+03  0.00000000000E+00 0. -1.
         -6    2    1    2    0  503  0.12717700034E+02  0.52573707030E+01 -0.50126223693E+03  0.53048688465E+03  0.17309859840E+03 0.  0.
        -24    2    3    3    0    0  0.14521090510E+02  0.68673619883E+02 -0.36690144941E+03  0.38182692333E+03  0.79045541666E+02 0.  0.
          6    2    1    2  501    0 -0.12717700034E+02 -0.52573707030E+01 -0.93481968850E+02  0.19561739600E+03  0.17128312024E+03 0.  0.
         24    2    5    5    0    0 -0.44153641271E+02 -0.42798180908E+02 -0.14890971664E+02  0.10290188667E+03  0.81153120190E+02 0.  0.
          5    1    5    5  501    0  0.31435941237E+02  0.37540810204E+02 -0.78590997186E+02  0.92715509334E+02  0.47000000000E+01 0. -1.
        -11    1    6    6    0    0  0.66005061612E-01 -0.33973168769E+02 -0.39038765473E+02  0.51751384161E+02  0.00000000000E+00 0.  1.
         12    1    6    6    0    0 -0.44219646333E+02 -0.88250121382E+01  0.24147793809E+02  0.51150502509E+02  0.00000000000E+00 0. -1.
         -5    1    3    3    0  503 -0.18033904761E+01 -0.63416249180E+02 -0.13436078752E+03  0.14865996132E+03  0.47000000000E+01 0.  1.
         13    1    4    4    0    0 -0.24492016462E+01 -0.12090512164E+02 -0.13713495055E+03  0.13768868412E+03  0.00000000000E+00 0. -1.
        -14    1    4    4    0    0  0.16970292157E+02  0.80764132047E+02 -0.22976649887E+03  0.24413823921E+03  0.00000000000E+00 0.  1.
</event>
<event>
12    1  0.1598254E-001  0.1838192E+03  0.7818608E-02  0.1166359E+00
         21   -1    0    0  501  502  0.00000000000E+00  0.00000000000E+00  0.33948576970E+02  0.33948576970E+02  0.00000000000E+00 0.  1.
         21   -1    0    0  502  503 -0.00000000000E+00 -0.00000000000E+00 -0.13495275731E+04  0.13495275731E+04  0.00000000000E+00 0.  1.
         -6    2    1    2    0  503  0.48850400887E+02 -0.40136118217E+01 -0.10239466304E+04  0.10387458916E+04  0.16770168385E+03 0.  0.
        -24    2    3    3    0    0 -0.74095486720E+01 -0.54888870975E+02 -0.63789507144E+03  0.64528513110E+03  0.80094248740E+02 0.  0.
          6    2    1    2  501    0 -0.48850400887E+02  0.40136118217E+01 -0.29163236576E+03  0.34473025845E+03  0.17716388905E+03 0.  0.
         24    2    5    5    0    0 -0.38723428157E+02  0.45390119261E+02 -0.28417913865E+03  0.30123070053E+03  0.80139785925E+02 0.  0.
          5    1    5    5  501    0 -0.10126972730E+02 -0.41376507440E+02 -0.74532271181E+01  0.43499557918E+02  0.47000000000E+01 0. -1.
        -11    1    6    6    0    0  0.74344322601E+01  0.75742518594E+01 -0.18626410128E+03  0.18656622282E+03  0.00000000000E+00 0.  1.
         12    1    6    6    0    0 -0.46157860417E+02  0.37815867402E+02 -0.97915037370E+02  0.11466447771E+03  0.00000000000E+00 0. -1.
         -5    1    3    3    0  503  0.56259949559E+02  0.50875259153E+02 -0.38605155894E+03  0.39346076053E+03  0.47000000000E+01 0.  1.
         13    1    4    4    0    0 -0.13810973675E+02 -0.23036379789E+01 -0.44579705441E+03  0.44601688697E+03  0.00000000000E+00 0. -1.
        -14    1    4    4    0    0  0.64014250026E+01 -0.52585232996E+02 -0.19209801703E+03  0.19926824413E+03  0.00000000000E+00 0.  1.
</event>
<event>
12    1  0.1598254E-001  0.2215904E+03  0.7818608E-02  0.1132854E+00
         21   -1    0    0  503  502  0.00000000000E+00  0.00000000000E+00  0.45353256609E+03  0.45353256609E+03  0.00000000000E+00 0.  1.
         21   -1    0    0  501  503 -0.00000000000E+00 -0.00000000000E+00 -0.41618536150E+03  0.41618536150E+03  0.00000000000E+00 0.  1.
          6    2    1    2  501    0  0.81848145408E+02  0.11261477494E+03 -0.35560450520E+03  0.41899508506E+03  0.17239811700E+03 0.  0.
         24    2    3    3    0    0  0.92294623667E+02  0.41202406123E+02 -0.30411859862E+03  0.33021589885E+03  0.79614584069E+02 0.  0.
         -6    2    1    2    0  502 -0.81848145408E+02 -0.11261477494E+03  0.39295170979E+03  0.45072284252E+03  0.17134418023E+03 0.  0.
        -24    2    5    5    0    0 -0.25398954233E+02 -0.11379051930E+03  0.17252672388E+03  0.22313295264E+03  0.80183882079E+02 0.  0.
          5    1    3    3  501    0 -0.10446478259E+02  0.71412368822E+02 -0.51485906579E+02  0.88779186215E+02  0.47000000000E+01 0. -1.
        -13    1    4    4    0    0  0.48852108759E+02  0.59054358307E+02 -0.23034071127E+03  0.24275664571E+03  0.00000000000E+00 0.  1.
         14    1    4    4    0    0  0.43442514908E+02 -0.17851952185E+02 -0.73777887346E+02  0.87459253139E+02  0.00000000000E+00 0. -1.
         -5    1    5    5    0  502 -0.56449191174E+02  0.11757443534E+01  0.22042498592E+03  0.22758988988E+03  0.47000000000E+01 0.  1.
         13    1    6    6    0    0  0.77494229311E+01 -0.67979779486E+02  0.40503612026E+02  0.79510040636E+02  0.00000000000E+00 0. -1.
        -14    1    6    6    0    0 -0.33148377164E+02 -0.45810739812E+02  0.13202311185E+03  0.14362291201E+03  0.00000000000E+00 0.  1.
</event>
<event>
12    1  0.1598254E-001  0.2498255E+03  0.7818608E-02  0.1113489E+00
         21   -1    0    0  503  502  0.00000000000E+00  0.00000000000E+00  0.24442306155E+04  0.24442306155E+04  0.00000000000E+00 0.  1.
         21   -1    0    0  501  503 -0.00000000000E+00 -0.00000000000E+00 -0.48572291600E+02  0.48572291600E+02  0.00000000000E+00 0. -1.
          6    2    1    2  501    0  0.36490149578E+02  0.17735167650E+03  0.20576930932E+04  0.20728033344E+04  0.17212684025E+03 0.  0.
         24    2    3    3    0    0  0.39682859527E+02  0.12988923916E+03  0.19343945843E+04  0.19405630657E+04  0.73869213002E+02 0.  0.
         -6    2    1    2    0  502 -0.36490149578E+02 -0.17735167650E+03  0.33796523074E+03  0.41999957274E+03  0.17144677232E+03 0.  0.
        -24    2    5    5    0    0  0.40454900535E+01 -0.18917682712E+03  0.29638425456E+03  0.36055178180E+03  0.79685149800E+02 0.  0.
          5    1    3    3  501    0 -0.31927099497E+01  0.47462437332E+02  0.12329850893E+03  0.13224026867E+03  0.47000000000E+01 0. -1.
        -11    1    4    4    0    0 -0.17424720925E+02  0.68759434815E+02  0.87331237104E+03  0.87618832347E+03  0.00000000000E+00 0.  1.
         12    1    4    4    0    0  0.57107580452E+02  0.61129804349E+02  0.10610822132E+04  0.10643747423E+04  0.00000000000E+00 0. -1.
         -5    1    5    5    0  502 -0.40535639631E+02  0.11825150621E+02  0.41580976183E+02  0.59447790942E+02  0.47000000000E+01 0.  1.
         13    1    6    6    0    0  0.85631778810E+01 -0.37346965957E+02  0.15711110748E+02  0.41412110337E+02  0.00000000000E+00 0. -1.
        -14    1    6    6    0    0 -0.45176878275E+01 -0.15182986116E+03  0.28067314381E+03  0.31913967146E+03  0.00000000000E+00 0.  1.
</event>
<event>
12    1  0.1598254E-001  0.1762123E+03  0.7818608E-02  0.1172186E+00
         21   -1    0    0  501  502  0.00000000000E+00  0.00000000000E+00  0.19374831775E+03  0.19374831775E+03  0.00000000000E+00 0. -1.
         21   -1    0    0  502  503 -0.00000000000E+00 -0.00000000000E+00 -0.21505457184E+03  0.21505457184E+03  0.00000000000E+00 0. -1.
         -6    2    1    2    0  503  0.85952696961E+01 -0.32509062530E+02 -0.11600526421E+03  0.20875622463E+03  0.17026808917E+03 0.  0.
        -24    2    3    3    0    0  0.39160032148E+01 -0.23851127881E+02  0.77089349842E+01  0.84562229403E+02  0.80666793543E+02 0.  0.
          6    2    1    2  501    0 -0.85952696961E+01  0.32509062530E+02  0.94699010119E+02  0.20004666497E+03  0.17297412477E+03 0.  0.
         24    2    5    5    0    0  0.40104335351E+02  0.25742357459E+02  0.19834850173E+01  0.94995732443E+02  0.82153687002E+02 0.  0.
          5    1    5    5  501    0 -0.48699605047E+02  0.67667050703E+01  0.92715525101E+02  0.10505093252E+03  0.47000000000E+01 0. -1.
        -11    1    6    6    0    0 -0.24446066922E+02 -0.22775242352E+01 -0.88375604203E+00  0.24567831189E+02  0.00000000000E+00 0.  1.
         12    1    6    6    0    0  0.64550402273E+02  0.28019881694E+02  0.28672410593E+01  0.70427901254E+02  0.00000000000E+00 0. -1.
         -5    1    3    3    0  503  0.46792664814E+01 -0.86579346489E+01 -0.12371419920E+03  0.12419399522E+03  0.47000000000E+01 0.  1.
         11    1    4    4    0    0 -0.21346243916E+01  0.10439448266E+01 -0.34826266740E+02  0.34907238463E+02  0.00000000000E+00 0. -1.
        -12    1    4    4    0    0  0.60506276064E+01 -0.24895072707E+02  0.42535201724E+02  0.49654990940E+02  0.00000000000E+00 0.  1.
</event>
<event>
12    1  0.1598254E-001  0.2490887E+03  0.7818608E-02  0.1114370E+00
         21   -1    0    0  503  502  0.00000000000E+00  0.00000000000E+00  0.32294104704E+03  0.32294104704E+03  0.00000000000E+00 0. -1.
         21   -1    0    0  501  503 -0.00000000000E+00 -0.00000000000E+00 -0.19546293829E+03  0.19546293829E+03  0.00000000000E+00 0.  1.
          6    2    1    2  501    0  0.75127718619E+02  0.16068193997E+03  0.10755495914E+03  0.26851974297E+03  0.17050490664E+03 0.  0.
         24    2    3    3    0    0  0.49564817722E+02  0.43280114832E+02 -0.49572352636E+01  0.10384511123E+03  0.80183498606E+02 0.  0.
         -6    2    1    2    0  502 -0.75127718619E+02 -0.16068193997E+03  0.19923149608E+02  0.24988424236E+03  0.17487807967E+03 0.  0.
        -24    2    5    5    0    0 -0.62710315686E+02 -0.17749858536E+03 -0.18958739837E+02  0.20548961673E+03  0.80176163973E+02 0.  0.
          5    1    3    3  501    0  0.25562900897E+02  0.11740182514E+03  0.11251219441E+03  0.16467463174E+03  0.47000000000E+01 0. -1.
        -11    1    4    4    0    0  0.62285853843E+02  0.14157412392E+02  0.15910663540E+02  0.65826355883E+02  0.00000000000E+00 0.  1.
         12    1    4    4    0    0 -0.12721036121E+02  0.29122702441E+02 -0.20867898804E+02  0.38018755344E+02  0.00000000000E+00 0. -1.
         -5    1    5    5    0  502 -0.12417402933E+02  0.16816645388E+02  0.38881889445E+02  0.44394625626E+02  0.47000000000E+01 0.  1.
         13    1    6    6    0    0 -0.22417650198E+02 -0.10646695742E+03  0.26560232363E+02  0.11199647319E+03  0.00000000000E+00 0. -1.
        -14    1    6    6    0    0 -0.40292665488E+02 -0.71031627942E+02 -0.45518972199E+02  0.93493143547E+02  0.00000000000E+00 0.  1.
</event>
<event>
12    1  0.1598254E-001  0.1877492E+03  0.7818608E-02  0.1160515E+00
         21   -1    0    0  503  502  0.00000000000E+00  0.00000000000E+00  0.18967424063E+03  0.18967424063E+03  0.00000000000E+00 0.  1.
         21   -1    0    0  501  503 -0.00000000000E+00 -0.00000000000E+00 -0.35509456649E+03  0.35509456649E+03  0.00000000000E+00 0.  1.
          6    2    1    2  501    0 -0.75453251646E+02  0.11287563264E+02 -0.27078471537E+03  0.32950585992E+03  0.17154925642E+03 0.  0.
         24    2    3    3    0    0 -0.83905175596E+02  0.35649846611E+02 -0.27724911424E+03  0.30250892822E+03  0.79583856723E+02 0.  0.
         -6    2    1    2    0  502  0.75453251646E+02 -0.11287563264E+02  0.10536438952E+03  0.21526294720E+03  0.17151058157E+03 0.  0.
        -24    2    5    5    0    0 -0.10037231695E+02 -0.35587158606E+02  0.15151433807E+02  0.88536626123E+02  0.79006179132E+02 0.  0.
          5    1    3    3  501    0  0.84519239501E+01 -0.24362283347E+02  0.64643988740E+01  0.26996931699E+02  0.47000000000E+01 0. -1.
        -11    1    4    4    0    0 -0.32572942630E+02  0.26354815211E+02 -0.22429505998E+03  0.22817503547E+03  0.00000000000E+00 0.  1.
         12    1    4    4    0    0 -0.51332232966E+02  0.92950314003E+01 -0.52954054259E+02  0.74333892758E+02  0.00000000000E+00 0. -1.
         -5    1    5    5    0  502  0.85490483341E+02  0.24299595342E+02  0.90212955709E+02  0.12672632108E+03  0.47000000000E+01 0.  1.
         13    1    6    6    0    0 -0.42434123346E+02 -0.10762008148E+02 -0.29733541924E+01  0.43878428398E+02  0.00000000000E+00 0. -1.
        -14    1    6    6    0    0  0.32396891651E+02 -0.24825150459E+02  0.18124788000E+02  0.44658197724E+02  0.00000000000E+00 0.  1.
</event>
<event>
12    1  0.1598254E-001  0.1709228E+03  0.7818608E-02  0.1177728E+00
         21   -1    0    0  501  502  0.00000000000E+00  0.00000000000E+00  0.18929762467E+03  0.18929762467E+03  0.00000000000E+00 0.  1.
         21   -1    0    0  502  503 -0.00000000000E+00 -0.00000000000E+00 -0.24743867298E+03  0.24743867298E+03  0.00000000000E+00 0.  1.
         -6    2    1    2    0  503 -0.10250018095E+01 -0.36150422521E+01 -0.16524476815E+03  0.23774029473E+03  0.17088152380E+03 0.  0.
        -24    2    3    3    0    0  0.25048569018E+02  0.55432208083E+02 -0.71773833403E+02  0.12405074151E+03  0.80851362424E+02 0.  0.
          6    2    1    2  501    0  0.10250018095E+01  0.36150422521E+01  0.10710371984E+03  0.19899600293E+03  0.16767254760E+03 0.  0.
         24    2    5    5    0    0  0.59663271313E+02  0.24646802698E+02  0.77893078846E+02  0.13003127901E+03  0.81692294389E+02 0.  0.
          5    1    5    5  501    0 -0.58638269503E+02 -0.21031760446E+02  0.29210640992E+02  0.68964723917E+02  0.47000000000E+01 0. -1.
        -13    1    6    6    0    0 -0.68393071324E+00  0.25416582795E+02  0.62900255621E+02  0.67844768401E+02  0.00000000000E+00 0.  1.
         14    1    6    6    0    0  0.60347202026E+02 -0.76978009725E+00  0.14992823225E+02  0.62186510611E+02  0.00000000000E+00 0. -1.
         -5    1    3    3    0  503 -0.26073570827E+02 -0.59047250335E+02 -0.93470934746E+02  0.11368955321E+03  0.47000000000E+01 0.  1.
         13    1    4    4    0    0  0.29874993517E+01 -0.14932165409E+02  0.64593152510E+01  0.16541386571E+02  0.00000000000E+00 0. -1.
        -14    1    4    4    0    0  0.22061069666E+02  0.70364373492E+02 -0.78233148654E+02  0.10750935494E+03  0.00000000000E+00 0.  1.
</event>
<event>
12    1  0.1598254E-001  0.2287130E+03  0.7818608E-02  0.1127561E+00
         21   -1    0    0  501  502  0.00000000000E+00  0.00000000000E+00  0.14527406286E+03  0.14527406286E+03  0.00000000000E+00 0. -1.
         21   -1    0    0  502  503 -0.00000000000E+00 -0.00000000000E+00 -0.40612302872E+03  0.40612302872E+03  0.00000000000E+00 0.  1.
         -6    2    1    2    0  503 -0.96728943268E+02 -0.11682795741E+03 -0.37465015278E+02  0.23169409066E+03  0.17109431370E+03 0.  0.
        -24    2    3    3    0    0  0.15422187750E+02  0.22851361480E+01  0.20041189913E+02  0.58215392022E+02  0.52386227702E+02 0.  0.
          6    2    1    2  501    0  0.96728943268E+02  0.11682795741E+03 -0.22338395059E+03  0.31970300092E+03  0.17118516091E+03 0.  0.
         24    2    5    5    0    0  0.54714297018E+02  0.32759346188E+02 -0.34788069456E+02  0.10893474365E+03  0.81177210692E+02 0.  0.
          5    1    5    5  501    0  0.42014646249E+02  0.84068611225E+02 -0.18859588113E+03  0.21076825727E+03  0.47000000000E+01 0. -1.
        -11    1    6    6    0    0 -0.28552737966E+01 -0.19970403211E+02  0.57388415598E+01  0.20973886033E+02  0.00000000000E+00 0.  1.
         12    1    6    6    0    0  0.57569570815E+02  0.52729749399E+02 -0.40526911016E+02  0.87960857613E+02  0.00000000000E+00 0. -1.
         -5    1    3    3    0  503 -0.11215113102E+03 -0.11911309356E+03 -0.57506205192E+02  0.17347869864E+03  0.47000000000E+01 0.  1.
         11    1    4    4    0    0  0.31401765145E+02 -0.11607607240E+02  0.12623231683E+02  0.35779231101E+02  0.00000000000E+00 0. -1.
        -12    1    4    4    0    0 -0.15979577395E+02  0.13892743388E+02  0.74179582306E+01  0.22436160921E+02  0.00000000000E+00 0.  1.
</event>
<event>
12    1  0.1598254E-001  0.2134198E+03  0.7818608E-02  0.1140091E+00
         21   -1    0    0  501  502  0.00000000000E+00  0.00000000000E+00  0.35802338210E+03  0.35802338210E+03  0.00000000000E+00 0.  1.
         21   -1    0    0  502  503 -0.00000000000E+00 -0.00000000000E+00 -0.13412067918E+03  0.13412067918E+03  0.00000000000E+00 0.  1.
         -6    2    1    2    0  503  0.94565418561E+02 -0.67628339790E+02  0.41537155631E+02  0.21142141328E+03  0.17163178018E+03 0.  0.
        -24    2    3    3    0    0  0.19288227481E+02  0.23321762200E+02  0.33089514168E+01  0.87235817717E+02  0.81750831322E+02 0.  0.
          6    2    1    2  501    0 -0.94565418561E+02  0.67628339790E+02  0.18236554729E+03  0.28072264799E+03  0.17897430409E+03 0.  0.
         24    2    5    5    0    0 -0.84070382787E+02 -0.14665318796E+02  0.60362107380E+02  0.13311058422E+03  0.82413244005E+02 0.  0.
          5    1    5    5  501    0 -0.10495035774E+02  0.82293658586E+02  0.12200343991E+03  0.14761206377E+03  0.47000000000E+01 0. -1.
        -11    1    6    6    0    0 -0.57024859364E+01  0.27385548738E+02  0.24605519195E+02  0.37254774197E+02  0.00000000000E+00 0.  1.
         12    1    6    6    0    0 -0.78367896850E+02 -0.42050867534E+02  0.35756588185E+02  0.95855810026E+02  0.00000000000E+00 0. -1.
         -5    1    3    3    0  503  0.75277191080E+02 -0.90950101990E+02  0.38228204214E+02  0.12418559557E+03  0.47000000000E+01 0.  1.
         11    1    4    4    0    0  0.38176056866E+02  0.18024489164E+01  0.29617783520E+02  0.48351558823E+02  0.00000000000E+00 0. -1.
        -12    1    4    4    0    0 -0.18887829385E+02  0.21519313283E+02 -0.26308832103E+02  0.38884258894E+02  0.00000000000E+00 0.  1.
</event>
<event>
12    1  0.1598254E-001  0.1797695E+03  0.7818608E-02  0.1168061E+00
         21   -1    0    0  503  502  0.00000000000E+00  0.00000000000E+00  0.51564666280E+03  0.51564666280E+03  0.00000000000E+00 0. -1.
         21   -1    0    0  501  503 -0.00000000000E+00 -0.00000000000E+00 -0.68199428821E+02  0.68199428821E+02  0.00000000000E+00 0. -1.
          6    2    1    2  501    0 -0.34323470593E+02  0.35849185310E+02  0.14017079671E+03  0.22784627143E+03  0.17263489345E+03 0.  0.
         24    2    3    3    0    0  0.25426296219E+02 -0.55311516459E+01  0.11983491072E+03  0.15222877888E+03  0.90200360954E+02 0.  0.
         -6    2    1    2    0  502  0.34323470593E+02 -0.35849185310E+02  0.30727643728E+03  0.35599982019E+03  0.17278251749E+03 0.  0.
        -24    2    5    5    0    0  0.42356998570E+02  0.20140799411E+02  0.26510600223E+03  0.28529019176E+03  0.94390327717E+02 0.  0.
          5    1    3    3  501    0 -0.59749766812E+02  0.41380336956E+02  0.20335885990E+02  0.75617492551E+02  0.47000000000E+01 0. -1.
        -11    1    4    4    0    0 -0.28392583219E+02  0.17188284696E+02  0.60232959898E+02  0.68771981000E+02  0.00000000000E+00 0.  1.
         12    1    4    4    0    0  0.53818879439E+02 -0.22719436342E+02  0.59601950818E+02  0.83456797883E+02  0.00000000000E+00 0. -1.
         -5    1    5    5    0  502 -0.80335279770E+01 -0.55989984721E+02  0.42170435046E+02  0.70709628431E+02  0.47000000000E+01 0.  1.
         11    1    6    6    0    0 -0.79196001763E+01  0.36069892575E+02  0.18976091547E+03  0.19332087900E+03  0.00000000000E+00 0. -1.
        -12    1    6    6    0    0  0.50276598746E+02 -0.15929093163E+02  0.75345086761E+02  0.91969312759E+02  0.00000000000E+00 0.  1.
</event>
<event>
12    1  0.1598254E-001  0.1876959E+03  0.7818608E-02  0.1161076E+00
         21   -1    0    0  503  502  0.00000000000E+00  0.00000000000E+00  0.21201833723E+04  0.21201833723E+04  0.00000000000E+00 0.  1.
         21   -1    0    0  501  503 -0.00000000000E+00 -0.00000000000E+00 -0.20843156043E+02  0.20843156043E+02  0.00000000000E+00 0.  1.
          6    2    1    2  501    0 -0.26322451251E+02 -0.83234914208E+02  0.55138203454E+03  0.58173044570E+03  0.16360697131E+03 0.  0.
         24    2    3    3    0    0 -0.26760890260E+02 -0.66361152005E+02  0.17712181437E+03  0.20706029946E+03  0.79886686911E+02 0.  0.
         -6    2    1    2    0  502  0.26322451251E+02  0.83234914208E+02  0.15479581817E+04  0.15592960826E+04  0.16615901605E+03 0.  0.
        -24    2    5    5    0    0  0.54720041374E+02 -0.24887751049E+01  0.73092454791E+03  0.73727356299E+03  0.79505565998E+02 0.  0.
          5    1    3    3  501    0  0.43843900854E+00 -0.16873762203E+02  0.37426022017E+03  0.37467014624E+03  0.47000000000E+01 0. -1.
        -13    1    4    4    0    0 -0.21504683555E+02  0.10954865320E+02  0.18121051444E+02  0.30180009848E+02  0.00000000000E+00 0.  1.
         14    1    4    4    0    0 -0.52562067049E+01 -0.77316017325E+02  0.15900076292E+03  0.17688028961E+03  0.00000000000E+00 0. -1.
         -5    1    5    5    0  502 -0.28397590123E+02  0.85723689313E+02  0.81703363377E+03  0.82202251961E+03  0.47000000000E+01 0.  1.
         13    1    6    6    0    0  0.54813735796E+02  0.57961320618E+00  0.23382560474E+03  0.24016514113E+03  0.00000000000E+00 0. -1.
        -14    1    6    6    0    0 -0.93694422025E-01 -0.30683883111E+01  0.49709894317E+03  0.49710842186E+03  0.00000000000E+00 0.  1.
</event>
<event>
12    1  0.1598254E-001  0.2672093E+03  0.7818608E-02  0.1102893E+00
         21   -1    0    0  503  502  0.00000000000E+00  0.00000000000E+00  0.36145167486E+03  0.36145167486E+03  0.00000000000E+00 0. -1.
         21   -1    0    0  501  503 -0.00000000000E+00 -0.00000000000E+00 -0.39718835861E+03  0.39718835861E+03  0.00000000000E+00 0. -1.
          6    2    1    2  501    0 -0.19534913837E+03  0.61216709092E+02 -0.28681709599E+03  0.39197646069E+03  0.17167622971E+03 0.  0.
         24    2    3    3    0    0 -0.16779003413E+03 -0.14491031072E+02 -0.19396768586E+03  0.26895504341E+03  0.79686050749E+02 0.  0.
         -6    2    1    2    0  502  0.19534913837E+03 -0.61216709092E+02  0.25108041224E+03  0.36666357278E+03  0.17173243975E+03 0.  0.
        -24    2    5    5    0    0  0.13647840157E+03 -0.39665686001E+02  0.73930950912E+02  0.17868955358E+03  0.79148280552E+02 0.  0.
          5    1    3    3  501    0 -0.27559104239E+02  0.75707740164E+02 -0.92849410132E+02  0.12302141728E+03  0.47000000000E+01 0. -1.
        -13    1    4    4    0    0 -0.64191623812E+02 -0.22412949865E+02 -0.28832970784E+02  0.73852861106E+02  0.00000000000E+00 0.  1.
         14    1    4    4    0    0 -0.10359841032E+03  0.79219187921E+01 -0.16513471507E+03  0.19510218230E+03  0.00000000000E+00 0. -1.
         -5    1    5    5    0  502  0.58870736802E+02 -0.21551023091E+02  0.17714946132E+03  0.18797401920E+03  0.47000000000E+01 0.  1.
         13    1    6    6    0    0  0.58154030092E+02 -0.57958172361E+02  0.41079436504E+02  0.91807195050E+02  0.00000000000E+00 0. -1.
        -14    1    6    6    0    0  0.78324371477E+02  0.18292486361E+02  0.32851514408E+02  0.86882358528E+02  0.00000000000E+00 0.  1.
</event>
<event>
12    1  0.1598254E-001  0.2019147E+03  0.7818608E-02  0.1148540E+00
         21   -1    0    0  503  502  0.00000000000E+00  0.00000000000E+00  0.45866025548E+03  0.45866025548E+03  0.00000000000E+00 0.  1.
         21   -1    0    0  501  503 -0.00000000000E+00 -0.00000000000E+00 -0.88285281636E+02  0.88285281636E+02  0.00000000000E+00 0.  1.
          6    2    1    2  501    0  0.48864255744E+02 -0.66819711193E+02  0.19885155842E+03  0.28201193118E+03  0.18203350721E+03 0.  0.
         24    2    3    3    0    0  0.98440353158E+02 -0.32509333208E+02  0.17300491477E+03  0.21624620712E+03  0.78002318462E+02 0.  0.
         -6    2    1    2    0  502 -0.48864255744E+02  0.66819711193E+02  0.17152341542E+03  0.26493360594E+03  0.18416553484E+03 0.  0.
        -24    2    5    5    0    0  0.12200494674E+02 -0.17058221786E+02  0.29472800264E+02  0.88965203514E+02  0.81279311514E+02 0.  0.
          5    1    3    3  501    0 -0.49576097414E+02 -0.34310377986E+02  0.25846643652E+02  0.65765724054E+02  0.47000000000E+01 0. -1.
        -13    1    4    4    0    0  0.61275168472E+02 -0.50842652976E+02  0.73106948613E+02  0.10809369810E+03  0.00000000000E+00 0.  1.
         14    1    4    4    0    0  0.37165184686E+02  0.18333319768E+02  0.99897966157E+02  0.10815250903E+03  0.00000000000E+00 0. -1.
         -5    1    5    5    0  502 -0.61064750418E+02  0.83877932979E+02  0.14205061516E+03  0.17596840242E+03  0.47000000000E+01 0.  1.
         11    1    6    6    0    0  0.32994451139E+02  0.16906398394E+02  0.32120463621E+02  0.49052872453E+02  0.00000000000E+00 0. -1.
        -12    1    6    6    0    0 -0.20793956465E+02 -0.33964620181E+02 -0.26476633576E+01  0.39912331061E+02  0.00000000000E+00 0.  1.
</event>
<event>
12    1  0.1598254E-001  0.1815034E+03  0.7818608E-02  0.1167168E+00
         21   -1    0    0  503  502  0.00000000000E+00  0.00000000000E+00  0.64281886248E+02  0.64281886248E+02  0.00000000000E+00 0.  1.
         21   -1    0    0  501  503 -0.00000000000E+00 -0.00000000000E+00 -0.51827885569E+03  0.51827885569E+03  0.00000000000E+00 0.  1.
          6    2    1    2  501    0  0.10852166038E+02  0.56877946833E+02 -0.27488532555E+03  0.32756180678E+03  0.16846935839E+03 0.  0.
         24    2    3    3    0    0 -0.44214185091E+02 -0.53056659144E+01 -0.11171456336E+03  0.14440642915E+03  0.79937656079E+02 0.  0.
         -6    2    1    2    0  502 -0.10852166038E+02 -0.56877946833E+02 -0.17911164389E+03  0.25499893515E+03  0.17201920128E+03 0.  0.
        -24    2    5    5    0    0 -0.16920044749E+02 -0.57424551995E+02 -0.29563185259E+02  0.10525265170E+03  0.81365051965E+02 0.  0.
          5    1    3    3  501    0  0.55066351129E+02  0.62183612748E+02 -0.16317076219E+03  0.18315537763E+03  0.47000000000E+01 0. -1.
        -13    1    4    4    0    0  0.39691675527E+01  0.28373147484E+02 -0.58380157104E+02  0.65031012084E+02  0.00000000000E+00 0.  1.
         14    1    4    4    0    0 -0.48183352643E+02 -0.33678813398E+02 -0.53334406252E+02  0.79375417064E+02  0.00000000000E+00 0. -1.
         -5    1    5    5    0  502  0.60678787108E+01  0.54660516110E+00 -0.14954845863E+03  0.14974628345E+03  0.47000000000E+01 0.  1.
         13    1    6    6    0    0 -0.38597472472E+02  0.10918070850E+01 -0.11372677101E+02  0.40252884473E+02  0.00000000000E+00 0. -1.
        -14    1    6    6    0    0  0.21677427723E+02 -0.58516359080E+02 -0.18190508158E+02  0.64999767228E+02  0.00000000000E+00 0.  1.
</event>
<event>
12    1  0.1598254E-001  0.1973801E+03  0.7818608E-02  0.1153587E+00
         21   -1    0    0  501  502  0.00000000000E+00  0.00000000000E+00  0.49372709421E+03  0.49372709421E+03  0.00000000000E+00 0. -1.
         21   -1    0    0  502  503 -0.00000000000E+00 -0.00000000000E+00 -0.20762100101E+03  0.20762100101E+03  0.00000000000E+00 0. -1.
         -6    2    1    2    0  503 -0.24950896090E+02  0.93824773397E+02 -0.13516019360E+03  0.23922201653E+03  0.17185243652E+03 0.  0.
        -24    2    3    3    0    0  0.45207986370E+01  0.12467289731E+03 -0.12418482657E+03  0.19491923760E+03  0.83713016278E+02 0.  0.
          6    2    1    2  501    0  0.24950896090E+02 -0.93824773397E+02  0.42126628681E+03  0.46212607869E+03  0.16330827562E+03 0.  0.
         24    2    5    5    0    0  0.30223731938E+02 -0.28699833363E+01  0.28717457920E+03  0.29994330315E+03  0.81086591923E+02 0.  0.
          5    1    5    5  501    0 -0.52728358485E+01 -0.90954790060E+02  0.13409170761E+03  0.16218277554E+03  0.47000000000E+01 0. -1.
        -13    1    6    6    0    0  0.57445500716E+02  0.98777326813E+00  0.16510999201E+03  0.17482068159E+03  0.00000000000E+00 0.  1.
         14    1    6    6    0    0 -0.27221768778E+02 -0.38577566044E+01  0.12206458719E+03  0.12512262156E+03  0.00000000000E+00 0. -1.
         -5    1    3    3    0  503 -0.29471694727E+02 -0.30848123911E+02 -0.10975367038E+02  0.44302778926E+02  0.47000000000E+01 0.  1.
         11    1    4    4    0    0  0.30013246977E+01  0.10751680209E+03 -0.49730756429E+02  0.11849902454E+03  0.00000000000E+00 0. -1.
        -12    1    4    4    0    0  0.15194739393E+01  0.17156095214E+02 -0.74454070137E+02  0.76420213059E+02  0.00000000000E+00 0.  1.
</event>
<event>
12    1  0.1598254E-001  0.2114452E+03  0.7818608E-02  0.1140583E+00
         21   -1    0    0  503  502  0.00000000000E+00  0.00000000000E+00  0.21266530739E+03  0.21266530739E+03  0.00000000000E+00 0. -1.
         21   -1    0    0  501  503 -0.00000000000E+00 -0.00000000000E+00 -0.31008108940E+03  0.31008108940E+03  0.00000000000E+00 0.  1.
          6    2    1    2  501    0 -0.97208955335E+02  0.72401477812E+02 -0.19755078072E+03  0.28878889796E+03  0.17228221508E+03 0.  0.
         24    2    3    3    0    0 -0.12333626980E+02  0.27056749855E+02 -0.16791014840E+03  0.18798898327E+03  0.79131876183E+02 0.  0.
         -6    2    1    2    0  502  0.97208955335E+02 -0.72401477812E+02  0.10013499870E+03  0.23395749883E+03  0.17325570209E+03 0.  0.
        -24    2    5    5    0    0 -0.15388056753E+02 -0.31606675573E+02  0.64988041395E+02  0.10905873331E+03  0.80215880942E+02 0.  0.
          5    1    3    3  501    0 -0.84875328355E+02  0.45344727957E+02 -0.29640632321E+02  0.10079991469E+03  0.47000000000E+01 0. -1.
        -11    1    4    4    0    0 -0.24948422038E+02  0.45565143126E+02 -0.15167780366E+03  0.16032704748E+03  0.00000000000E+00 0.  1.
         12    1    4    4    0    0  0.12614795058E+02 -0.18508393271E+02 -0.16232344733E+02  0.27661935784E+02  0.00000000000E+00 0. -1.
         -5    1    5    5    0  502  0.11259701209E+03 -0.40794802239E+02  0.35146957306E+02  0.12489876552E+03  0.47000000000E+01 0.  1.
         13    1    6    6    0    0  0.32669298637E+02 -0.12928393932E+02  0.34063869051E+02  0.48936424245E+02  0.00000000000E+00 0. -1.
        -14    1    6    6    0    0 -0.48057355390E+02 -0.18678281641E+02  0.30924172344E+02  0.60122309065E+02  0.00000000000E+00 0.  1.
</event>
<event>
12    1  0.1598254E-001  0.1785325E+03  0.7818608E-02  0.1169438E+00
         21   -1    0    0  501  502  0.00000000000E+00  0.00000000000E+00  0.14946909988E+04  0.14946909988E+04  0.00000000000E+00 0. -1.
         21   -1    0    0  502  503 -0.00000000000E+00 -0.00000000000E+00 -0.40566844769E+02  0.40566844769E+02  0.00000000000E+00 0. -1.
         -6    2    1    2    0  503  0.89368005494E+01  0.44303150856E+02  0.19610429406E+03  0.26463287525E+03  0.17184594535E+03 0.  0.
        -24    2    3    3    0    0 -0.50516286693E+02  0.48363989725E+01  0.15515455560E+03  0.18222374246E+03  0.80976973371E+02 0.  0.
          6    2    1    2  501    0 -0.89368005494E+01 -0.44303150856E+02  0.12580198600E+04  0.12706249683E+04  0.17271712847E+03 0.  0.
         24    2    5    5    0    0  0.21176461707E+02  0.19346658112E+02  0.35865468627E+03  0.36849531445E+03  0.79579375924E+02 0.  0.
          5    1    5    5  501    0 -0.30113262257E+02 -0.63649808968E+02  0.89936517372E+03  0.90212965390E+03  0.47000000000E+01 0. -1.
        -13    1    6    6    0    0  0.43645626326E+02 -0.12691610953E+02  0.19065542558E+03  0.19599874742E+03  0.00000000000E+00 0.  1.
         14    1    6    6    0    0 -0.22469164618E+02  0.32038269066E+02  0.16799926069E+03  0.17249656703E+03  0.00000000000E+00 0. -1.
         -5    1    3    3    0  503  0.59453087243E+02  0.39466751883E+02  0.40949738465E+02  0.82409132790E+02  0.47000000000E+01 0.  1.
         13    1    4    4    0    0 -0.15007336461E+02  0.28268557730E+02  0.14245552448E+02  0.35032374575E+02  0.00000000000E+00 0. -1.
        -14    1    4    4    0    0 -0.35508950232E+02 -0.23432158758E+02  0.14090900315E+03  0.14719136788E+03  0.00000000000E+00 0.  1.
</event>
<event>
12    1  0.1598254E-001  0.2167032E+03  0.7818608E-02  0.1136409E+00
         21   -1    0    0  503  502  0.00000000000E+00  0.00000000000E+00  0.20532807782E+03  0.20532807782E+03  0.00000000000E+00 0.  1.
         21   -1    0    0  501  503 -0.00000000000E+00 -0.00000000000E+00 -0.39879198149E+03  0.39879198149E+03  0.00000000000E+00 0. -1.
          6    2    1    2  501    0 -0.84969584304E+02  0.10070787878E+03 -0.29416732254E+03  0.36536923736E+03  0.17204173580E+03 0.  0.
         24    2    3    3    0    0 -0.60593992465E+02  0.10978042487E+03 -0.13702233538E+03  0.20601705646E+03  0.89132112911E+02 0.  0.
         -6    2    1    2    0  502  0.84969584304E+02 -0.10070787878E+03  0.10070341887E+03  0.23875082194E+03  0.17175234876E+03 0.  0.
        -24    2    5    5    0    0 -0.32343032382E+01 -0.58218874543E+02  0.98248425537E+02  0.14070308739E+03  0.82126168857E+02 0.  0.
          5    1    3    3  501    0 -0.24375591839E+02 -0.90725460961E+01 -0.15714498715E+03  0.15935218090E+03  0.47000000000E+01 0. -1.
        -11    1    4    4    0    0  0.12628657764E+02  0.26741837796E+01  0.48267845487E+01  0.13781585717E+02  0.00000000000E+00 0.  1.
         12    1    4    4    0    0 -0.73222650229E+02  0.10710624109E+03 -0.14184911993E+03  0.19223547075E+03  0.00000000000E+00 0. -1.
         -5    1    5    5    0  502  0.88203887542E+02 -0.42489004233E+02  0.24549933304E+01  0.98047734550E+02  0.47000000000E+01 0.  1.
         13    1    6    6    0    0 -0.38664114195E+02 -0.96141691900E+01  0.31001717990E+02  0.50482199774E+02  0.00000000000E+00 0. -1.
        -14    1    6    6    0    0  0.35429810957E+02 -0.48604705353E+02  0.67246707547E+02  0.90220887619E+02  0.00000000000E+00 0.  1.
</event>
<event>
12    1  0.1598254E-001  0.2196156E+03  0.7818608E-02  0.1134303E+00
         21   -1    0    0  503  502  0.00000000000E+00  0.00000000000E+00  0.24695592741E+03  0.24695592741E+03  0.00000000000E+00 0.  1.
         21   -1    0    0  501  503 -0.00000000000E+00 -0.00000000000E+00 -0.47055843482E+03  0.47055843482E+03  0.00000000000E+00 0.  1.
          6    2    1    2  501    0 -0.11225287215E+03 -0.76179493423E+02 -0.38642646010E+03  0.44412332437E+03  0.17180249026E+03 0.  0.
         24    2    3    3    0    0 -0.33824715985E+02 -0.10156524123E+03 -0.27153501414E+03  0.30263994645E+03  0.80000397807E+02 0.  0.
         -6    2    1    2    0  502  0.11225287215E+03  0.76179493423E+02  0.16282395269E+03  0.27339103786E+03  0.17270494344E+03 0.  0.
        -24    2    5    5    0    0  0.13575142654E+03  0.63166555038E+02  0.17593053539E+03  0.24313560638E+03  0.75795160316E+02 0.  0.
          5    1    3    3  501    0 -0.78428156164E+02  0.25385747807E+02 -0.11489144596E+03  0.14148337792E+03  0.47000000000E+01 0. -1.
        -13    1    4    4    0    0  0.87149432508E+01 -0.32185568798E+01 -0.99709059293E+02  0.10014092994E+03  0.00000000000E+00 0.  1.
         14    1    4    4    0    0 -0.42539659236E+02 -0.98346684350E+02 -0.17182595484E+03  0.20249901651E+03  0.00000000000E+00 0. -1.
         -5    1    5    5    0  502 -0.23498554389E+02  0.13012938385E+02 -0.13106582696E+02  0.30255431475E+02  0.47000000000E+01 0.  1.
         11    1    6    6    0    0 -0.57958372621E+00 -0.10615749439E+02  0.33268983698E+01  0.11139941930E+02  0.00000000000E+00 0. -1.
        -12    1    6    6    0    0  0.13633101026E+03  0.73782304477E+02  0.17260363702E+03  0.23199566445E+03  0.00000000000E+00 0.  1.
</event>
