<event>
12    1  0.1597826E-001  0.2112231E+03  0.7818608E-02  0.1140695E+00
         21   -1    0    0  501  502  0.00000000000E+00  0.00000000000E+00  0.38539814522E+03  0.38539814522E+03  0.00000000000E+00 0. -1.
         21   -1    0    0  502  503 -0.00000000000E+00 -0.00000000000E+00 -0.18621074930E+03  0.18621074930E+03  0.00000000000E+00 0. -1.
         -6    2    1    2    0  503 -0.21853350622E+02  0.12096847550E+03 -0.76592498781E+02  0.22423337697E+03  0.17118193678E+03 0.  0.
        -24    2    3    3    0    0 -0.62498527164E+02  0.94882247682E+02 -0.99105018256E+02  0.17074108602E+03  0.80137425644E+02 0.  0.
          6    2    1    2  501    0  0.21853350622E+02 -0.12096847550E+03  0.27577989470E+03  0.34737551755E+03  0.17176803799E+03 0.  0.
         24    2    5    5    0    0  0.13337966314E+02 -0.27095136446E+01  0.84882663858E+02  0.12260555387E+03  0.87417460542E+02 0.  0.
          5    1    5    5  501    0  0.85153843073E+01 -0.11825896185E+03  0.19089723084E+03  0.22476996368E+03  0.47000000000E+01 0. -1.
        -11    1    6    6    0    0 -0.16421050730E+01 -0.65183018293E+00 -0.18267637650E+02  0.18352873807E+02  0.00000000000E+00 0.  1.
         12    1    6    6    0    0  0.14980071387E+02 -0.20576834616E+01  0.10315030151E+03  0.10425268007E+03  0.00000000000E+00 0. -1.
         -5    1    3    3    0  503  0.40645176542E+02  0.26086227814E+02  0.22512519474E+02  0.53492290947E+02  0.47000000000E+01 0.  1.
         13    1    4    4    0    0 -0.58299523647E+02  0.10819416997E+03 -0.78427949246E+02  0.14579353928E+03  0.00000000000E+00 0. -1.
        -14    1    4    4    0    0 -0.41990035172E+01 -0.13311922287E+02 -0.20677069009E+02  0.24947546740E+02  0.00000000000E+00 0.  1.
</event>
<event>
12    1  0.1597826E-001  0.2075505E+03  0.7818608E-02  0.1143748E+00
         21   -1    0    0  501  502  0.00000000000E+00  0.00000000000E+00  0.45257860627E+03  0.45257860627E+03  0.00000000000E+00 0. -1.
         21   -1    0    0  502  503 -0.00000000000E+00 -0.00000000000E+00 -0.10488578283E+03  0.10488578283E+03  0.00000000000E+00 0.  1.
         -6    2    1    2    0  503 -0.11148882661E+03  0.21020849157E+02  0.87267503073E+02  0.22515069438E+03  0.17379753602E+03 0.  0.
        -24    2    3    3    0    0 -0.40850192420E+02  0.58709023173E+02 -0.14164062831E+01  0.10558004213E+03  0.77650830426E+02 0.  0.
          6    2    1    2  501    0  0.11148882661E+03 -0.21020849157E+02  0.26042532037E+03  0.33231369472E+03  0.17245118049E+03 0.  0.
         24    2    5    5    0    0  0.48666172809E+02 -0.32293914214E+01  0.24877202536E+03  0.26582225856E+03  0.79969539187E+02 0.  0.
          5    1    5    5  501    0  0.62822653800E+02 -0.17791457735E+02  0.11653295013E+02  0.66491436166E+02  0.47000000000E+01 0. -1.
        -13    1    6    6    0    0  0.61840600018E+02 -0.18630899729E+02  0.12810724439E+03  0.14346719590E+03  0.00000000000E+00 0.  1.
         14    1    6    6    0    0 -0.13174427208E+02  0.15401508307E+02  0.12066478097E+03  0.12235506265E+03  0.00000000000E+00 0. -1.
         -5    1    3    3    0  503 -0.70638634189E+02 -0.37688174017E+02  0.88683909356E+02  0.11957065225E+03  0.47000000000E+01 0.  1.
         11    1    4    4    0    0 -0.15738423426E+02  0.74337067152E+02 -0.16050982973E+01  0.76001801724E+02  0.00000000000E+00 0. -1.
        -12    1    4    4    0    0 -0.25111768994E+02 -0.15628043979E+02  0.18869201414E+00  0.29578240402E+02  0.00000000000E+00 0.  1.
</event>
<event>
12    1  0.1597826E-001  0.1758407E+03  0.7818608E-02  0.1172027E+00
         21   -1    0    0  501  502  0.00000000000E+00  0.00000000000E+00  0.10145047819E+04  0.10145047819E+04  0.00000000000E+00 0.  1.
         21   -1    0    0  502  503 -0.00000000000E+00 -0.00000000000E+00 -0.30537832801E+02  0.30537832801E+02  0.00000000000E+00 0.  1.
         -6    2    1    2    0  503  0.24053364789E+02 -0.21523656611E+02  0.52840597068E+03  0.55672330472E+03  0.17229665121E+03 0.  0.
        -24    2    3    3    0    0  0.61518585029E+02 -0.35822225185E+02  0.24135839975E+03  0.26685007421E+03  0.88810567242E+02 0.  0.
          6    2    1    2  501    0 -0.24053364789E+02  0.21523656611E+02  0.45556097839E+03  0.48831930996E+03  0.17285286023E+03 0.  0.
         24    2    5    5    0    0 -0.51512629421E+02  0.56765911706E+02  0.19879012553E+03  0.22764827466E+03  0.80189171516E+02 0.  0.
          5    1    5    5  501    0  0.27459264633E+02 -0.35242255095E+02  0.25677085287E+03  0.26067103529E+03  0.47000000000E+01 0. -1.
        -13    1    6    6    0    0 -0.16667926036E+01  0.35560391088E+02  0.20001021774E+02  0.40833325653E+02  0.00000000000E+00 0.  1.
         14    1    6    6    0    0 -0.49845836818E+02  0.21205520618E+02  0.17878910375E+03  0.18681494901E+03  0.00000000000E+00 0. -1.
         -5    1    3    3    0  503 -0.37465220240E+02  0.14298568573E+02  0.28704757093E+03  0.28987323051E+03  0.47000000000E+01 0.  1.
         11    1    4    4    0    0  0.63174086554E+02  0.66914926957E+01  0.93857417340E+02  0.11333559051E+03  0.00000000000E+00 0. -1.
        -12    1    4    4    0    0 -0.16555015253E+01 -0.42513717880E+02  0.14750098241E+03  0.15351448370E+03  0.00000000000E+00 0.  1.
</event>
<event>
12    1  0.1597826E-001  0.1743808E+03  0.7818608E-02  0.1173584E+00
         21   -1    0    0  503  502  0.00000000000E+00  0.00000000000E+00  0.41139551798E+03  0.41139551798E+03  0.00000000000E+00 0. -1.
         21   -1    0    0  501  503 -0.00000000000E+00 -0.00000000000E+00 -0.12316616130E+03  0.12316616130E+03  0.00000000000E+00 0. -1.
          6    2    1    2  501    0 -0.17094837343E+02 -0.16919674077E+02 -0.25781235417E+02  0.17538022947E+03  0.17179942944E+03 0.  0.
         24    2    3    3    0    0 -0.10316869825E+02 -0.48569350949E+02 -0.69392188061E+02  0.12086740456E+03  0.85605105371E+02 0.  0.
         -6    2    1    2    0  502  0.17094837343E+02  0.16919674077E+02  0.31401059210E+03  0.35918144980E+03  0.17271407904E+03 0.  0.
        -24    2    5    5    0    0 -0.14146955782E+02 -0.39332556930E+02  0.93708899591E+02  0.12962690541E+03  0.79212311862E+02 0.  0.
          5    1    3    3  501    0 -0.67779675186E+01  0.31649676872E+02  0.43610952644E+02  0.54512824916E+02  0.47000000000E+01 0. -1.
        -11    1    4    4    0    0  0.21396645738E+02  0.13205595270E+02 -0.35751734235E+02  0.43708016382E+02  0.00000000000E+00 0.  1.
         12    1    4    4    0    0 -0.31713515562E+02 -0.61774946219E+02 -0.33640453827E+02  0.77159388173E+02  0.00000000000E+00 0. -1.
         -5    1    5    5    0  502  0.31241793125E+02  0.56252231007E+02  0.22030169250E+03  0.22955454439E+03  0.47000000000E+01 0.  1.
         11    1    6    6    0    0  0.20632548794E+00 -0.26654897400E+02  0.10436229607E+03  0.10771264998E+03  0.00000000000E+00 0. -1.
        -12    1    6    6    0    0 -0.14353281270E+02 -0.12677659530E+02 -0.10653396477E+02  0.21914255426E+02  0.00000000000E+00 0.  1.
</event>
<event>
12    1  0.1597826E-001  0.1992145E+03  0.7818608E-02  0.1151499E+00
         21   -1    0    0  501  502  0.00000000000E+00  0.00000000000E+00  0.20716360023E+04  0.20716360023E+04  0.00000000000E+00 0. -1.
         21   -1    0    0  502  503 -0.00000000000E+00 -0.00000000000E+00 -0.21394735898E+02  0.21394735898E+02  0.00000000000E+00 0. -1.
         -6    2    1    2    0  503  0.34756190438E+02  0.85007390866E+02  0.66328531882E+03  0.69255602432E+03  0.17678287073E+03 0.  0.
        -24    2    3    3    0    0  0.63452722743E+02  0.10512734176E+03  0.61793693994E+03  0.63505064321E+03  0.79782527425E+02 0.  0.
          6    2    1    2  501    0 -0.34756190438E+02 -0.85007390866E+02  0.13869559476E+04  0.14004747139E+04  0.17102156122E+03 0.  0.
         24    2    5    5    0    0 -0.70616891816E+02 -0.77012911704E+01  0.65710281250E+03  0.66564826380E+03  0.79104042888E+02 0.  0.
          5    1    5    5  501    0  0.35860701377E+02 -0.77306099696E+02  0.72985313510E+03  0.73482645010E+03  0.47000000000E+01 0. -1.
        -11    1    6    6    0    0  0.58000272726E+01 -0.26658513428E+02  0.19196292633E+03  0.19389193314E+03  0.00000000000E+00 0.  1.
         12    1    6    6    0    0 -0.76416919088E+02  0.18957222258E+02  0.46513988618E+03  0.47175633065E+03  0.00000000000E+00 0. -1.
         -5    1    3    3    0  503 -0.28696532305E+02 -0.20119950893E+02  0.45348378880E+02  0.57505381116E+02  0.47000000000E+01 0.  1.
         11    1    4    4    0    0  0.27444080389E+02 -0.25537698268E+01  0.65444076927E+02  0.71011453256E+02  0.00000000000E+00 0. -1.
        -12    1    4    4    0    0  0.36008642354E+02  0.10768111159E+03  0.55249286302E+03  0.56403918995E+03  0.00000000000E+00 0.  1.
</event>
<event>
12    1  0.1597826E-001  0.2134367E+03  0.7818608E-02  0.1139225E+00
         21   -1    0    0  503  502  0.00000000000E+00  0.00000000000E+00  0.17415638207E+03  0.17415638207E+03  0.00000000000E+00 0.  1.
         21   -1    0    0  501  503 -0.00000000000E+00 -0.00000000000E+00 -0.34239549099E+03  0.34239549099E+03  0.00000000000E+00 0. -1.
          6    2    1    2  501    0  0.75843246460E+02 -0.10163164558E+03  0.43335149402E+02  0.21602085555E+03  0.16942811290E+03 0.  0.
         24    2    3    3    0    0  0.72715023763E+02 -0.17202093945E+02 -0.19276701603E+02  0.11075704955E+03  0.79449015628E+02 0.  0.
         -6    2    1    2    0  502 -0.75843246460E+02  0.10163164558E+03 -0.21157425831E+03  0.30053101751E+03  0.17168004044E+03 0.  0.
        -24    2    5    5    0    0 -0.11269293773E+03  0.84287764716E+02 -0.12382761966E+03  0.20367921037E+03  0.79673181523E+02 0.  0.
          5    1    3    3  501    0  0.31282226966E+01 -0.84429551636E+02  0.62611851005E+02  0.10526380600E+03  0.47000000000E+01 0. -1.
        -13    1    4    4    0    0  0.64354565820E+02 -0.42499518544E+02  0.12374019008E+01  0.77131383896E+02  0.00000000000E+00 0.  1.
         14    1    4    4    0    0  0.83604579435E+01  0.25297424599E+02 -0.20514103504E+02  0.33625665658E+02  0.00000000000E+00 0. -1.
         -5    1    5    5    0  502  0.36849691266E+02  0.17343880866E+02 -0.87746638656E+02  0.96851807135E+02  0.47000000000E+01 0.  1.
         13    1    6    6    0    0 -0.62910303908E+02  0.81682204369E+02 -0.11242295306E+03  0.15254051666E+03  0.00000000000E+00 0. -1.
        -14    1    6    6    0    0 -0.49782633818E+02  0.26055603467E+01 -0.11404666602E+02  0.51138693715E+02  0.00000000000E+00 0.  1.
</event>
<event>
12    1  0.1597826E-001  0.2524989E+03  0.7818608E-02  0.1111787E+00
         21   -1    0    0  503  502  0.00000000000E+00  0.00000000000E+00  0.65070710623E+03  0.65070710623E+03  0.00000000000E+00 0.  1.
         21   -1    0    0  501  503 -0.00000000000E+00 -0.00000000000E+00 -0.97878507154E+02  0.97878507154E+02  0.00000000000E+00 0. -1.
          6    2    1    2  501    0 -0.17413124468E+03 -0.61548402763E+02  0.26988940825E+03  0.36936233351E+03  0.17169258712E+03 0.  0.
         24    2    3    3    0    0 -0.46759019232E+02 -0.70126440986E+02  0.78102134336E+02  0.13892423989E+03  0.78076100286E+02 0.  0.
         -6    2    1    2    0  502  0.17413124468E+03  0.61548402763E+02  0.28293919082E+03  0.37922327988E+03  0.17217959821E+03 0.  0.
        -24    2    5    5    0    0  0.77668650750E+02  0.77378026514E+02  0.90493980448E+02  0.16332316869E+03  0.80408448784E+02 0.  0.
          5    1    3    3  501    0 -0.12737222545E+03  0.85780382226E+01  0.19178727391E+03  0.23043809362E+03  0.47000000000E+01 0. -1.
        -11    1    4    4    0    0 -0.42096274454E+02 -0.43121366336E+02  0.90594338720E+02  0.10880663015E+03  0.00000000000E+00 0.  1.
         12    1    4    4    0    0 -0.46627447781E+01 -0.27005074649E+02 -0.12492204384E+02  0.30117609733E+02  0.00000000000E+00 0. -1.
         -5    1    5    5    0  502  0.96462593928E+02 -0.15829623751E+02  0.19244521037E+03  0.21590011119E+03  0.47000000000E+01 0.  1.
         13    1    6    6    0    0  0.46837278800E+02  0.93240288011E+00  0.95773089151E+01  0.47815529973E+02  0.00000000000E+00 0. -1.
        -14    1    6    6    0    0  0.30831371950E+02  0.76445623634E+02  0.80916671533E+02  0.11550763871E+03  0.00000000000E+00 0.  1.
</event>
<event>
12    1  0.1597826E-001  0.1987217E+03  0.7818608E-02  0.1150921E+00
         21   -1    0    0  501  502  0.00000000000E+00  0.00000000000E+00  0.26713814140E+03  0.26713814140E+03  0.00000000000E+00 0.  1.
         21   -1    0    0  502  503 -0.00000000000E+00 -0.00000000000E+00 -0.30704867309E+03  0.30704867309E+03  0.00000000000E+00 0.  1.
         -6    2    1    2    0  503  0.35360738786E+02  0.88904309363E+02 -0.22690632253E+03  0.30131733638E+03  0.17364129673E+03 0.  0.
        -24    2    3    3    0    0  0.68005794692E+02  0.62581007275E+02 -0.22856976708E+03  0.25908615174E+03  0.79626157868E+02 0.  0.
          6    2    1    2  501    0 -0.35360738786E+02 -0.88904309363E+02  0.18699579083E+03  0.27286947811E+03  0.17417223724E+03 0.  0.
         24    2    5    5    0    0 -0.76513078498E+02 -0.92509343399E+02  0.18007675395E+03  0.23072123490E+03  0.79952618004E+02 0.  0.
          5    1    5    5  501    0  0.41152339712E+02  0.36050340363E+01  0.69190368852E+01  0.42148243209E+02  0.47000000000E+01 0. -1.
        -13    1    6    6    0    0 -0.83889384384E+01 -0.50702721015E+02  0.12059243788E+03  0.13108652212E+03  0.00000000000E+00 0.  1.
         14    1    6    6    0    0 -0.68124140060E+02 -0.41806622384E+02  0.59484316063E+02  0.99634712784E+02  0.00000000000E+00 0. -1.
         -5    1    3    3    0  503 -0.32645055906E+02  0.26323302088E+02  0.16634445568E+01  0.42231184636E+02  0.47000000000E+01 0.  1.
         11    1    4    4    0    0  0.19602968493E+02 -0.11429913861E+02 -0.10319844463E+03  0.10566379833E+03  0.00000000000E+00 0. -1.
        -12    1    4    4    0    0  0.48402826200E+02  0.74010921136E+02 -0.12537132246E+03  0.15342235341E+03  0.00000000000E+00 0.  1.
</event>
<event>
12    1  0.1597826E-001  0.2044441E+03  0.7818608E-02  0.1147337E+00
         21   -1    0    0  503  502  0.00000000000E+00  0.00000000000E+00  0.14420214611E+03  0.14420214611E+03  0.00000000000E+00 0. -1.
         21   -1    0    0  501  503 -0.00000000000E+00 -0.00000000000E+00 -0.32500789628E+03  0.32500789628E+03  0.00000000000E+00 0. -1.
          6    2    1    2  501    0 -0.13129325457E+02 -0.94617775369E+02 -0.54038332535E+01  0.20451550996E+03  0.18075533131E+03 0.  0.
         24    2    3    3    0    0 -0.19524433692E+02 -0.12311975330E+03 -0.43668372355E+02  0.15614687231E+03  0.83278099301E+02 0.  0.
         -6    2    1    2    0  502  0.13129325457E+02  0.94617775369E+02 -0.17540191692E+03  0.26469453242E+03  0.17370221770E+03 0.  0.
        -24    2    5    5    0    0 -0.67593785459E+01  0.13262107696E+03 -0.12898119907E+03  0.20131642481E+03  0.79108241876E+02 0.  0.
          5    1    3    3  501    0  0.63951082349E+01  0.28501977935E+02  0.38264539101E+02  0.48368637650E+02  0.47000000000E+01 0. -1.
        -11    1    4    4    0    0 -0.43321204491E+02 -0.39167262407E+02 -0.35872523020E+02  0.68539325287E+02  0.00000000000E+00 0.  1.
         12    1    4    4    0    0  0.23796770799E+02 -0.83952490897E+02 -0.77958493347E+01  0.87607547022E+02  0.00000000000E+00 0. -1.
         -5    1    5    5    0  502  0.19888704003E+02 -0.38003301594E+02 -0.46420717850E+02  0.63378107613E+02  0.47000000000E+01 0.  1.
         13    1    6    6    0    0  0.13646215581E+02  0.34449091107E+02 -0.83222472733E+02  0.91098512862E+02  0.00000000000E+00 0. -1.
        -14    1    6    6    0    0 -0.20405594127E+02  0.98171985856E+02 -0.45758726333E+02  0.11021791195E+03  0.00000000000E+00 0.  1.
</event>
<event>
12    1  0.1597826E-001  0.3234831E+03  0.7818608E-02  0.1074138E+00
         21   -1    0    0  503  502  0.00000000000E+00  0.00000000000E+00  0.37109364382E+03  0.37109364382E+03  0.00000000000E+00 0. -1.
         21   -1    0    0  501  503 -0.00000000000E+00 -0.00000000000E+00 -0.51814517513E+03  0.51814517513E+03  0.00000000000E+00 0. -1.
          6    2    1    2  501    0  0.17172990203E+03 -0.21443994397E+03 -0.37413430229E+03  0.49458848262E+03  0.17077951331E+03 0.  0.
         24    2    3    3    0    0  0.61515856765E+02 -0.55160465165E+02 -0.19586720381E+03  0.23130472591E+03  0.91164889907E+02 0.  0.
         -6    2    1    2    0  502 -0.17172990203E+03  0.21443994397E+03  0.22708277097E+03  0.39465033633E+03  0.16943038178E+03 0.  0.
        -24    2    5    5    0    0 -0.13538782046E+03  0.20619503050E+03  0.24154710039E+03  0.35440071128E+03  0.80053793890E+02 0.  0.
          5    1    3    3  501    0  0.11021404527E+03 -0.15927947881E+03 -0.17826709848E+03  0.26328375670E+03  0.47000000000E+01 0. -1.
        -11    1    4    4    0    0  0.54678519844E+02 -0.42706993491E+02 -0.51915359398E+02  0.86653519068E+02  0.00000000000E+00 0.  1.
         12    1    4    4    0    0  0.68373369207E+01 -0.12453471673E+02 -0.14395184441E+03  0.14465120685E+03  0.00000000000E+00 0. -1.
         -5    1    5    5    0  502 -0.36342081575E+02  0.82449134701E+01 -0.14464329418E+02  0.40249625052E+02  0.47000000000E+01 0.  1.
         13    1    6    6    0    0 -0.11082812168E+03  0.15256550653E+03  0.22411409646E+03  0.29289287217E+03  0.00000000000E+00 0. -1.
        -14    1    6    6    0    0 -0.24559698774E+02  0.53629523976E+02  0.17433003934E+02  0.61507839109E+02  0.00000000000E+00 0.  1.
</event>
<event>
12    1  0.1597826E-001  0.1891491E+03  0.7818608E-02  0.1159414E+00
         21   -1    0    0  503  502  0.00000000000E+00  0.00000000000E+00  0.16938992141E+03  0.16938992141E+03  0.00000000000E+00 0. -1.
         21   -1    0    0  501  503 -0.00000000000E+00 -0.00000000000E+00 -0.22502776154E+03  0.22502776154E+03  0.00000000000E+00 0. -1.
          6    2    1    2  501    0 -0.66708733111E+02 -0.38166232206E+02  0.22554497533E+02  0.19048910871E+03  0.17283135949E+03 0.  0.
         24    2    3    3    0    0 -0.21924040602E+02 -0.15857689879E+02 -0.53130231158E+02  0.99639739412E+02  0.79831862828E+02 0.  0.
         -6    2    1    2    0  502  0.66708733111E+02  0.38166232206E+02 -0.78192337665E+02  0.20392857424E+03  0.17194797285E+03 0.  0.
        -24    2    5    5    0    0  0.82260198395E+02 -0.25362992644E+02 -0.72345769322E+02  0.13809482269E+03  0.80163882629E+02 0.  0.
          5    1    3    3  501    0 -0.44784692509E+02 -0.22308542326E+02  0.75684728692E+02  0.90849369293E+02  0.47000000000E+01 0. -1.
        -11    1    4    4    0    0  0.14808824506E+02  0.44459339978E+01  0.13743084223E+02  0.20686710138E+02  0.00000000000E+00 0.  1.
         12    1    4    4    0    0 -0.36732865108E+02 -0.20303623877E+02 -0.66873315381E+02  0.78953029275E+02  0.00000000000E+00 0. -1.
         -5    1    5    5    0  502 -0.15551465284E+02  0.63529224850E+02 -0.58465683431E+01  0.65833751556E+02  0.47000000000E+01 0.  1.
         11    1    6    6    0    0 -0.42506096768E+01 -0.21034448006E+02  0.49265088321E+01  0.22017860359E+02  0.00000000000E+00 0. -1.
        -12    1    6    6    0    0  0.86510808072E+02 -0.43285446384E+01 -0.77272278154E+02  0.11607696233E+03  0.00000000000E+00 0.  1.
</event>
<event>
12    1  0.1597826E-001  0.1782959E+03  0.7818608E-02  0.1169671E+00
         21   -1    0    0  503  502  0.00000000000E+00  0.00000000000E+00  0.14484011533E+03  0.14484011533E+03  0.00000000000E+00 0.  1.
         21   -1    0    0  501  503 -0.00000000000E+00 -0.00000000000E+00 -0.22883778431E+03  0.22883778431E+03  0.00000000000E+00 0.  1.
          6    2    1    2  501    0 -0.27255339133E+02  0.37116554909E+02 -0.81735311829E+02  0.19536765753E+03  0.17136909946E+03 0.  0.
         24    2    3    3    0    0  0.26926917696E+02  0.70544572622E+02 -0.71144916749E+02  0.13065756719E+03  0.79424209544E+02 0.  0.
         -6    2    1    2    0  502  0.27255339133E+02 -0.37116554909E+02 -0.22623571503E+01  0.17831024211E+03  0.17224671847E+03 0.  0.
        -24    2    5    5    0    0  0.17334461748E+02 -0.46888834360E+02  0.61882708948E+02  0.11250294192E+03  0.79551215718E+02 0.  0.
          5    1    3    3  501    0 -0.54182256829E+02 -0.33428017714E+02 -0.10590395081E+02  0.64710090336E+02  0.47000000000E+01 0. -1.
        -11    1    4    4    0    0  0.32826052846E+02  0.19285560484E+02  0.52894250567E+01  0.38437749753E+02  0.00000000000E+00 0.  1.
         12    1    4    4    0    0 -0.58991351499E+01  0.51259012139E+02 -0.76434341805E+02  0.92219817437E+02  0.00000000000E+00 0. -1.
         -5    1    5    5    0  502  0.99208773850E+01  0.97722794514E+01 -0.64145066098E+02  0.65807300191E+02  0.47000000000E+01 0.  1.
         11    1    6    6    0    0 -0.22143510768E+02 -0.39996963647E+02  0.55528809866E+02  0.71927330656E+02  0.00000000000E+00 0. -1.
        -12    1    6    6    0    0  0.39477972517E+02 -0.68918707132E+01  0.63538990819E+01  0.40575611265E+02  0.00000000000E+00 0.  1.
</event>
<event>
12    1  0.1597826E-001  0.1796590E+03  0.7818608E-02  0.1168220E+00
         21   -1    0    0  501  502  0.00000000000E+00  0.00000000000E+00  0.86200965886E+03  0.86200965886E+03  0.00000000000E+00 0. -1.
         21   -1    0    0  502  503 -0.00000000000E+00 -0.00000000000E+00 -0.20142436175E+03  0.20142436175E+03  0.00000000000E+00 0. -1.
         -6    2    1    2    0  503 -0.42298740355E+02 -0.28794178077E+02 -0.14963280939E+03  0.23353598255E+03  0.17184524833E+03 0.  0.
        -24    2    3    3    0    0  0.23591354104E+02 -0.22980474647E+02 -0.14314666964E+03  0.16690668191E+03  0.79260439279E+02 0.  0.
          6    2    1    2  501    0  0.42298740355E+02  0.28794178077E+02  0.81021810650E+03  0.82989803806E+03  0.17221813304E+03 0.  0.
         24    2    5    5    0    0 -0.18420758164E+02 -0.77960057408E+01  0.20898870842E+03  0.22448530433E+03  0.79481252975E+02 0.  0.
          5    1    5    5  501    0  0.60719498519E+02  0.36590183818E+02  0.60122939807E+03  0.60541273373E+03  0.47000000000E+01 0. -1.
        -11    1    6    6    0    0 -0.25911145510E+00 -0.42636596299E+02  0.11189814326E+03  0.11974615212E+03  0.00000000000E+00 0.  1.
         12    1    6    6    0    0 -0.18161646709E+02  0.34840590558E+02  0.97090565167E+02  0.10473915221E+03  0.00000000000E+00 0. -1.
         -5    1    3    3    0  503 -0.65890094458E+02 -0.58137034301E+01 -0.64861397527E+01  0.66629300643E+02  0.47000000000E+01 0.  1.
         13    1    4    4    0    0 -0.93972849260E+01 -0.37894696347E+01 -0.12362393407E+03  0.12403848645E+03  0.00000000000E+00 0. -1.
        -14    1    4    4    0    0  0.32988639030E+02 -0.19191005013E+02 -0.19522735562E+02  0.42868195463E+02  0.00000000000E+00 0.  1.
</event>
<event>
12    1  0.1597826E-001  0.1879219E+03  0.7818608E-02  0.1160379E+00
         21   -1    0    0  503  502  0.00000000000E+00  0.00000000000E+00  0.84980291343E+03  0.84980291343E+03  0.00000000000E+00 0.  1.
         21   -1    0    0  501  503 -0.00000000000E+00 -0.00000000000E+00 -0.43136798372E+02  0.43136798372E+02  0.00000000000E+00 0.  1.
          6    2    1    2  501    0 -0.64954290732E+02 -0.39809142520E+02  0.31722202150E+03  0.36870646307E+03  0.17178712779E+03 0.  0.
         24    2    3    3    0    0 -0.91407929346E+02 -0.45051231291E+02  0.31575421639E+03  0.34129261726E+03  0.79968133867E+02 0.  0.
         -6    2    1    2    0  502  0.64954290732E+02  0.39809142520E+02  0.48944409356E+03  0.52423324873E+03  0.17164250825E+03 0.  0.
        -24    2    5    5    0    0  0.28707492064E+02 -0.44677685427E+02  0.25232304314E+03  0.26987063933E+03  0.79643130243E+02 0.  0.
          5    1    3    3  501    0  0.26453638614E+02  0.52420887708E+01  0.14678051021E+01  0.27413845816E+02  0.47000000000E+01 0. -1.
        -11    1    4    4    0    0  0.27659000901E+01 -0.84229965847E+01 -0.89609591003E+00  0.89106712796E+01  0.00000000000E+00 0.  1.
         12    1    4    4    0    0 -0.94173829436E+02 -0.36628234706E+02  0.31665031230E+03  0.33238194598E+03  0.00000000000E+00 0. -1.
         -5    1    5    5    0  502  0.36246798669E+02  0.84486827947E+02  0.23712105042E+03  0.25436260940E+03  0.47000000000E+01 0.  1.
         11    1    6    6    0    0 -0.33467376084E+01  0.17652306286E+02  0.18582887219E+02  0.25848177252E+02  0.00000000000E+00 0. -1.
        -12    1    6    6    0    0  0.32054229672E+02 -0.62329991713E+02  0.23374015592E+03  0.24402246208E+03  0.00000000000E+00 0.  1.
</event>
<event>
12    1  0.1597826E-001  0.1889885E+03  0.7818608E-02  0.1160006E+00
         21   -1    0    0  501  502  0.00000000000E+00  0.00000000000E+00  0.30489355235E+03  0.30489355235E+03  0.00000000000E+00 0. -1.
         21   -1    0    0  502  503 -0.00000000000E+00 -0.00000000000E+00 -0.20699665207E+03  0.20699665207E+03  0.00000000000E+00 0. -1.
         -6    2    1    2    0  503  0.37884536347E+02 -0.66357701291E+02 -0.12106321564E+03  0.22443922279E+03  0.17285276952E+03 0.  0.
        -24    2    3    3    0    0  0.58252464514E+01 -0.73992057785E+02 -0.14684806268E+03  0.18233186233E+03  0.78560781554E+02 0.  0.
          6    2    1    2  501    0 -0.37884536347E+02  0.66357701291E+02  0.21896011592E+03  0.28745098163E+03  0.16984096049E+03 0.  0.
         24    2    5    5    0    0 -0.52863622781E+02  0.71279728839E+02  0.71384055793E+02  0.13896063545E+03  0.79617915232E+02 0.  0.
          5    1    5    5  501    0  0.14979086434E+02 -0.49220275483E+01  0.14757606013E+03  0.14849034618E+03  0.47000000000E+01 0. -1.
        -11    1    6    6    0    0 -0.73069873559E+01  0.63985333394E+02  0.15034479418E+02  0.66132824869E+02  0.00000000000E+00 0.  1.
         12    1    6    6    0    0 -0.45556635425E+02  0.72943954448E+01  0.56349576375E+02  0.72827810579E+02  0.00000000000E+00 0. -1.
         -5    1    3    3    0  503  0.32059289896E+02  0.76343564944E+01  0.25784847039E+02  0.42107360456E+02  0.47000000000E+01 0.  1.
         11    1    4    4    0    0 -0.13162702133E+02  0.30427498663E+01 -0.72004605088E+02  0.73261027894E+02  0.00000000000E+00 0. -1.
        -12    1    4    4    0    0  0.18987948585E+02 -0.77034807651E+02 -0.74843457589E+02  0.10907083444E+03  0.00000000000E+00 0.  1.
</event>
<event>
12    1  0.1597826E-001  0.2035856E+03  0.7818608E-02  0.1146876E+00
         21   -1    0    0  503  502  0.00000000000E+00  0.00000000000E+00  0.95948666855E+02  0.95948666855E+02  0.00000000000E+00 0. -1.
         21   -1    0    0  501  503 -0.00000000000E+00 -0.00000000000E+00 -0.46929471674E+03  0.46929471674E+03  0.00000000000E+00 0.  1.
          6    2    1    2  501    0 -0.62692044168E+02  0.86971375563E+02 -0.26749650686E+03  0.33578488114E+03  0.17234498150E+03 0.  0.
         24    2    3    3    0    0 -0.34770722155E+02  0.55797842812E+02 -0.27402651809E+03  0.29316891683E+03  0.80839834216E+02 0.  0.
         -6    2    1    2    0  502  0.62692044168E+02 -0.86971375563E+02 -0.10584954302E+03  0.22945850246E+03  0.17306867430E+03 0.  0.
        -24    2    5    5    0    0 -0.15315589945E+02 -0.60082327295E+02 -0.10617539470E+03  0.14681221956E+03  0.80225681830E+02 0.  0.
          5    1    3    3  501    0 -0.27921322013E+02  0.31173532751E+02  0.65300112287E+01  0.42615964306E+02  0.47000000000E+01 0. -1.
        -11    1    4    4    0    0  0.25626122307E+02  0.26100555585E+02 -0.85795630919E+02  0.93267504690E+02  0.00000000000E+00 0.  1.
         12    1    4    4    0    0 -0.60396844462E+02  0.29697287227E+02 -0.18823088717E+03  0.19990141214E+03  0.00000000000E+00 0. -1.
         -5    1    5    5    0  502  0.78007634113E+02 -0.26889048268E+02  0.32585167907E+00  0.82646282893E+02  0.47000000000E+01 0.  1.
         11    1    6    6    0    0  0.61136194692E+00  0.15183759365E+02  0.60026633575E+00  0.15207913452E+02  0.00000000000E+00 0. -1.
        -12    1    6    6    0    0 -0.15926951892E+02 -0.75266086660E+02 -0.10677566103E+03  0.13160430611E+03  0.00000000000E+00 0.  1.
</event>
<event>
12    1  0.1597826E-001  0.1993669E+03  0.7818608E-02  0.1150548E+00
         21   -1    0    0  503  502  0.00000000000E+00  0.00000000000E+00  0.93220823852E+02  0.93220823852E+02  0.00000000000E+00 0. -1.
         21   -1    0    0  501  503 -0.00000000000E+00 -0.00000000000E+00 -0.56299485369E+03  0.56299485369E+03  0.00000000000E+00 0. -1.
          6    2    1    2  501    0  0.93624430038E+02 -0.28584926316E+02 -0.39870410538E+03  0.44577135921E+03  0.17367932846E+03 0.  0.
         24    2    3    3    0    0  0.22935801824E+02  0.42033253333E+02 -0.14012821908E+03  0.16852167313E+03  0.80441227873E+02 0.  0.
         -6    2    1    2    0  502 -0.93624430038E+02  0.28584926316E+02 -0.71069924464E+02  0.21044431834E+03  0.17220117608E+03 0.  0.
        -24    2    5    5    0    0 -0.12885399726E+02 -0.26457310735E+02  0.65891200934E+01  0.85538529531E+02  0.80046241095E+02 0.  0.
          5    1    3    3  501    0  0.70688628214E+02 -0.70618179649E+02 -0.25857588630E+03  0.27724968608E+03  0.47000000000E+01 0. -1.
        -13    1    4    4    0    0 -0.27446274761E+02  0.16801027664E+02 -0.79428021000E+02  0.85699376012E+02  0.00000000000E+00 0.  1.
         14    1    4    4    0    0  0.50382076585E+02  0.25232225669E+02 -0.60700198075E+02  0.82822297116E+02  0.00000000000E+00 0. -1.
         -5    1    5    5    0  502 -0.80739030312E+02  0.55042237051E+02 -0.77659044558E+02  0.12490578880E+03  0.47000000000E+01 0.  1.
         11    1    6    6    0    0 -0.14130631113E+02  0.24340191309E+02  0.18068349607E+02  0.33445252371E+02  0.00000000000E+00 0. -1.
        -12    1    6    6    0    0  0.12452313876E+01 -0.50797502044E+02 -0.11479229513E+02  0.52093277161E+02  0.00000000000E+00 0.  1.
</event>
<event>
12    1  0.1597826E-001  0.2327640E+03  0.7818608E-02  0.1124852E+00
         21   -1    0    0  503  502  0.00000000000E+00  0.00000000000E+00  0.16341719615E+03  0.16341719615E+03  0.00000000000E+00 0. -1.
         21   -1    0    0  501  503 -0.00000000000E+00 -0.00000000000E+00 -0.46092701756E+03  0.46092701756E+03  0.00000000000E+00 0.  1.
          6    2    1    2  501    0  0.38943572127E+02  0.15046673755E+03 -0.31508474630E+03  0.39173650692E+03  0.17326930654E+03 0.  0.
         24    2    3    3    0    0  0.76460463140E+02  0.15232312415E+03 -0.29243068695E+03  0.34762007362E+03  0.79217878924E+02 0.  0.
         -6    2    1    2    0  502 -0.38943572127E+02 -0.15046673755E+03  0.17574924879E+02  0.23260770679E+03  0.17216453280E+03 0.  0.
        -24    2    5    5    0    0  0.27026204086E+02 -0.13785010437E+03  0.13753233812E+02  0.16516968985E+03  0.85783495040E+02 0.  0.
          5    1    3    3  501    0 -0.37516891013E+02 -0.18563865968E+01 -0.22654059346E+02  0.44116433302E+02  0.47000000000E+01 0. -1.
        -13    1    4    4    0    0  0.37906541764E+02  0.12949493052E+03 -0.16867087543E+03  0.21599932212E+03  0.00000000000E+00 0.  1.
         14    1    4    4    0    0  0.38553921376E+02  0.22828193628E+02 -0.12375981152E+03  0.13162075150E+03  0.00000000000E+00 0. -1.
         -5    1    5    5    0  502 -0.65969776213E+02 -0.12616633181E+02  0.38216910671E+01  0.67438016941E+02  0.47000000000E+01 0.  1.
         13    1    6    6    0    0  0.56189459780E+00 -0.12304501612E+03 -0.14281129662E+02  0.12387228254E+03  0.00000000000E+00 0. -1.
        -14    1    6    6    0    0  0.26464309488E+02 -0.14805088252E+02  0.28034363474E+02  0.41297407307E+02  0.00000000000E+00 0.  1.
</event>
<event>
12    1  0.1597826E-001  0.2915604E+03  0.7818608E-02  0.1089758E+00
         21   -1    0    0  501  502  0.00000000000E+00  0.00000000000E+00  0.62287440333E+03  0.62287440333E+03  0.00000000000E+00 0.  1.
         21   -1    0    0  502  503 -0.00000000000E+00 -0.00000000000E+00 -0.33047925593E+03  0.33047925593E+03  0.00000000000E+00 0. -1.
         -6    2    1    2    0  503  0.58114232689E+02 -0.22617026408E+03 -0.21959504252E+03  0.36500610312E+03  0.17457726147E+03 0.  0.
        -24    2    3    3    0    0  0.82804238072E+02 -0.21947331162E+03 -0.22896386113E+03  0.33735994064E+03  0.79763421982E+02 0.  0.
          6    2    1    2  501    0 -0.58114232689E+02  0.22617026408E+03  0.51199018991E+03  0.58834755613E+03  0.17172256650E+03 0.  0.
         24    2    5    5    0    0  0.91004392165E+00  0.13344967885E+03  0.41030094551E+03  0.43853512480E+03  0.78463652924E+02 0.  0.
          5    1    5    5  501    0 -0.59024276610E+02  0.92720585232E+02  0.10168924440E+03  0.14981243133E+03  0.47000000000E+01 0. -1.
        -13    1    6    6    0    0 -0.93645199166E+01  0.65783431582E+02  0.31043749662E+03  0.31746904323E+03  0.00000000000E+00 0.  1.
         14    1    6    6    0    0  0.10274563838E+02  0.67666247266E+02  0.99863448893E+02  0.12106608157E+03  0.00000000000E+00 0. -1.
         -5    1    3    3    0  503 -0.24690005383E+02 -0.66969524559E+01  0.93688186103E+01  0.27646162485E+02  0.47000000000E+01 0.  1.
         13    1    4    4    0    0  0.65187242399E+02 -0.18149428348E+03 -0.13773112246E+03  0.23697977467E+03  0.00000000000E+00 0. -1.
        -14    1    4    4    0    0  0.17616995673E+02 -0.37979028143E+02 -0.91232738665E+02  0.10038016597E+03  0.00000000000E+00 0.  1.
</event>
<event>
12    1  0.1597826E-001  0.1724379E+03  0.7818608E-02  0.1175664E+00
         21   -1    0    0  503  502  0.00000000000E+00  0.00000000000E+00  0.69570676305E+02  0.69570676305E+02  0.00000000000E+00 0.  1.
         21   -1    0    0  501  503 -0.00000000000E+00 -0.00000000000E+00 -0.49261698181E+03  0.49261698181E+03  0.00000000000E+00 0.  1.
          6    2    1    2  501    0  0.11367939505E+02  0.39172880705E+01 -0.31560328879E+03  0.35901573745E+03  0.17071112631E+03 0.  0.
         24    2    3    3    0    0 -0.41875900349E+02  0.19312207358E+02 -0.27369973526E+03  0.28937445787E+03  0.81850347621E+02 0.  0.
         -6    2    1    2    0  502 -0.11367939505E+02 -0.39172880705E+01 -0.10744301672E+03  0.20317192067E+03  0.17201817437E+03 0.  0.
        -24    2    5    5    0    0  0.33661934630E+02 -0.33804191882E+02 -0.11631276342E+03  0.14820211996E+03  0.78481591438E+02 0.  0.
          5    1    3    3  501    0  0.53243839854E+02 -0.15394919288E+02 -0.41903553532E+02  0.69641279575E+02  0.47000000000E+01 0. -1.
        -13    1    4    4    0    0 -0.54585072279E+01  0.36426006951E+02 -0.21546382066E+03  0.21858935769E+03  0.00000000000E+00 0.  1.
         14    1    4    4    0    0 -0.36417393121E+02 -0.17113799593E+02 -0.58235914595E+02  0.70785100176E+02  0.00000000000E+00 0. -1.
         -5    1    5    5    0  502 -0.45029874136E+02  0.29886903811E+02  0.88697466960E+01  0.54969800714E+02  0.47000000000E+01 0.  1.
         13    1    6    6    0    0 -0.16320908385E+02 -0.55770539645E+01 -0.76312512799E+02  0.78237300510E+02  0.00000000000E+00 0. -1.
        -14    1    6    6    0    0  0.49982843016E+02 -0.28227137917E+02 -0.40000250618E+02  0.69964819448E+02  0.00000000000E+00 0.  1.
</event>
<event>
12    1  0.1597826E-001  0.1919016E+03  0.7818608E-02  0.1156806E+00
         21   -1    0    0  503  502  0.00000000000E+00  0.00000000000E+00  0.49718608784E+02  0.49718608784E+02  0.00000000000E+00 0.  1.
         21   -1    0    0  501  503 -0.00000000000E+00 -0.00000000000E+00 -0.74007806443E+03  0.74007806443E+03  0.00000000000E+00 0.  1.
          6    2    1    2  501    0  0.96731195691E+01 -0.85292177794E+02 -0.33794365530E+03  0.38851978955E+03  0.17138666191E+03 0.  0.
         24    2    3    3    0    0  0.46259133331E+02 -0.11215279057E+03 -0.22953194737E+03  0.27089658887E+03  0.77342686465E+02 0.  0.
         -6    2    1    2    0  502 -0.96731195691E+01  0.85292177794E+02 -0.35241580035E+03  0.40127688366E+03  0.17163308595E+03 0.  0.
        -24    2    5    5    0    0 -0.39577393596E+02  0.59427797539E+02 -0.34508511181E+03  0.36079156824E+03  0.77387260643E+02 0.  0.
          5    1    3    3  501    0 -0.36586013762E+02  0.26860612776E+02 -0.10841170793E+03  0.11762320068E+03  0.47000000000E+01 0. -1.
        -13    1    4    4    0    0 -0.13187103898E+02 -0.46485764489E+02 -0.44206323244E+02  0.65490648371E+02  0.00000000000E+00 0.  1.
         14    1    4    4    0    0  0.59446237229E+02 -0.65667026081E+02 -0.18532562413E+03  0.20540594050E+03  0.00000000000E+00 0. -1.
         -5    1    5    5    0  502  0.29904274027E+02  0.25864380254E+02 -0.73306885334E+01  0.40485315429E+02  0.47000000000E+01 0.  1.
         11    1    6    6    0    0 -0.52290285185E+00  0.35404635338E+02 -0.27348979504E+03  0.27577242361E+03  0.00000000000E+00 0. -1.
        -12    1    6    6    0    0 -0.39054490744E+02  0.24023162202E+02 -0.71595316773E+02  0.85019144628E+02  0.00000000000E+00 0.  1.
</event>
<event>
12    1  0.1597826E-001  0.1874387E+03  0.7818608E-02  0.1162813E+00
         21   -1    0    0  503  502  0.00000000000E+00  0.00000000000E+00  0.18225077836E+04  0.18225077836E+04  0.00000000000E+00 0. -1.
         21   -1    0    0  501  503 -0.00000000000E+00 -0.00000000000E+00 -0.30276582315E+02  0.30276582315E+02  0.00000000000E+00 0. -1.
          6    2    1    2  501    0 -0.17774804811E+02  0.48495585775E+02  0.30334290778E+03  0.35214396793E+03  0.17123285002E+03 0.  0.
         24    2    3    3    0    0 -0.30682463711E+02  0.69146507675E+02  0.30729638560E+03  0.32702847032E+03  0.82425109587E+02 0.  0.
         -6    2    1    2    0  502  0.17774804811E+02 -0.48495585775E+02  0.14888882935E+04  0.15006403979E+04  0.18018181925E+03 0.  0.
        -24    2    5    5    0    0 -0.18220477323E+02 -0.21763727293E+02  0.13833857471E+04  0.13859097138E+04  0.78638183487E+02 0.  0.
          5    1    3    3  501    0  0.12907658900E+02 -0.20650921900E+02 -0.39534778251E+01  0.25115497616E+02  0.47000000000E+01 0. -1.
        -13    1    4    4    0    0 -0.57746999033E+02  0.44990781420E+02  0.23505287510E+03  0.24618842459E+03  0.00000000000E+00 0.  1.
         14    1    4    4    0    0  0.27064535323E+02  0.24155726255E+02  0.72243510505E+02  0.80840045727E+02  0.00000000000E+00 0. -1.
         -5    1    5    5    0  502  0.35995282134E+02 -0.26731858482E+02  0.10550254635E+03  0.11473068412E+03  0.47000000000E+01 0.  1.
         11    1    6    6    0    0  0.30555215179E+02 -0.15628215094E+02  0.60619649052E+03  0.60716723183E+03  0.00000000000E+00 0. -1.
        -12    1    6    6    0    0 -0.48775692502E+02 -0.61355121995E+01  0.77718925660E+03  0.77874248199E+03  0.00000000000E+00 0.  1.
</event>
<event>
12    1  0.1597826E-001  0.1741990E+03  0.7818608E-02  0.1173903E+00
         21   -1    0    0  503  502  0.00000000000E+00  0.00000000000E+00  0.10300189580E+04  0.10300189580E+04  0.00000000000E+00 0.  1.
         21   -1    0    0  501  503 -0.00000000000E+00 -0.00000000000E+00 -0.51465678835E+02  0.51465678835E+02  0.00000000000E+00 0.  1.
          6    2    1    2  501    0 -0.20797515711E+02  0.11278020752E+02  0.13490326988E+03  0.22032743323E+03  0.17258492170E+03 0.  0.
         24    2    3    3    0    0 -0.63480537839E+01 -0.22993543667E+02  0.15633905188E+03  0.17714283149E+03  0.79804027274E+02 0.  0.
         -6    2    1    2    0  502  0.20797515711E+02 -0.11278020752E+02  0.84365000931E+03  0.86115720362E+03  0.17113345883E+03 0.  0.
        -24    2    5    5    0    0  0.56352812088E+02  0.22656826636E+02  0.73263911542E+03  0.73966127147E+03  0.81546010599E+02 0.  0.
          5    1    3    3  501    0 -0.14449461927E+02  0.34271564418E+02 -0.21435782001E+02  0.43184601743E+02  0.47000000000E+01 0. -1.
        -11    1    4    4    0    0 -0.24766530052E+02  0.17865352376E+02  0.28869845343E+02  0.42024038317E+02  0.00000000000E+00 0.  1.
         12    1    4    4    0    0  0.18418476269E+02 -0.40858896043E+02  0.12746920654E+03  0.13511879317E+03  0.00000000000E+00 0. -1.
         -5    1    5    5    0  502 -0.35555296377E+02 -0.33934847387E+02  0.11101089389E+03  0.12149593215E+03  0.47000000000E+01 0.  1.
         11    1    6    6    0    0  0.11127018027E+02  0.93965659901E+01  0.16642184913E+02  0.22114888678E+02  0.00000000000E+00 0. -1.
        -12    1    6    6    0    0  0.45225794061E+02  0.13260260646E+02  0.71599693051E+03  0.71754638280E+03  0.00000000000E+00 0.  1.
</event>
<event>
12    1  0.1597826E-001  0.1867545E+03  0.7818608E-02  0.1161538E+00
         21   -1    0    0  503  502  0.00000000000E+00  0.00000000000E+00  0.29243634303E+02  0.29243634303E+02  0.00000000000E+00 0. -1.
         21   -1    0    0  501  503 -0.00000000000E+00 -0.00000000000E+00 -0.16674883238E+04  0.16674883238E+04  0.00000000000E+00 0. -1.
          6    2    1    2  501    0 -0.69958898325E+01  0.70769245814E+02 -0.36566036985E+03  0.41059074793E+03  0.17268476359E+03 0.  0.
         24    2    3    3    0    0  0.42760534224E+02 -0.10934922933E+02 -0.19242564556E+03  0.21264218737E+03  0.79000221233E+02 0.  0.
         -6    2    1    2    0  502  0.69958898325E+01 -0.70769245814E+02 -0.12725843197E+04  0.12861412102E+04  0.17213696081E+03 0.  0.
        -24    2    5    5    0    0  0.26454463503E+02 -0.24586586969E+02 -0.11529602462E+04  0.11563587652E+04  0.80894534607E+02 0.  0.
          5    1    3    3  501    0 -0.49756424056E+02  0.81704168748E+02 -0.17323472430E+03  0.19794856056E+03  0.47000000000E+01 0. -1.
        -13    1    4    4    0    0  0.57257663784E+02  0.16382779352E+02 -0.12829469954E+03  0.14144385971E+03  0.00000000000E+00 0.  1.
         14    1    4    4    0    0 -0.14497129561E+02 -0.27317702286E+02 -0.64130946022E+02  0.71198327658E+02  0.00000000000E+00 0. -1.
         -5    1    5    5    0  502 -0.19458573671E+02 -0.46182658845E+02 -0.11962407350E+03  0.12978244500E+03  0.47000000000E+01 0.  1.
         11    1    6    6    0    0  0.16763457613E+02 -0.37692836868E+02 -0.26020680449E+03  0.26345653259E+03  0.00000000000E+00 0. -1.
        -12    1    6    6    0    0  0.96910058900E+01  0.13106249899E+02 -0.89275344167E+03  0.89290223261E+03  0.00000000000E+00 0.  1.
</event>
<event>
12    1  0.1597826E-001  0.2107757E+03  0.7818608E-02  0.1141014E+00
         21   -1    0    0  501  502  0.00000000000E+00  0.00000000000E+00  0.65958657724E+03  0.65958657724E+03  0.00000000000E+00 0.  1.
         21   -1    0    0  502  503 -0.00000000000E+00 -0.00000000000E+00 -0.67415798856E+02  0.67415798856E+02  0.00000000000E+00 0.  1.
         -6    2    1    2    0  503  0.10454104439E+03 -0.60823673111E+02  0.27816513601E+03  0.34881469565E+03  0.17224256106E+03 0.  0.
        -24    2    3    3    0    0  0.37839785286E+02  0.39821605255E+02  0.12068656091E+03  0.15032005684E+03  0.70804405989E+02 0.  0.
          6    2    1    2  501    0 -0.10454104439E+03  0.60823673111E+02  0.31400564238E+03  0.37818768045E+03  0.17262105614E+03 0.  0.
         24    2    5    5    0    0 -0.12388405373E+03  0.41477087603E+02  0.31764011473E+03  0.35019229207E+03  0.68350503833E+02 0.  0.
          5    1    5    5  501    0  0.19343009343E+02  0.19346585508E+02 -0.36344723479E+01  0.27995388379E+02  0.47000000000E+01 0. -1.
        -13    1    6    6    0    0 -0.12121854991E+03  0.54366414777E+02  0.27229544253E+03  0.30297599232E+03  0.00000000000E+00 0.  1.
         14    1    6    6    0    0 -0.26655038288E+01 -0.12889327174E+02  0.45344672196E+02  0.47216299752E+02  0.00000000000E+00 0. -1.
         -5    1    3    3    0  503  0.66701259105E+02 -0.10064527837E+03  0.15747857510E+03  0.19849463882E+03  0.47000000000E+01 0.  1.
         13    1    4    4    0    0  0.47938493726E+01 -0.45041167204E+01 -0.79421337473E+01  0.10312397767E+02  0.00000000000E+00 0. -1.
        -14    1    4    4    0    0  0.33045935913E+02  0.44325721976E+02  0.12862869466E+03  0.14000765907E+03  0.00000000000E+00 0.  1.
</event>
<event>
12    1  0.1597826E-001  0.1906684E+03  0.7818608E-02  0.1158781E+00
         21   -1    0    0  503  502  0.00000000000E+00  0.00000000000E+00  0.46553760839E+03  0.46553760839E+03  0.00000000000E+00 0. -1.
         21   -1    0    0  501  503 -0.00000000000E+00 -0.00000000000E+00 -0.83003027073E+03  0.83003027073E+03  0.00000000000E+00 0. -1.
          6    2    1    2  501    0 -0.57471547506E+02  0.44970992035E+02 -0.79929868441E+03  0.82079347741E+03  0.17175033264E+03 0.  0.
         24    2    3    3    0    0 -0.30950867722E+02  0.20203288376E+01 -0.72268191786E+03  0.72892223685E+03  0.89980192449E+02 0.  0.
         -6    2    1    2    0  502  0.57471547506E+02 -0.44970992035E+02  0.43480602207E+03  0.47477440171E+03  0.17615075018E+03 0.  0.
        -24    2    5    5    0    0 -0.93132184834E+01  0.33543169830E+02  0.20931662553E+03  0.22679811951E+03  0.80075320834E+02 0.  0.
          5    1    3    3  501    0 -0.26520679785E+02  0.42950663197E+02 -0.76616766556E+02  0.91871240564E+02  0.47000000000E+01 0. -1.
        -11    1    4    4    0    0 -0.14423681311E+02 -0.39161988863E+02 -0.19707380387E+03  0.20144425563E+03  0.00000000000E+00 0.  1.
         12    1    4    4    0    0 -0.16527186410E+02  0.41182317701E+02 -0.52560811399E+03  0.52747798122E+03  0.00000000000E+00 0. -1.
         -5    1    5    5    0  502  0.66784765990E+02 -0.78514161865E+02  0.22548939654E+03  0.24797628220E+03  0.47000000000E+01 0.  1.
         11    1    6    6    0    0 -0.97389517855E+00  0.39595544299E+02  0.21238515324E+03  0.21604677484E+03  0.00000000000E+00 0. -1.
        -12    1    6    6    0    0 -0.83393233049E+01 -0.60523744695E+01 -0.30685277088E+01  0.10751344669E+02  0.00000000000E+00 0.  1.
</event>
<event>
12    1  0.1597826E-001  0.1878087E+03  0.7818608E-02  0.1161610E+00
         21   -1    0    0  501  502  0.00000000000E+00  0.00000000000E+00  0.17768935443E+03  0.17768935443E+03  0.00000000000E+00 0.  1.
         21   -1    0    0  502  503 -0.00000000000E+00 -0.00000000000E+00 -0.45662009818E+03  0.45662009818E+03  0.00000000000E+00 0.  1.
         -6    2    1    2    0  503  0.74893016913E+02 -0.80066165954E+00 -0.37951957319E+03  0.42125964341E+03  0.16677822307E+03 0.  0.
        -24    2    3    3    0    0  0.59613025374E+01 -0.15037712415E+02 -0.72070902589E+02  0.10582177327E+03  0.75778379346E+02 0.  0.
          6    2    1    2  501    0 -0.74893016913E+02  0.80066165954E+00  0.10058882945E+03  0.21304980920E+03  0.17222805680E+03 0.  0.
         24    2    5    5    0    0 -0.91425675640E+02  0.30189142334E+02  0.12000532316E+03  0.17385667423E+03  0.80961886754E+02 0.  0.
          5    1    5    5  501    0  0.16532658727E+02 -0.29388480675E+02 -0.19416493711E+02  0.39193134973E+02  0.47000000000E+01 0. -1.
        -13    1    6    6    0    0 -0.65541737969E+01  0.68127761941E+01 -0.11946664534E+02  0.15234628552E+02  0.00000000000E+00 0.  1.
         14    1    6    6    0    0 -0.84871501843E+02  0.23376366140E+02  0.13195198769E+03  0.15862204568E+03  0.00000000000E+00 0. -1.
         -5    1    3    3    0  503  0.68931714375E+02  0.14237050756E+02 -0.30744867060E+03  0.31543787013E+03  0.47000000000E+01 0.  1.
         13    1    4    4    0    0  0.21185922338E+02  0.25581972227E+02 -0.23431870868E+02  0.40648901347E+02  0.00000000000E+00 0. -1.
        -14    1    4    4    0    0 -0.15224619801E+02 -0.40619684642E+02 -0.48639031721E+02  0.65172871927E+02  0.00000000000E+00 0.  1.
</event>
<event>
12    1  0.1597826E-001  0.2547259E+03  0.7818608E-02  0.1110409E+00
         21   -1    0    0  501  502  0.00000000000E+00  0.00000000000E+00  0.18898754141E+03  0.18898754141E+03  0.00000000000E+00 0.  1.
         21   -1    0    0  502  503 -0.00000000000E+00 -0.00000000000E+00 -0.54224185901E+03  0.54224185901E+03  0.00000000000E+00 0.  1.
         -6    2    1    2    0  503  0.32906972888E+02 -0.18532048443E+03 -0.39841157265E+03  0.47288165811E+03  0.17163545829E+03 0.  0.
        -24    2    3    3    0    0  0.64559923144E+02 -0.18925562913E+03 -0.37696473994E+03  0.43415890953E+03  0.80036658716E+02 0.  0.
          6    2    1    2  501    0 -0.32906972888E+02  0.18532048443E+03  0.45157255052E+02  0.25834774230E+03  0.17110764874E+03 0.  0.
         24    2    5    5    0    0 -0.66296719624E+02  0.18745899649E+03  0.19188447720E+02  0.21573416025E+03  0.81467177290E+02 0.  0.
          5    1    5    5  501    0  0.33389746736E+02 -0.21385120678E+01  0.25968807332E+02  0.42613582050E+02  0.47000000000E+01 0. -1.
        -11    1    6    6    0    0  0.10510690386E+02  0.66869857518E+02  0.26213446157E+02  0.72589236228E+02  0.00000000000E+00 0.  1.
         12    1    6    6    0    0 -0.76807410010E+02  0.12058913898E+03 -0.70249984369E+01  0.14314492403E+03  0.00000000000E+00 0. -1.
         -5    1    3    3    0  503 -0.31652950256E+02  0.39351447051E+01 -0.21446832719E+02  0.38722748578E+02  0.47000000000E+01 0.  1.
         11    1    4    4    0    0  0.51928673819E+02 -0.40011627983E+02 -0.11927023770E+03  0.13609888736E+03  0.00000000000E+00 0. -1.
        -12    1    4    4    0    0  0.12631249326E+02 -0.14924400115E+03 -0.25769450223E+03  0.29806002218E+03  0.00000000000E+00 0.  1.
</event>
<event>
12    1  0.1597826E-001  0.2400627E+03  0.7818608E-02  0.1119813E+00
         21   -1    0    0  503  502  0.00000000000E+00  0.00000000000E+00  0.85657243637E+03  0.85657243637E+03  0.00000000000E+00 0.  1.
         21   -1    0    0  501  503 -0.00000000000E+00 -0.00000000000E+00 -0.14985877778E+03  0.14985877778E+03  0.00000000000E+00 0.  1.
          6    2    1    2  501    0 -0.16616168560E+03  0.15366003957E+02 -0.20304664096E+02  0.24091989892E+03  0.17258128077E+03 0.  0.
         24    2    3    3    0    0 -0.12723073898E+03 -0.38475528250E+02 -0.56881522399E+02  0.16492986169E+03  0.79361983791E+02 0.  0.
         -6    2    1    2    0  502  0.16616168560E+03 -0.15366003957E+02  0.72701832269E+03  0.76551131523E+03  0.17206426817E+03 0.  0.
        -24    2    5    5    0    0  0.78165192032E+02 -0.11007330626E+02  0.60215216907E+03  0.61261910734E+03  0.80523148178E+02 0.  0.
          5    1    3    3  501    0 -0.38930946625E+02  0.53841532208E+02  0.36576858303E+02  0.75990037235E+02  0.47000000000E+01 0. -1.
        -13    1    4    4    0    0 -0.89113347656E+02 -0.16520171280E+02 -0.74720720941E+02  0.11746187010E+03  0.00000000000E+00 0.  1.
         14    1    4    4    0    0 -0.38117391319E+02 -0.21955356970E+02  0.17839198541E+02  0.47467991587E+02  0.00000000000E+00 0. -1.
         -5    1    5    5    0  502  0.87996493569E+02 -0.43586733308E+01  0.12486615362E+03  0.15289220789E+03  0.47000000000E+01 0.  1.
         13    1    6    6    0    0  0.79955234668E+01  0.28927450084E+02  0.11661931150E+03  0.12041922429E+03  0.00000000000E+00 0. -1.
        -14    1    6    6    0    0  0.70169668565E+02 -0.39934780710E+02  0.48553285757E+03  0.49219988305E+03  0.00000000000E+00 0.  1.
</event>
<event>
12    1  0.1597826E-001  0.2165345E+03  0.7818608E-02  0.1136563E+00
         21   -1    0    0  501  502  0.00000000000E+00  0.00000000000E+00  0.13607211729E+03  0.13607211729E+03  0.00000000000E+00 0. -1.
         21   -1    0    0  502  503 -0.00000000000E+00 -0.00000000000E+00 -0.34459180925E+03  0.34459180925E+03  0.00000000000E+00 0.  1.
         -6    2    1    2    0  503 -0.11473613447E+03  0.63182774040E+02 -0.94326059020E+02  0.23618763869E+03  0.17242607625E+03 0.  0.
        -24    2    3    3    0    0 -0.12231465267E+02  0.73078470646E+02 -0.29747442808E+02  0.11454217149E+03  0.82127505021E+02 0.  0.
          6    2    1    2  501    0  0.11473613447E+03 -0.63182774040E+02 -0.11419363295E+03  0.24447628785E+03  0.17196518842E+03 0.  0.
         24    2    5    5    0    0  0.58328575333E+02 -0.48229662024E+02 -0.14316372383E+03  0.17915581287E+03  0.76633089874E+02 0.  0.
          5    1    5    5  501    0  0.56407559132E+02 -0.14953112017E+02  0.28970090885E+02  0.65320474984E+02  0.47000000000E+01 0. -1.
        -13    1    6    6    0    0  0.47625544419E+02 -0.74140365481E+01 -0.26299956492E+02  0.54907632718E+02  0.00000000000E+00 0.  1.
         14    1    6    6    0    0  0.10703030914E+02 -0.40815625475E+02 -0.11686376734E+03  0.12424818015E+03  0.00000000000E+00 0. -1.
         -5    1    3    3    0  503 -0.10250466920E+03 -0.98956966058E+01 -0.64578616212E+02  0.12164546720E+03  0.47000000000E+01 0.  1.
         11    1    4    4    0    0 -0.71863321116E+01 -0.54396394104E+01  0.19665580966E+02  0.21632570833E+02  0.00000000000E+00 0. -1.
        -12    1    4    4    0    0 -0.50451331557E+01  0.78518110056E+02 -0.49413023774E+02  0.92909600655E+02  0.00000000000E+00 0.  1.
</event>
<event>
12    1  0.1597826E-001  0.1729842E+03  0.7818608E-02  0.1174935E+00
         21   -1    0    0  501  502  0.00000000000E+00  0.00000000000E+00  0.24876075036E+04  0.24876075036E+04  0.00000000000E+00 0.  1.
         21   -1    0    0  502  503 -0.00000000000E+00 -0.00000000000E+00 -0.73532457422E+02  0.73532457422E+02  0.00000000000E+00 0.  1.
         -6    2    1    2    0  503  0.28944983010E+02 -0.19583048951E+02  0.35096336930E+02  0.17588038992E+03  0.16876270573E+03 0.  0.
        -24    2    3    3    0    0  0.79622954644E+02  0.40754120644E+01  0.81386687378E+01  0.11361655241E+03  0.80536073678E+02 0.  0.
          6    2    1    2  501    0 -0.28944983010E+02  0.19583048951E+02  0.23789787093E+04  0.23852595711E+04  0.16941727965E+03 0.  0.
         24    2    5    5    0    0  0.45911380169E+02  0.29714941578E+02  0.12713187684E+04  0.12750169107E+04  0.80161581696E+02 0.  0.
          5    1    5    5  501    0 -0.74856363180E+02 -0.10131892627E+02  0.11076599409E+04  0.11102426604E+04  0.47000000000E+01 0. -1.
        -11    1    6    6    0    0  0.60945411374E+02  0.46465411296E+01  0.10498008248E+04  0.10515786729E+04  0.00000000000E+00 0.  1.
         12    1    6    6    0    0 -0.15034031204E+02  0.25068400448E+02  0.22151794355E+03  0.22343823780E+03  0.00000000000E+00 0. -1.
         -5    1    3    3    0  503 -0.50677971634E+02 -0.23658461016E+02  0.26957668192E+02  0.62263837505E+02  0.47000000000E+01 0.  1.
         13    1    4    4    0    0  0.86661175716E+02  0.14697530550E+02  0.26011377931E+02  0.91666616402E+02  0.00000000000E+00 0. -1.
        -14    1    4    4    0    0 -0.70382210713E+01 -0.10622118486E+02 -0.17872709193E+02  0.21949936011E+02  0.00000000000E+00 0.  1.
</event>
<event>
12    1  0.1597826E-001  0.2863639E+03  0.7818608E-02  0.1092478E+00
         21   -1    0    0  503  502  0.00000000000E+00  0.00000000000E+00  0.29669027464E+03  0.29669027464E+03  0.00000000000E+00 0.  1.
         21   -1    0    0  501  503 -0.00000000000E+00 -0.00000000000E+00 -0.48477735341E+03  0.48477735341E+03  0.00000000000E+00 0. -1.
          6    2    1    2  501    0  0.75301209812E+01  0.22861447691E+03 -0.35132757012E+03  0.45324977773E+03  0.17228760174E+03 0.  0.
         24    2    3    3    0    0  0.40675938642E+02  0.16220755355E+03 -0.14833629882E+03  0.23706450784E+03  0.78930988288E+02 0.  0.
         -6    2    1    2    0  502 -0.75301209812E+01 -0.22861447691E+03  0.16324049135E+03  0.32821785032E+03  0.16958247986E+03 0.  0.
        -24    2    5    5    0    0 -0.83825213822E+01 -0.36595725387E+02  0.24872841191E+02  0.91490952537E+02  0.79639326880E+02 0.  0.
          5    1    3    3  501    0 -0.33145817660E+02  0.66406923355E+02 -0.20299127129E+03  0.21618526989E+03  0.47000000000E+01 0. -1.
        -13    1    4    4    0    0 -0.10374090295E+01 -0.85949510449E+01 -0.10782804051E+02  0.13828169227E+02  0.00000000000E+00 0.  1.
         14    1    4    4    0    0  0.41713347671E+02  0.17080250460E+03 -0.13755349477E+03  0.22323633861E+03  0.00000000000E+00 0. -1.
         -5    1    5    5    0  502  0.85240040099E+00 -0.19201875152E+03  0.13836765016E+03  0.23672689778E+03  0.47000000000E+01 0.  1.
         13    1    6    6    0    0 -0.33554577457E+02 -0.42319284936E+02  0.34333908400E+02  0.63997256283E+02  0.00000000000E+00 0. -1.
        -14    1    6    6    0    0  0.25172056075E+02  0.57235595492E+01 -0.94610672090E+01  0.27493696253E+02  0.00000000000E+00 0.  1.
</event>
<event>
12    1  0.1597826E-001  0.1999310E+03  0.7818608E-02  0.1150403E+00
         21   -1    0    0  503  502  0.00000000000E+00  0.00000000000E+00  0.13138059828E+03  0.13138059828E+03  0.00000000000E+00 0.  1.
         21   -1    0    0  501  503 -0.00000000000E+00 -0.00000000000E+00 -0.30292644397E+03  0.30292644397E+03  0.00000000000E+00 0.  1.
          6    2    1    2  501    0 -0.99306843703E+02 -0.17607127309E+02 -0.10797147740E+03  0.22722290631E+03  0.17262835538E+03 0.  0.
         24    2    3    3    0    0 -0.14956946969E+02 -0.34304323560E+01 -0.11498211223E+03  0.14127453367E+03  0.80635783635E+02 0.  0.
         -6    2    1    2    0  502  0.99306843703E+02  0.17607127309E+02 -0.63574368293E+02  0.20708413594E+03  0.16932300173E+03 0.  0.
        -24    2    5    5    0    0  0.87210834176E+02  0.73652513302E+02 -0.44182319538E+02  0.14637548505E+03  0.80270062605E+02 0.  0.
          5    1    3    3  501    0 -0.84349896733E+02 -0.14176694953E+02  0.70106348271E+01  0.85948372640E+02  0.47000000000E+01 0. -1.
        -13    1    4    4    0    0 -0.42645000997E+02 -0.13507105828E+02 -0.37475494339E+02  0.58356239545E+02  0.00000000000E+00 0.  1.
         14    1    4    4    0    0  0.27688054027E+02  0.10076673472E+02 -0.77506617886E+02  0.82918294123E+02  0.00000000000E+00 0. -1.
         -5    1    5    5    0  502  0.12096009527E+02 -0.56045385993E+02 -0.19392048756E+02  0.60708650887E+02  0.47000000000E+01 0.  1.
         13    1    6    6    0    0  0.41992431759E+01  0.54102972380E+02 -0.17164714125E+02  0.56915662823E+02  0.00000000000E+00 0. -1.
        -14    1    6    6    0    0  0.83011591000E+02  0.19549540921E+02 -0.27017605413E+02  0.89459822227E+02  0.00000000000E+00 0.  1.
</event>
<event>
12    1  0.1597826E-001  0.2031175E+03  0.7818608E-02  0.1147273E+00
         21   -1    0    0  501  502  0.00000000000E+00  0.00000000000E+00  0.61773802574E+02  0.61773802574E+02  0.00000000000E+00 0.  1.
         21   -1    0    0  502  503 -0.00000000000E+00 -0.00000000000E+00 -0.77515484691E+03  0.77515484691E+03  0.00000000000E+00 0. -1.
         -6    2    1    2    0  503 -0.68845957158E+02 -0.81189941840E+02 -0.51344829501E+03  0.55192018723E+03  0.17220676218E+03 0.  0.
        -24    2    3    3    0    0 -0.61819647284E+02 -0.86073359417E+02 -0.52238822359E+03  0.53868277356E+03  0.77842034878E+02 0.  0.
          6    2    1    2  501    0  0.68845957158E+02  0.81189941840E+02 -0.19993274932E+03  0.28500846226E+03  0.17298886332E+03 0.  0.
         24    2    5    5    0    0 -0.21038064307E+02  0.55716237066E+01 -0.60072071578E+02  0.10230551611E+03  0.79900699009E+02 0.  0.
          5    1    5    5  501    0  0.89884021466E+02  0.75618318134E+02 -0.13986067774E+03  0.18270294615E+03  0.47000000000E+01 0. -1.
        -13    1    6    6    0    0  0.73123820833E+00  0.25041532134E+02  0.95461099875E+01  0.26809350175E+02  0.00000000000E+00 0.  1.
         14    1    6    6    0    0 -0.21769302516E+02 -0.19469908427E+02 -0.69618181566E+02  0.75496165934E+02  0.00000000000E+00 0. -1.
         -5    1    3    3    0  503 -0.70263098741E+01  0.48834175769E+01  0.89399285743E+01  0.13237413667E+02  0.47000000000E+01 0.  1.
         13    1    4    4    0    0 -0.13690394423E+02 -0.81774078849E+02 -0.31352891122E+03  0.32430665279E+03  0.00000000000E+00 0. -1.
        -14    1    4    4    0    0 -0.48129252861E+02 -0.42992805681E+01 -0.20885931236E+03  0.21437612077E+03  0.00000000000E+00 0.  1.
</event>
<event>
12    1  0.1597826E-001  0.2336401E+03  0.7818608E-02  0.1124876E+00
         21   -1    0    0  503  502  0.00000000000E+00  0.00000000000E+00  0.36262888604E+03  0.36262888604E+03  0.00000000000E+00 0. -1.
         21   -1    0    0  501  503 -0.00000000000E+00 -0.00000000000E+00 -0.15702505618E+03  0.15702505618E+03  0.00000000000E+00 0.  1.
          6    2    1    2  501    0  0.15200217717E+03 -0.36694253495E+02  0.40384114360E+02  0.23710455094E+03  0.17359885160E+03 0.  0.
         24    2    3    3    0    0  0.10819713059E+03 -0.55393445943E+02 -0.33120968102E+02  0.14939121642E+03  0.80285017869E+02 0.  0.
         -6    2    1    2    0  502 -0.15200217717E+03  0.36694253495E+02  0.16521971550E+03  0.28254939128E+03  0.16758721317E+03 0.  0.
        -24    2    5    5    0    0 -0.39438063427E+02  0.66488464306E+02  0.88021298654E+02  0.14276362568E+03  0.81594283308E+02 0.  0.
          5    1    3    3  501    0  0.43805046575E+02  0.18699192448E+02  0.73505082463E+02  0.87713334513E+02  0.47000000000E+01 0. -1.
        -11    1    4    4    0    0 -0.11934750882E+02 -0.11202963824E+02 -0.10386342633E+02  0.19386097863E+02  0.00000000000E+00 0.  1.
         12    1    4    4    0    0  0.12013188147E+03 -0.44190482119E+02 -0.22734625470E+02  0.13000511856E+03  0.00000000000E+00 0. -1.
         -5    1    5    5    0  502 -0.11256411374E+03 -0.29794210810E+02  0.77198416847E+02  0.13978576560E+03  0.47000000000E+01 0.  1.
         11    1    6    6    0    0 -0.13760212200E+01 -0.45006751507E+01  0.55817181937E+02  0.56015241770E+02  0.00000000000E+00 0. -1.
        -12    1    6    6    0    0 -0.38062042207E+02  0.70989139456E+02  0.32204116717E+02  0.86748383911E+02  0.00000000000E+00 0.  1.
</event>
<event>
12    1  0.1597826E-001  0.1817496E+03  0.7818608E-02  0.1166558E+00
         21   -1    0    0  501  502  0.00000000000E+00  0.00000000000E+00  0.68064804318E+02  0.68064804318E+02  0.00000000000E+00 0.  1.
         21   -1    0    0  502  503 -0.00000000000E+00 -0.00000000000E+00 -0.10750316448E+04  0.10750316448E+04  0.00000000000E+00 0. -1.
         -6    2    1    2    0  503  0.51686433079E+02  0.31934123856E+02 -0.92966850691E+03  0.94726789401E+03  0.17129405899E+03 0.  0.
        -24    2    3    3    0    0  0.66153300963E+02  0.78402979838E+02 -0.76763827507E+03  0.77802094168E+03  0.74328849449E+02 0.  0.
          6    2    1    2  501    0 -0.51686433079E+02 -0.31934123856E+02 -0.77298333547E+02  0.19582855509E+03  0.16935913022E+03 0.  0.
         24    2    5    5    0    0 -0.36292604489E+01  0.44541178129E+01  0.18850771017E+02  0.82248907784E+02  0.79853118705E+02 0.  0.
          5    1    5    5  501    0 -0.48057172630E+02 -0.36388241669E+02 -0.96149104565E+02  0.11357964730E+03  0.47000000000E+01 0. -1.
        -13    1    6    6    0    0 -0.25467313725E+02 -0.18221811583E+02  0.34918987180E+02  0.46903668848E+02  0.00000000000E+00 0.  1.
         14    1    6    6    0    0  0.21838053276E+02  0.22675929396E+02 -0.16068216162E+02  0.35345238937E+02  0.00000000000E+00 0. -1.
         -5    1    3    3    0  503 -0.14466867884E+02 -0.46468855982E+02 -0.16203023185E+03  0.16924695234E+03  0.47000000000E+01 0.  1.
         13    1    4    4    0    0  0.32627242888E+02 -0.16632890517E+01 -0.34609575473E+03  0.34763425457E+03  0.00000000000E+00 0. -1.
        -14    1    4    4    0    0  0.33526058075E+02  0.80066268890E+02 -0.42154252034E+03  0.43038668711E+03  0.00000000000E+00 0.  1.
</event>
<event>
12    1  0.1597826E-001  0.2301018E+03  0.7818608E-02  0.1126801E+00
         21   -1    0    0  503  502  0.00000000000E+00  0.00000000000E+00  0.28212622476E+03  0.28212622476E+03  0.00000000000E+00 0.  1.
         21   -1    0    0  501  503 -0.00000000000E+00 -0.00000000000E+00 -0.30106120265E+03  0.30106120265E+03  0.00000000000E+00 0. -1.
          6    2    1    2  501    0 -0.15194086676E+03 -0.20530804385E+02  0.17034997521E+03  0.28523500853E+03  0.16980092790E+03 0.  0.
         24    2    3    3    0    0 -0.48871469313E+02  0.20681757271E+02  0.13224125445E+03  0.16777803544E+03  0.88575189543E+02 0.  0.
         -6    2    1    2    0  502  0.15194086676E+03  0.20530804385E+02 -0.18928495309E+03  0.29795241888E+03  0.17157887262E+03 0.  0.
        -24    2    5    5    0    0  0.13531911895E+02  0.63257577304E+01 -0.11661783250E+03  0.14091286159E+03  0.77676173025E+02 0.  0.
          5    1    3    3  501    0 -0.10306939745E+03 -0.41212561656E+02  0.38108720762E+02  0.11745697309E+03  0.47000000000E+01 0. -1.
        -11    1    4    4    0    0 -0.53542861947E+02  0.21330894407E+02  0.29165922489E+02  0.64594861686E+02  0.00000000000E+00 0.  1.
         12    1    4    4    0    0  0.46713926338E+01 -0.64913713647E+00  0.10307533196E+03  0.10318317375E+03  0.00000000000E+00 0. -1.
         -5    1    5    5    0  502  0.13840895487E+03  0.14205046655E+02 -0.72667120596E+02  0.15703955729E+03  0.47000000000E+01 0.  1.
         11    1    6    6    0    0  0.44633060780E+02 -0.57316491533E+01 -0.76341864838E+02  0.88617392444E+02  0.00000000000E+00 0. -1.
        -12    1    6    6    0    0 -0.31101148885E+02  0.12057406884E+02 -0.40275967659E+02  0.52295469150E+02  0.00000000000E+00 0.  1.
</event>
<event>
12    1  0.1597826E-001  0.2259486E+03  0.7818608E-02  0.1130375E+00
         21   -1    0    0  503  502  0.00000000000E+00  0.00000000000E+00  0.98354595233E+03  0.98354595233E+03  0.00000000000E+00 0. -1.
         21   -1    0    0  501  503 -0.00000000000E+00 -0.00000000000E+00 -0.55742607495E+02  0.55742607495E+02  0.00000000000E+00 0. -1.
          6    2    1    2  501    0 -0.12989579930E+03 -0.48390334060E+02  0.31420504704E+03  0.38701105873E+03  0.17843263403E+03 0.  0.
         24    2    3    3    0    0 -0.13368833994E+03  0.14104796294E+02  0.17856351348E+03  0.23754286710E+03  0.80437353576E+02 0.  0.
         -6    2    1    2    0  502  0.12989579930E+03  0.48390334060E+02  0.61359829779E+03  0.65227750110E+03  0.17247760514E+03 0.  0.
        -24    2    5    5    0    0  0.11022126326E+03 -0.32141210858E+02  0.39032184521E+03  0.41406146181E+03  0.76902321148E+02 0.  0.
          5    1    3    3  501    0  0.37925406385E+01 -0.62495130354E+02  0.13564153356E+03  0.14946819163E+03  0.47000000000E+01 0. -1.
        -11    1    4    4    0    0 -0.39992612241E+02 -0.26468908877E+02  0.91722571670E+02  0.10350382758E+03  0.00000000000E+00 0.  1.
         12    1    4    4    0    0 -0.93695727695E+02  0.40573705172E+02  0.86840941813E+02  0.13403903952E+03  0.00000000000E+00 0. -1.
         -5    1    5    5    0  502  0.19674536042E+02  0.80531544918E+02  0.22327645258E+03  0.23821603929E+03  0.47000000000E+01 0.  1.
         11    1    6    6    0    0  0.35505639896E+02  0.25392373504E+02  0.13500387006E+03  0.14188540456E+03  0.00000000000E+00 0. -1.
        -12    1    6    6    0    0  0.74715623360E+02 -0.57533584362E+02  0.25531797515E+03  0.27217605724E+03  0.00000000000E+00 0.  1.
</event>
<event>
12    1  0.1597826E-001  0.1918423E+03  0.7818608E-02  0.1156871E+00
         21   -1    0    0  503  502  0.00000000000E+00  0.00000000000E+00  0.30458042511E+03  0.30458042511E+03  0.00000000000E+00 0.  1.
         21   -1    0    0  501  503 -0.00000000000E+00 -0.00000000000E+00 -0.14565859667E+03  0.14565859667E+03  0.00000000000E+00 0.  1.
          6    2    1    2  501    0  0.79438639834E+02 -0.29765031487E+02 -0.13753472747E+02  0.19233470410E+03  0.17206692241E+03 0.  0.
         24    2    3    3    0    0  0.69114423712E+02 -0.59971562838E+02 -0.60151982708E+02  0.13581978835E+03  0.80345267258E+02 0.  0.
         -6    2    1    2    0  502 -0.79438639834E+02  0.29765031487E+02  0.17267530119E+03  0.25790431768E+03  0.17175978238E+03 0.  0.
        -24    2    5    5    0    0 -0.51859931330E+02 -0.49558239020E+02  0.94151186483E+02  0.14283523845E+03  0.79949908652E+02 0.  0.
          5    1    3    3  501    0  0.10324216122E+02  0.30206531351E+02  0.46398509960E+02  0.56514915742E+02  0.47000000000E+01 0. -1.
        -13    1    4    4    0    0  0.10580059606E+02 -0.11198902802E+02 -0.57558651666E+02  0.59584825810E+02  0.00000000000E+00 0.  1.
         14    1    4    4    0    0  0.58534364106E+02 -0.48772660036E+02 -0.25933310422E+01  0.76234962545E+02  0.00000000000E+00 0. -1.
         -5    1    5    5    0  502 -0.27578708504E+02  0.79323270507E+02  0.78524114702E+02  0.11506907924E+03  0.47000000000E+01 0.  1.
         13    1    6    6    0    0  0.79018156804E+01 -0.46499933664E+02  0.35381368402E+02  0.58962053490E+02  0.00000000000E+00 0. -1.
        -14    1    6    6    0    0 -0.59761747011E+02 -0.30583053567E+01  0.58769818081E+02  0.83873184956E+02  0.00000000000E+00 0.  1.
</event>
<event>
12    1  0.1597826E-001  0.2064250E+03  0.7818608E-02  0.1144659E+00
         21   -1    0    0  503  502  0.00000000000E+00  0.00000000000E+00  0.17469173295E+03  0.17469173295E+03  0.00000000000E+00 0. -1.
         21   -1    0    0  501  503 -0.00000000000E+00 -0.00000000000E+00 -0.24845487361E+03  0.24845487361E+03  0.00000000000E+00 0.  1.
          6    2    1    2  501    0 -0.92213571719E+02 -0.66918171526E+02 -0.69511502140E+02  0.21781448517E+03  0.17213342654E+03 0.  0.
         24    2    3    3    0    0 -0.96987145441E+02 -0.36752884980E+02 -0.10701549738E+03  0.16922054339E+03  0.80162302184E+02 0.  0.
         -6    2    1    2    0  502  0.92213571719E+02  0.66918171526E+02 -0.42516385242E+01  0.20533212139E+03  0.17076832011E+03 0.  0.
        -24    2    5    5    0    0  0.91933886365E+02  0.10729365954E+03 -0.16472480847E+02  0.16288571702E+03  0.79351404185E+02 0.  0.
          5    1    3    3  501    0  0.47735737223E+01 -0.30165286546E+02  0.37503995243E+02  0.48593941779E+02  0.47000000000E+01 0. -1.
        -13    1    4    4    0    0 -0.10828372156E+03 -0.34695578232E+02 -0.77651427708E+02  0.13769129141E+03  0.00000000000E+00 0.  1.
         14    1    4    4    0    0  0.11296576120E+02 -0.20573067480E+01 -0.29364069675E+02  0.31529251988E+02  0.00000000000E+00 0. -1.
         -5    1    5    5    0  502  0.27968535388E+00 -0.40375488012E+02  0.12220842323E+02  0.42446404361E+02  0.47000000000E+01 0.  1.
         13    1    6    6    0    0  0.66799811513E+02  0.35360778199E+02  0.20326967086E+02  0.78267394513E+02  0.00000000000E+00 0. -1.
        -14    1    6    6    0    0  0.25134074852E+02  0.71932881340E+02 -0.36799447933E+02  0.84618322512E+02  0.00000000000E+00 0.  1.
</event>
<event>
12    1  0.1597826E-001  0.1906363E+03  0.7818608E-02  0.1158391E+00
         21   -1    0    0  501  502  0.00000000000E+00  0.00000000000E+00  0.98071314946E+02  0.98071314946E+02  0.00000000000E+00 0. -1.
         21   -1    0    0  502  503 -0.00000000000E+00 -0.00000000000E+00 -0.58193983415E+03  0.58193983415E+03  0.00000000000E+00 0.  1.
         -6    2    1    2    0  503  0.36072968876E+02 -0.74055881970E+02 -0.44981926118E+03  0.48854843598E+03  0.17192054513E+03 0.  0.
        -24    2    3    3    0    0  0.11946818496E+02 -0.70806656231E+02 -0.13543534930E+03  0.17318838359E+03  0.80592638191E+02 0.  0.
          6    2    1    2  501    0 -0.36072968876E+02  0.74055881970E+02 -0.34049258024E+02  0.19146271311E+03  0.16944936058E+03 0.  0.
         24    2    5    5    0    0  0.15301298689E+01 -0.23220434091E+02 -0.27491382377E+02  0.86859795205E+02  0.79039977614E+02 0.  0.
          5    1    5    5  501    0 -0.37603098745E+02  0.97276316061E+02 -0.65578756475E+01  0.10460291791E+03  0.47000000000E+01 0. -1.
        -13    1    6    6    0    0 -0.20909454423E+02 -0.45625451485E+02 -0.12172812947E+02  0.51643629641E+02  0.00000000000E+00 0.  1.
         14    1    6    6    0    0  0.22439584292E+02  0.22405017394E+02 -0.15318569430E+02  0.35216165564E+02  0.00000000000E+00 0. -1.
         -5    1    3    3    0  503  0.24126150380E+02 -0.32492257388E+01 -0.31438391188E+03  0.31536005240E+03  0.47000000000E+01 0.  1.
         11    1    4    4    0    0  0.21445078463E+02 -0.73689406408E+01  0.71202608964E+00  0.22686993137E+02  0.00000000000E+00 0. -1.
        -12    1    4    4    0    0 -0.94982599674E+01 -0.63437715591E+02 -0.13614737539E+03  0.15050139045E+03  0.00000000000E+00 0.  1.
</event>
<event>
12    1  0.1597826E-001  0.2759725E+03  0.7818608E-02  0.1098280E+00
         21   -1    0    0  501  502  0.00000000000E+00  0.00000000000E+00  0.38211828573E+03  0.38211828573E+03  0.00000000000E+00 0. -1.
         21   -1    0    0  502  503 -0.00000000000E+00 -0.00000000000E+00 -0.21168510480E+03  0.21168510480E+03  0.00000000000E+00 0.  1.
         -6    2    1    2    0  503 -0.13728929685E+03 -0.16292218756E+03  0.84776326181E+01  0.27610271490E+03  0.17541051477E+03 0.  0.
        -24    2    3    3    0    0 -0.26379721709E+01 -0.79678458334E+02  0.16918737877E+02  0.11750309337E+03  0.84647017900E+02 0.  0.
          6    2    1    2  501    0  0.13728929685E+03  0.16292218756E+03  0.16195554832E+03  0.31770067563E+03  0.17120785448E+03 0.  0.
         24    2    5    5    0    0  0.10219658088E+03  0.97492293091E+02  0.29321517243E+02  0.16562685802E+03  0.81385602950E+02 0.  0.
          5    1    5    5  501    0  0.35092715968E+02  0.65429894468E+02  0.13263403108E+03  0.15207381761E+03  0.47000000000E+01 0. -1.
        -11    1    6    6    0    0  0.73848770634E+02  0.14909765695E+02  0.19067577355E+02  0.77714313633E+02  0.00000000000E+00 0.  1.
         12    1    6    6    0    0  0.28347810246E+02  0.82582527396E+02  0.10253939888E+02  0.87912544384E+02  0.00000000000E+00 0. -1.
         -5    1    3    3    0  503 -0.13465132468E+03 -0.83243729225E+02 -0.84411052585E+01  0.15859962153E+03  0.47000000000E+01 0.  1.
         11    1    4    4    0    0  0.47823645240E+01  0.17780055388E+02  0.46944278044E+01  0.19001027142E+02  0.00000000000E+00 0. -1.
        -12    1    4    4    0    0 -0.74203366949E+01 -0.97458513722E+02  0.12224310072E+02  0.98502066223E+02  0.00000000000E+00 0.  1.
</event>
<event>
12    1  0.1597826E-001  0.2004528E+03  0.7818608E-02  0.1151106E+00
         21   -1    0    0  503  502  0.00000000000E+00  0.00000000000E+00  0.21793747195E+03  0.21793747195E+03  0.00000000000E+00 0.  1.
         21   -1    0    0  501  503 -0.00000000000E+00 -0.00000000000E+00 -0.27110305847E+03  0.27110305847E+03  0.00000000000E+00 0.  1.
          6    2    1    2  501    0  0.74137461026E+02  0.43926072179E+02 -0.17100793014E+03  0.26348633219E+03  0.18098472901E+03 0.  0.
         24    2    3    3    0    0 -0.22021215395E+02 -0.11968972493E+02 -0.11331305828E+03  0.13810078554E+03  0.74858450151E+02 0.  0.
         -6    2    1    2    0  502 -0.74137461026E+02 -0.43926072179E+02  0.11784234362E+03  0.22555419823E+03  0.17193607953E+03 0.  0.
        -24    2    5    5    0    0 -0.65975134985E+02  0.19587526066E+02  0.17693988969E+02  0.10659040681E+03  0.79448398125E+02 0.  0.
          5    1    3    3  501    0  0.96158676421E+02  0.55895044672E+02 -0.57694871864E+02  0.12538554665E+03  0.47000000000E+01 0. -1.
        -13    1    4    4    0    0  0.25146893116E+02 -0.68645063874E+01 -0.66602078079E+02  0.71521496669E+02  0.00000000000E+00 0.  1.
         14    1    4    4    0    0 -0.47168108511E+02 -0.51044661052E+01 -0.46710980199E+02  0.66579288866E+02  0.00000000000E+00 0. -1.
         -5    1    5    5    0  502 -0.81623260407E+01 -0.63513598246E+02  0.10014835465E+03  0.11896379142E+03  0.47000000000E+01 0.  1.
         11    1    6    6    0    0 -0.40716886241E+02 -0.74244476835E+01 -0.26361669549E+02  0.49070611062E+02  0.00000000000E+00 0. -1.
        -12    1    6    6    0    0 -0.25258248744E+02  0.27011973750E+02  0.44055658518E+02  0.57519795748E+02  0.00000000000E+00 0.  1.
</event>
<event>
12    1  0.1597826E-001  0.2116903E+03  0.7818608E-02  0.1140260E+00
         21   -1    0    0  503  502  0.00000000000E+00  0.00000000000E+00  0.51869260140E+03  0.51869260140E+03  0.00000000000E+00 0.  1.
         21   -1    0    0  501  503 -0.00000000000E+00 -0.00000000000E+00 -0.11467658179E+03  0.11467658179E+03  0.00000000000E+00 0.  1.
          6    2    1    2  501    0 -0.11622733091E+03 -0.41778024716E+02  0.44544545496E+02  0.21619710875E+03  0.17176372579E+03 0.  0.
         24    2    3    3    0    0 -0.12344584423E+03 -0.44987959102E+01 -0.14770335493E+02  0.14561245785E+03  0.75668417784E+02 0.  0.
         -6    2    1    2    0  502  0.11622733091E+03  0.41778024716E+02  0.35947147412E+03  0.41717207444E+03  0.17192615622E+03 0.  0.
        -24    2    5    5    0    0  0.10244528353E+03 -0.32018155955E+02  0.26546540988E+03  0.29677667908E+03  0.78002019039E+02 0.  0.
          5    1    3    3  501    0  0.72185133138E+01 -0.37279228806E+02  0.59314880989E+02  0.70584650893E+02  0.47000000000E+01 0. -1.
        -11    1    4    4    0    0 -0.12663108101E+03 -0.20019053533E+02 -0.82166238153E+01  0.12846675090E+03  0.00000000000E+00 0.  1.
         12    1    4    4    0    0  0.31852367783E+01  0.15520257623E+02 -0.65537116778E+01  0.17145706949E+02  0.00000000000E+00 0. -1.
         -5    1    5    5    0  502  0.13782047383E+02  0.73796180672E+02  0.94006064239E+02  0.12039539537E+03  0.47000000000E+01 0.  1.
         11    1    6    6    0    0  0.27946448621E+02 -0.29720760175E+02  0.32441128062E+02  0.52122493857E+02  0.00000000000E+00 0. -1.
        -12    1    6    6    0    0  0.74498834910E+02 -0.22973957804E+01  0.23302428181E+03  0.24465418522E+03  0.00000000000E+00 0.  1.
</event>
<event>
12    1  0.1597826E-001  0.2471216E+03  0.7818608E-02  0.1115180E+00
         21   -1    0    0  501  502  0.00000000000E+00  0.00000000000E+00  0.50003610051E+03  0.50003610051E+03  0.00000000000E+00 0.  1.
         21   -1    0    0  502  503 -0.00000000000E+00 -0.00000000000E+00 -0.20266909768E+03  0.20266909768E+03  0.00000000000E+00 0. -1.
         -6    2    1    2    0  503 -0.15550318846E+02 -0.17677383886E+03  0.37030604764E+03  0.44504419846E+03  0.17160118631E+03 0.  0.
        -24    2    3    3    0    0 -0.13642585515E+02 -0.70356392454E+02  0.74754138902E+02  0.13087651536E+03  0.80027113472E+02 0.  0.
          6    2    1    2  501    0  0.15550318846E+02  0.17677383886E+03 -0.72939044815E+02  0.25766099972E+03  0.17198338292E+03 0.  0.
         24    2    5    5    0    0  0.99915645150E+01  0.10908966522E+02 -0.26897068170E+02  0.85370520479E+02  0.79660759341E+02 0.  0.
          5    1    5    5  501    0  0.55587543314E+01  0.16586487234E+03 -0.46041976645E+02  0.17229047924E+03  0.47000000000E+01 0. -1.
        -11    1    6    6    0    0  0.30570856086E+02 -0.24623974494E+02 -0.75296730735E+01  0.39970155595E+02  0.00000000000E+00 0.  1.
         12    1    6    6    0    0 -0.20579291571E+02  0.35532941016E+02 -0.19367395096E+02  0.45400364884E+02  0.00000000000E+00 0. -1.
         -5    1    3    3    0  503 -0.19077333310E+01 -0.10641744640E+03  0.29555190874E+03  0.31416768310E+03  0.47000000000E+01 0.  1.
         13    1    4    4    0    0  0.14328879804E+02 -0.75163933717E+02  0.66346382880E+02  0.10127574364E+03  0.00000000000E+00 0. -1.
        -14    1    4    4    0    0 -0.27971465319E+02  0.48075412629E+01  0.84077560224E+01  0.29600771720E+02  0.00000000000E+00 0.  1.
</event>
<event>
12    1  0.1597826E-001  0.2345644E+03  0.7818608E-02  0.1123743E+00
         21   -1    0    0  501  502  0.00000000000E+00  0.00000000000E+00  0.60247265855E+03  0.60247265855E+03  0.00000000000E+00 0.  1.
         21   -1    0    0  502  503 -0.00000000000E+00 -0.00000000000E+00 -0.12017386986E+03  0.12017386986E+03  0.00000000000E+00 0. -1.
         -6    2    1    2    0  503  0.26761263228E+02 -0.15683108553E+03  0.61599014134E+02  0.24097366346E+03  0.17018141302E+03 0.  0.
        -24    2    3    3    0    0 -0.27277435905E+02 -0.14193444744E+03  0.11251761686E+02  0.16548176548E+03  0.79800793775E+02 0.  0.
          6    2    1    2  501    0 -0.26761263228E+02  0.15683108553E+03  0.42069977455E+03  0.48167286496E+03  0.17236094085E+03 0.  0.
         24    2    5    5    0    0 -0.49357893566E+02  0.99130652170E+02  0.38755999301E+03  0.41124358956E+03  0.81580965390E+02 0.  0.
          5    1    5    5  501    0  0.22596630338E+02  0.57700433362E+02  0.33139781545E+02  0.70429275402E+02  0.47000000000E+01 0. -1.
        -13    1    6    6    0    0  0.18694312465E+02  0.10416603025E+02  0.10902003655E+03  0.11110063594E+03  0.00000000000E+00 0.  1.
         14    1    6    6    0    0 -0.68052206031E+02  0.88714049146E+02  0.27853995646E+03  0.30014295362E+03  0.00000000000E+00 0. -1.
         -5    1    3    3    0  503  0.54038699133E+02 -0.14896638096E+02  0.50347252449E+02  0.75491897974E+02  0.47000000000E+01 0.  1.
         11    1    4    4    0    0 -0.34437087562E+02 -0.15093196703E+02 -0.25800858425E+01  0.37687855198E+02  0.00000000000E+00 0. -1.
        -12    1    4    4    0    0  0.71596516568E+01 -0.12684125073E+03  0.13831847528E+02  0.12779391028E+03  0.00000000000E+00 0.  1.
</event>
<event>
12    1  0.1597826E-001  0.1810951E+03  0.7818608E-02  0.1167248E+00
         21   -1    0    0  501  502  0.00000000000E+00  0.00000000000E+00  0.65943184061E+03  0.65943184061E+03  0.00000000000E+00 0.  1.
         21   -1    0    0  502  503 -0.00000000000E+00 -0.00000000000E+00 -0.71059525574E+02  0.71059525574E+02  0.00000000000E+00 0. -1.
         -6    2    1    2    0  503 -0.55259103447E+02  0.17628493729E+02  0.90274905671E+02  0.20049471543E+03  0.16936422295E+03 0.  0.
        -24    2    3    3    0    0 -0.73933993494E+01  0.49385115441E+01  0.11794387937E+03  0.14357526900E+03  0.81388254299E+02 0.  0.
          6    2    1    2  501    0  0.55259103447E+02 -0.17628493729E+02  0.49809740936E+03  0.52999665075E+03  0.17155491334E+03 0.  0.
         24    2    5    5    0    0  0.10302941048E+03 -0.39912131221E+01  0.37063654113E+03  0.39311589759E+03  0.80855884819E+02 0.  0.
          5    1    5    5  501    0 -0.47770307034E+02 -0.13637280607E+02  0.12746086823E+03  0.13688075317E+03  0.47000000000E+01 0. -1.
        -13    1    6    6    0    0  0.48867550698E+02  0.29198287883E+02  0.25402626956E+03  0.26032657020E+03  0.00000000000E+00 0.  1.
         14    1    6    6    0    0  0.54161859782E+02 -0.33189501006E+02  0.11661027157E+03  0.13278932738E+03  0.00000000000E+00 0. -1.
         -5    1    3    3    0  503 -0.47865704098E+02  0.12689982185E+02 -0.27668973694E+02  0.56919446431E+02  0.47000000000E+01 0.  1.
         13    1    4    4    0    0 -0.11642414170E+02  0.13821776581E+01 -0.10061758675E+02  0.15449764090E+02  0.00000000000E+00 0. -1.
        -14    1    4    4    0    0  0.42490148211E+01  0.35563338860E+01  0.12800563804E+03  0.12812550491E+03  0.00000000000E+00 0.  1.
</event>
<event>
12    1  0.1597826E-001  0.1775256E+03  0.7818608E-02  0.1170225E+00
         21   -1    0    0  501  502  0.00000000000E+00  0.00000000000E+00  0.53004896060E+03  0.53004896060E+03  0.00000000000E+00 0. -1.
         21   -1    0    0  502  503 -0.00000000000E+00 -0.00000000000E+00 -0.94657842295E+02  0.94657842295E+02  0.00000000000E+00 0. -1.
         -6    2    1    2    0  503 -0.10805927003E+02  0.37043967057E+02  0.27207490960E+02  0.17959843548E+03  0.17328106333E+03 0.  0.
        -24    2    3    3    0    0 -0.11911288024E+02 -0.47194102837E+02  0.11543918530E+02  0.93780536746E+02  0.79324428093E+02 0.  0.
          6    2    1    2  501    0  0.10805927003E+02 -0.37043967057E+02  0.40818362735E+03  0.44510836741E+03  0.17325865506E+03 0.  0.
         24    2    5    5    0    0 -0.23058423351E+00 -0.69293139033E+01  0.40458431238E+03  0.41249330980E+03  0.80088677384E+02 0.  0.
          5    1    5    5  501    0  0.11036511237E+02 -0.30114653154E+02  0.35993149665E+01  0.32615057613E+02  0.47000000000E+01 0. -1.
        -13    1    6    6    0    0 -0.16354836781E+02 -0.50347872963E+01  0.15555311651E+02  0.23125688958E+02  0.00000000000E+00 0.  1.
         14    1    6    6    0    0  0.16124252547E+02 -0.18945266071E+01  0.38902900073E+03  0.38936762084E+03  0.00000000000E+00 0. -1.
         -5    1    3    3    0  503  0.11053610208E+01  0.84238069895E+02  0.15663572430E+02  0.85817898738E+02  0.47000000000E+01 0.  1.
         13    1    4    4    0    0  0.43541899643E+01 -0.18885612677E+02 -0.33169125939E+02  0.38416353965E+02  0.00000000000E+00 0. -1.
        -14    1    4    4    0    0 -0.16265477988E+02 -0.28308490160E+02  0.44713044468E+02  0.55364182781E+02  0.00000000000E+00 0.  1.
</event>
<event>
12    1  0.1597826E-001  0.1791792E+03  0.7818608E-02  0.1168713E+00
         21   -1    0    0  501  502  0.00000000000E+00  0.00000000000E+00  0.66686384191E+03  0.66686384191E+03  0.00000000000E+00 0. -1.
         21   -1    0    0  502  503 -0.00000000000E+00 -0.00000000000E+00 -0.70423260958E+02  0.70423260958E+02  0.00000000000E+00 0. -1.
         -6    2    1    2    0  503 -0.45737421957E+02 -0.10137338715E+02  0.90026089951E+02  0.20010851872E+03  0.17246461953E+03 0.  0.
        -24    2    3    3    0    0  0.42364213744E+02 -0.79120933727E+01  0.40232683115E+02  0.98775783169E+02  0.79250607078E+02 0.  0.
          6    2    1    2  501    0  0.45737421957E+02  0.10137338715E+02  0.50641449100E+03  0.53717858415E+03  0.17294657316E+03 0.  0.
         24    2    5    5    0    0 -0.43721753121E+02 -0.58633552036E+00  0.28460910206E+03  0.29772574587E+03  0.75672605977E+02 0.  0.
          5    1    5    5  501    0  0.89459175077E+02  0.10723674235E+02  0.22180538894E+03  0.23945283827E+03  0.47000000000E+01 0. -1.
        -11    1    6    6    0    0  0.76840431987E+01  0.17669994831E+02  0.16668746901E+03  0.16779745398E+03  0.00000000000E+00 0.  1.
         12    1    6    6    0    0 -0.51405796319E+02 -0.18256330352E+02  0.11792163304E+03  0.12992829189E+03  0.00000000000E+00 0. -1.
         -5    1    3    3    0  503 -0.88101635700E+02 -0.22252453422E+01  0.49793406836E+02  0.10133273555E+03  0.47000000000E+01 0.  1.
         11    1    4    4    0    0  0.63755233483E+01  0.18586091942E+02  0.49390511350E+02  0.53155552138E+02  0.00000000000E+00 0. -1.
        -12    1    4    4    0    0  0.35988690395E+02 -0.26498185314E+02 -0.91578282349E+01  0.45620231031E+02  0.00000000000E+00 0.  1.
</event>
<event>
12    1  0.1597826E-001  0.1757806E+03  0.7818608E-02  0.1171959E+00
         21   -1    0    0  503  502  0.00000000000E+00  0.00000000000E+00  0.92003071747E+02  0.92003071747E+02  0.00000000000E+00 0.  1.
         21   -1    0    0  501  503 -0.00000000000E+00 -0.00000000000E+00 -0.96187352434E+03  0.96187352434E+03  0.00000000000E+00 0.  1.
          6    2    1    2  501    0  0.34825169748E+02 -0.10695717964E+02 -0.86007958269E+03  0.87785858322E+03  0.17196398673E+03 0.  0.
         24    2    3    3    0    0 -0.26894999271E+02  0.23990692574E+02 -0.63670197419E+03  0.64348244893E+03  0.85914863891E+02 0.  0.
         -6    2    1    2    0  502 -0.34825169748E+02  0.10695717964E+02 -0.97908699070E+01  0.17601801288E+03  0.17192815038E+03 0.  0.
        -24    2    5    5    0    0 -0.79447819133E+01  0.38521435511E+02  0.53061714701E+02  0.10206286972E+03  0.77809146347E+02 0.  0.
          5    1    3    3  501    0  0.61720169019E+02 -0.34686410538E+02 -0.22337760850E+03  0.23437613428E+03  0.47000000000E+01 0. -1.
        -11    1    4    4    0    0 -0.55587029886E+02  0.15450676368E+02 -0.30325669183E+03  0.30869606805E+03  0.00000000000E+00 0.  1.
         12    1    4    4    0    0  0.28692030615E+02  0.85400162054E+01 -0.33344528236E+03  0.33478638088E+03  0.00000000000E+00 0. -1.
         -5    1    5    5    0  502 -0.26880387835E+02 -0.27825717547E+02 -0.62852584608E+02  0.73955143155E+02  0.47000000000E+01 0.  1.
         11    1    6    6    0    0  0.44868755812E+01 -0.38433243551E+01 -0.17698365873E+02  0.18658385492E+02  0.00000000000E+00 0. -1.
        -12    1    6    6    0    0 -0.12431657495E+02  0.42364759866E+02  0.70760080574E+02  0.83404484229E+02  0.00000000000E+00 0.  1.
</event>
<event>
12    1  0.1597826E-001  0.2363453E+03  0.7818608E-02  0.1122273E+00
         21   -1    0    0  501  502  0.00000000000E+00  0.00000000000E+00  0.41211814664E+03  0.41211814664E+03  0.00000000000E+00 0. -1.
         21   -1    0    0  502  503 -0.00000000000E+00 -0.00000000000E+00 -0.27007522998E+03  0.27007522998E+03  0.00000000000E+00 0. -1.
         -6    2    1    2    0  503 -0.16161139973E+03 -0.11245308623E+02 -0.16977546724E+03  0.29100308483E+03  0.17208830470E+03 0.  0.
        -24    2    3    3    0    0 -0.18883377820E+03 -0.30381875855E+02 -0.15876818616E+03  0.25564044449E+03  0.59694604033E+02 0.  0.
          6    2    1    2  501    0  0.16161139973E+03  0.11245308623E+02  0.31181838391E+03  0.39119029179E+03  0.17191404352E+03 0.  0.
         24    2    5    5    0    0  0.18827867374E+03 -0.26639685955E+01  0.27999426760E+03  0.34715081093E+03  0.81614581573E+02 0.  0.
          5    1    5    5  501    0 -0.26667274010E+02  0.13909277219E+02  0.31824116307E+02  0.44039480863E+02  0.47000000000E+01 0. -1.
        -11    1    6    6    0    0  0.97183333895E-01 -0.15906413225E+02  0.14975237964E+02  0.21846765856E+02  0.00000000000E+00 0.  1.
         12    1    6    6    0    0  0.18818149041E+03  0.13242444630E+02  0.26501902964E+03  0.32530404507E+03  0.00000000000E+00 0. -1.
         -5    1    3    3    0  503  0.27222378471E+02  0.19136567232E+02 -0.11007281082E+02  0.35362640341E+02  0.47000000000E+01 0.  1.
         11    1    4    4    0    0 -0.90115779940E+02 -0.10640088421E+01 -0.10850003914E+03  0.14104695815E+03  0.00000000000E+00 0. -1.
        -12    1    4    4    0    0 -0.98717998260E+02 -0.29317867013E+02 -0.50268147022E+02  0.11459348634E+03  0.00000000000E+00 0.  1.
</event>
<event>
12    1  0.1597826E-001  0.1820984E+03  0.7818608E-02  0.1166191E+00
         21   -1    0    0  501  502  0.00000000000E+00  0.00000000000E+00  0.16569479173E+04  0.16569479173E+04  0.00000000000E+00 0.  1.
         21   -1    0    0  502  503 -0.00000000000E+00 -0.00000000000E+00 -0.20397454512E+02  0.20397454512E+02  0.00000000000E+00 0. -1.
         -6    2    1    2    0  503 -0.43945346718E+02  0.36571037458E+02  0.95470761318E+03  0.97160498276E+03  0.17111686526E+03 0.  0.
        -24    2    3    3    0    0 -0.66662325573E+02  0.68364568875E+02  0.51438223136E+03  0.52952419642E+03  0.81787619680E+02 0.  0.
          6    2    1    2  501    0  0.43945346718E+02 -0.36571037458E+02  0.68184284960E+03  0.70574038905E+03  0.17289069062E+03 0.  0.
         24    2    5    5    0    0  0.29608623697E+02 -0.63076273643E+02  0.65917954231E+03  0.66774322245E+03  0.80672518433E+02 0.  0.
          5    1    5    5  501    0  0.14336723022E+02  0.26505236185E+02  0.22663307286E+02  0.37997166597E+02  0.47000000000E+01 0. -1.
        -11    1    6    6    0    0  0.30881073319E+02  0.10352030512E+02  0.17153791925E+03  0.17460258580E+03  0.00000000000E+00 0.  1.
         12    1    6    6    0    0 -0.12724496221E+01 -0.73428304155E+02  0.48764162306E+03  0.49314063665E+03  0.00000000000E+00 0. -1.
         -5    1    3    3    0  503  0.22716978855E+02 -0.31793531417E+02  0.44032538183E+03  0.44208078634E+03  0.47000000000E+01 0.  1.
         13    1    4    4    0    0  0.99794837373E+01  0.43957956550E+02  0.17015181035E+03  0.17602139246E+03  0.00000000000E+00 0. -1.
        -14    1    4    4    0    0 -0.76641809311E+02  0.24406612324E+02  0.34423042101E+03  0.35350280396E+03  0.00000000000E+00 0.  1.
</event>
<event>
12    1  0.1597826E-001  0.3928685E+03  0.7818608E-02  0.1046316E+00
         21   -1    0    0  503  502  0.00000000000E+00  0.00000000000E+00  0.41663360853E+03  0.41663360853E+03  0.00000000000E+00 0. -1.
         21   -1    0    0  501  503 -0.00000000000E+00 -0.00000000000E+00 -0.48822375378E+03  0.48822375378E+03  0.00000000000E+00 0.  1.
          6    2    1    2  501    0  0.21891234379E+03  0.27649795257E+03 -0.25836630573E+03  0.46985046439E+03  0.17214115985E+03 0.  0.
         24    2    3    3    0    0  0.12692264146E+03  0.75819001619E+02 -0.14295862433E+03  0.22070157394E+03  0.80088317165E+02 0.  0.
         -6    2    1    2    0  502 -0.21891234379E+03 -0.27649795257E+03  0.18677616048E+03  0.43500689791E+03  0.17312404534E+03 0.  0.
        -24    2    5    5    0    0 -0.65013530185E+02 -0.18780801331E+03  0.11489401423E+03  0.24333039152E+03  0.80687272607E+02 0.  0.
          5    1    3    3  501    0  0.91989702333E+02  0.20067895095E+03 -0.11540768140E+03  0.24914889046E+03  0.47000000000E+01 0. -1.
        -11    1    4    4    0    0  0.75211661694E+02  0.84490169690E+02 -0.78874044006E+02  0.13790031779E+03  0.00000000000E+00 0.  1.
         12    1    4    4    0    0  0.51710979763E+02 -0.86711680712E+01 -0.64084580325E+02  0.82801256145E+02  0.00000000000E+00 0. -1.
         -5    1    5    5    0  502 -0.15389881360E+03 -0.88689939254E+02  0.71882146246E+02  0.19167650639E+03  0.47000000000E+01 0.  1.
         11    1    6    6    0    0 -0.64779149587E+02 -0.65312210471E+02  0.50546081531E+02  0.10496156161E+03  0.00000000000E+00 0. -1.
        -12    1    6    6    0    0 -0.23438059813E+00 -0.12249580284E+03  0.64347932701E+02  0.13836882991E+03  0.00000000000E+00 0.  1.
</event>
<event>
12    1  0.1597826E-001  0.2259007E+03  0.7818608E-02  0.1129778E+00
         21   -1    0    0  503  502  0.00000000000E+00  0.00000000000E+00  0.63405821681E+03  0.63405821681E+03  0.00000000000E+00 0. -1.
         21   -1    0    0  501  503 -0.00000000000E+00 -0.00000000000E+00 -0.80348555058E+02  0.80348555058E+02  0.00000000000E+00 0. -1.
          6    2    1    2  501    0  0.13296854962E+03  0.65870655792E+02  0.25591213319E+03  0.34135337378E+03  0.17032770589E+03 0.  0.
         24    2    3    3    0    0  0.69033365965E+02  0.63495583859E+02  0.24533451459E+03  0.27633549400E+03  0.85877741064E+02 0.  0.
         -6    2    1    2    0  502 -0.13296854962E+03 -0.65870655792E+02  0.29779752856E+03  0.37305339809E+03  0.16871837875E+03 0.  0.
        -24    2    5    5    0    0 -0.19423133521E+02 -0.37106503213E+02  0.47603091237E+02  0.96757751260E+02  0.73088011582E+02 0.  0.
          5    1    3    3  501    0  0.63935183651E+02  0.23750719327E+01  0.10577618603E+02  0.65017879776E+02  0.47000000000E+01 0. -1.
        -11    1    4    4    0    0  0.11771290910E+02 -0.19014464698E+02  0.78309578908E+02  0.81440182381E+02  0.00000000000E+00 0.  1.
         12    1    4    4    0    0  0.57262075055E+02  0.82510048557E+02  0.16702493568E+03  0.19489531162E+03  0.00000000000E+00 0. -1.
         -5    1    5    5    0  502 -0.11354541610E+03 -0.28764152578E+02  0.25019443732E+03  0.27629564683E+03  0.47000000000E+01 0.  1.
         11    1    6    6    0    0 -0.44185876287E+02 -0.84396808048E+01  0.34441019620E+02  0.56655129581E+02  0.00000000000E+00 0. -1.
        -12    1    6    6    0    0  0.24762742766E+02 -0.28666822409E+02  0.13162071617E+02  0.40102621679E+02  0.00000000000E+00 0.  1.
</event>
<event>
12    1  0.1597826E-001  0.1782554E+03  0.7818608E-02  0.1169712E+00
         21   -1    0    0  503  502  0.00000000000E+00  0.00000000000E+00  0.84363318448E+03  0.84363318448E+03  0.00000000000E+00 0. -1.
         21   -1    0    0  501  503 -0.00000000000E+00 -0.00000000000E+00 -0.54274312600E+02  0.54274312600E+02  0.00000000000E+00 0. -1.
          6    2    1    2  501    0  0.44152235242E+02 -0.13482964548E+02  0.14431570333E+03  0.22868730043E+03  0.17128820432E+03 0.  0.
         24    2    3    3    0    0 -0.21849038823E+02  0.24665198658E+02  0.11832040019E+03  0.14800709022E+03  0.82587100275E+02 0.  0.
         -6    2    1    2    0  502 -0.44152235242E+02  0.13482964548E+02  0.64504316855E+03  0.66922019666E+03  0.17217366844E+03 0.  0.
        -24    2    5    5    0    0 -0.50694459289E+01  0.43152572133E+02  0.57732062149E+03  0.58545753543E+03  0.87026329533E+02 0.  0.
          5    1    3    3  501    0  0.66001274066E+02 -0.38148163206E+02  0.25995303146E+02  0.80680210213E+02  0.47000000000E+01 0. -1.
        -13    1    4    4    0    0  0.27871715739E+02  0.21289957119E+02  0.71449218730E+02  0.79593251406E+02  0.00000000000E+00 0.  1.
         14    1    4    4    0    0 -0.49720754562E+02  0.33752415394E+01  0.46871181456E+02  0.68413838810E+02  0.00000000000E+00 0. -1.
         -5    1    5    5    0  502 -0.39082789314E+02 -0.29669607585E+02  0.67722547063E+02  0.83762661225E+02  0.47000000000E+01 0.  1.
         11    1    6    6    0    0  0.23928712337E+02  0.42732039788E+02  0.16491922581E+03  0.17203767477E+03  0.00000000000E+00 0. -1.
        -12    1    6    6    0    0 -0.28998158266E+02  0.42053234498E+00  0.41240139568E+03  0.41341986066E+03  0.00000000000E+00 0.  1.
</event>
<event>
12    1  0.1597826E-001  0.1850762E+03  0.7818608E-02  0.1163193E+00
         21   -1    0    0  501  502  0.00000000000E+00  0.00000000000E+00  0.25970380027E+03  0.25970380027E+03  0.00000000000E+00 0. -1.
         21   -1    0    0  502  503 -0.00000000000E+00 -0.00000000000E+00 -0.24891612046E+03  0.24891612046E+03  0.00000000000E+00 0. -1.
         -6    2    1    2    0  503 -0.45670204847E+02  0.47909036434E+02 -0.16946865129E+03  0.25026834511E+03  0.17185336020E+03 0.  0.
        -24    2    3    3    0    0 -0.96441135304E+02  0.42810316475E+02 -0.12231164933E+03  0.18062958322E+03  0.80828775782E+02 0.  0.
          6    2    1    2  501    0  0.45670204847E+02 -0.47909036434E+02  0.18025633110E+03  0.25835157563E+03  0.17283561075E+03 0.  0.
         24    2    5    5    0    0  0.64076343788E+02  0.25624776342E+02  0.98898743407E+02  0.14705398065E+03  0.84151677234E+02 0.  0.
          5    1    5    5  501    0 -0.18406138941E+02 -0.73533812775E+02  0.81357587696E+02  0.11129759498E+03  0.47000000000E+01 0. -1.
        -11    1    6    6    0    0 -0.20685692211E+02  0.24146793170E+01  0.21747245398E+02  0.30110981732E+02  0.00000000000E+00 0.  1.
         12    1    6    6    0    0  0.84762035999E+02  0.23210097025E+02  0.77151498009E+02  0.11694299892E+03  0.00000000000E+00 0. -1.
         -5    1    3    3    0  503  0.50770930457E+02  0.50987199583E+01 -0.47157001952E+02  0.69638761891E+02  0.47000000000E+01 0.  1.
         11    1    4    4    0    0  0.78946936549E+01  0.16951352828E+02 -0.43474737473E+02  0.47325757774E+02  0.00000000000E+00 0. -1.
        -12    1    4    4    0    0 -0.10433582896E+03  0.25858963647E+02 -0.78836911862E+02  0.13330382544E+03  0.00000000000E+00 0.  1.
</event>
<event>
12    1  0.1597826E-001  0.2553948E+03  0.7818608E-02  0.1110370E+00
         21   -1    0    0  501  502  0.00000000000E+00  0.00000000000E+00  0.50246643317E+03  0.50246643317E+03  0.00000000000E+00 0.  1.
         21   -1    0    0  502  503 -0.00000000000E+00 -0.00000000000E+00 -0.13167991665E+03  0.13167991665E+03  0.00000000000E+00 0. -1.
         -6    2    1    2    0  503  0.21540101119E+02  0.18699768339E+03  0.13445521647E+03  0.28618229505E+03  0.16849329725E+03 0.  0.
        -24    2    3    3    0    0 -0.17118891311E+02  0.29393077229E+02  0.21271384976E+02  0.88277269119E+02  0.78634566163E+02 0.  0.
          6    2    1    2  501    0 -0.21540101119E+02 -0.18699768339E+03  0.23633130005E+03  0.34796405477E+03  0.17261051671E+03 0.  0.
         24    2    5    5    0    0  0.55475249186E+02 -0.89623190480E+02  0.12885146177E+03  0.18368635790E+03  0.77641221875E+02 0.  0.
          5    1    5    5  501    0 -0.77015350305E+02 -0.97374492908E+02  0.10747983828E+03  0.16427769687E+03  0.47000000000E+01 0. -1.
        -13    1    6    6    0    0  0.14808742615E+02 -0.89017316163E+02  0.89029925717E+02  0.12676635637E+03  0.00000000000E+00 0.  1.
         14    1    6    6    0    0  0.40666506571E+02 -0.60587431783E+00  0.39821536056E+02  0.56920001530E+02  0.00000000000E+00 0. -1.
         -5    1    3    3    0  503  0.38658992430E+02  0.15760460616E+03  0.11318383149E+03  0.19790502593E+03  0.47000000000E+01 0.  1.
         11    1    4    4    0    0  0.29577546908E+02  0.20655669038E+02 -0.35895725629E+00  0.36077926697E+02  0.00000000000E+00 0. -1.
        -12    1    4    4    0    0 -0.46696438219E+02  0.87374081909E+01  0.21630342232E+02  0.52199342422E+02  0.00000000000E+00 0.  1.
</event>
<event>
12    1  0.1597826E-001  0.2171773E+03  0.7818608E-02  0.1136755E+00
         21   -1    0    0  501  502  0.00000000000E+00  0.00000000000E+00  0.14271840305E+03  0.14271840305E+03  0.00000000000E+00 0. -1.
         21   -1    0    0  502  503 -0.00000000000E+00 -0.00000000000E+00 -0.36130267350E+03  0.36130267350E+03  0.00000000000E+00 0. -1.
         -6    2    1    2    0  503  0.33314299628E+02  0.12565367833E+03 -0.19056328770E+03  0.28892965583E+03  0.17397496935E+03 0.  0.
        -24    2    3    3    0    0  0.19051697736E+02  0.11252499568E+03 -0.51365191252E+02  0.14830965663E+03  0.79577192316E+02 0.  0.
          6    2    1    2  501    0 -0.33314299628E+02 -0.12565367833E+03 -0.28020982742E+02  0.21509142072E+03  0.16905754747E+03 0.  0.
         24    2    5    5    0    0 -0.68431211450E+02 -0.11862295779E+03  0.13179999183E+02  0.16029872560E+03  0.82266227780E+02 0.  0.
          5    1    5    5  501    0  0.35116911823E+02 -0.70307205402E+01 -0.41200981925E+02  0.54792695123E+02  0.47000000000E+01 0. -1.
        -11    1    6    6    0    0  0.14778024944E+02 -0.12223287367E+02 -0.12382734660E+02  0.22828291503E+02  0.00000000000E+00 0.  1.
         12    1    6    6    0    0 -0.83209236395E+02 -0.10639967043E+03  0.25562733843E+02  0.13747043409E+03  0.00000000000E+00 0. -1.
         -5    1    3    3    0  503  0.14262601892E+02  0.13128682652E+02 -0.13919809645E+03  0.14061999921E+03  0.47000000000E+01 0.  1.
         13    1    4    4    0    0  0.11652184752E+02  0.60406950246E+01 -0.38645409207E+02  0.40813368627E+02  0.00000000000E+00 0. -1.
        -14    1    4    4    0    0  0.73995129836E+01  0.10648430066E+03 -0.12719782045E+02  0.10749628800E+03  0.00000000000E+00 0.  1.
</event>
<event>
12    1  0.1597826E-001  0.2198031E+03  0.7818608E-02  0.1134066E+00
         21   -1    0    0  501  502  0.00000000000E+00  0.00000000000E+00  0.36590161465E+03  0.36590161465E+03  0.00000000000E+00 0.  1.
         21   -1    0    0  502  503 -0.00000000000E+00 -0.00000000000E+00 -0.13234558275E+03  0.13234558275E+03  0.00000000000E+00 0. -1.
         -6    2    1    2    0  503 -0.67405101497E+02 -0.11889620379E+03  0.13080999925E+03  0.25561543607E+03  0.17189601586E+03 0.  0.
        -24    2    3    3    0    0 -0.67545634967E+02 -0.63399696976E+01  0.79569316138E+02  0.13185509028E+03  0.80323600165E+02 0.  0.
          6    2    1    2  501    0  0.67405101497E+02  0.11889620379E+03  0.10274603265E+03  0.24263176134E+03  0.17214432724E+03 0.  0.
         24    2    5    5    0    0  0.72096304993E+02  0.15029619381E+03  0.99627038199E+02  0.21038606566E+03  0.80931618132E+02 0.  0.
          5    1    5    5  501    0 -0.46912034952E+01 -0.31399990020E+02  0.31189944485E+01  0.32245695680E+02  0.47000000000E+01 0. -1.
        -11    1    6    6    0    0  0.93421578067E+01 -0.87873927808E+01  0.75475397570E+00  0.12847717227E+02  0.00000000000E+00 0.  1.
         12    1    6    6    0    0  0.62754147186E+02  0.15908358659E+03  0.98872284223E+02  0.19753834843E+03  0.00000000000E+00 0. -1.
         -5    1    3    3    0  503  0.14053346933E+00 -0.11255623410E+03  0.51240683115E+02  0.12376034579E+03  0.47000000000E+01 0.  1.
         11    1    4    4    0    0 -0.79250093875E+02 -0.18796435247E+02  0.44429209633E+02  0.92778435133E+02  0.00000000000E+00 0. -1.
        -12    1    4    4    0    0  0.11704458908E+02  0.12456465549E+02  0.35140106505E+02  0.39076655148E+02  0.00000000000E+00 0.  1.
</event>
<event>
12    1  0.1597826E-001  0.1942153E+03  0.7818608E-02  0.1154753E+00
         21   -1    0    0  503  502  0.00000000000E+00  0.00000000000E+00  0.32444074128E+03  0.32444074128E+03  0.00000000000E+00 0.  1.
         21   -1    0    0  501  503 -0.00000000000E+00 -0.00000000000E+00 -0.16871897684E+03  0.16871897684E+03  0.00000000000E+00 0.  1.
          6    2    1    2  501    0  0.57776155905E+02 -0.68278291347E+02 -0.59751121430E+02  0.20319888398E+03  0.17239367934E+03 0.  0.
         24    2    3    3    0    0  0.48656465221E+02 -0.10831069467E+03 -0.71692768162E+02  0.16018196869E+03  0.80123354282E+02 0.  0.
         -6    2    1    2    0  502 -0.57776155905E+02  0.68278291347E+02  0.21547288586E+03  0.28996083414E+03  0.17218801217E+03 0.  0.
        -24    2    5    5    0    0 -0.15813006579E+02  0.17360455826E+01  0.18953097488E+03  0.20699186935E+03  0.81673609612E+02 0.  0.
          5    1    3    3  501    0  0.91196906840E+01  0.40032403318E+02  0.11941646732E+02  0.43016915281E+02  0.47000000000E+01 0. -1.
        -11    1    4    4    0    0 -0.15411980860E+02 -0.21734096050E+02  0.60849947981E+01  0.27329969755E+02  0.00000000000E+00 0.  1.
         12    1    4    4    0    0  0.64068446081E+02 -0.86576598616E+02 -0.77777762960E+02  0.13285199894E+03  0.00000000000E+00 0. -1.
         -5    1    5    5    0  502 -0.41963149327E+02  0.66542245765E+02  0.25941910979E+02  0.82968964788E+02  0.47000000000E+01 0.  1.
         11    1    6    6    0    0  0.16637940431E+02 -0.26052069513E+02  0.35151161883E+02  0.46809567072E+02  0.00000000000E+00 0. -1.
        -12    1    6    6    0    0 -0.32450947010E+02  0.27788115095E+02  0.15437981300E+03  0.16018230228E+03  0.00000000000E+00 0.  1.
</event>
<event>
12    1  0.1597826E-001  0.2218895E+03  0.7818608E-02  0.1132539E+00
         21   -1    0    0  501  502  0.00000000000E+00  0.00000000000E+00  0.16301615603E+04  0.16301615603E+04  0.00000000000E+00 0. -1.
         21   -1    0    0  502  503 -0.00000000000E+00 -0.00000000000E+00 -0.57432846764E+02  0.57432846764E+02  0.00000000000E+00 0. -1.
         -6    2    1    2    0  503 -0.12778858398E+03 -0.56234886325E+02  0.20462461248E+03  0.30161323760E+03  0.17206693008E+03 0.  0.
        -24    2    3    3    0    0 -0.74327837307E+02 -0.98062657700E+02  0.10791620248E+03  0.18336679809E+03  0.82683514974E+02 0.  0.
          6    2    1    2  501    0  0.12778858398E+03  0.56234886325E+02  0.13681041010E+04  0.13859811694E+04  0.17246068003E+03 0.  0.
         24    2    5    5    0    0  0.12083239467E+03  0.72515942338E+02  0.72302197916E+03  0.74063901576E+03  0.76982724228E+02 0.  0.
          5    1    5    5  501    0  0.69561893043E+01 -0.16281056012E+02  0.64508212188E+03  0.64534215368E+03  0.47000000000E+01 0. -1.
        -11    1    6    6    0    0  0.44903239194E+02  0.61852581663E+02  0.24935419535E+03  0.26080559329E+03  0.00000000000E+00 0.  1.
         12    1    6    6    0    0  0.75929155479E+02  0.10663360675E+02  0.47366778380E+03  0.47983342248E+03  0.00000000000E+00 0. -1.
         -5    1    3    3    0  503 -0.53460746670E+02  0.41827771375E+02  0.96708409994E+02  0.11824643951E+03  0.47000000000E+01 0.  1.
         11    1    4    4    0    0 -0.37065761490E+02 -0.61294922626E+02  0.10966887885E+03  0.13098931713E+03  0.00000000000E+00 0. -1.
        -12    1    4    4    0    0 -0.37262075818E+02 -0.36767735074E+02 -0.17526763669E+01  0.52377480955E+02  0.00000000000E+00 0.  1.
</event>
<event>
12    1  0.1597826E-001  0.2356118E+03  0.7818608E-02  0.1122935E+00
         21   -1    0    0  503  502  0.00000000000E+00  0.00000000000E+00  0.21537316554E+03  0.21537316554E+03  0.00000000000E+00 0. -1.
         21   -1    0    0  501  503 -0.00000000000E+00 -0.00000000000E+00 -0.33120561005E+03  0.33120561005E+03  0.00000000000E+00 0.  1.
          6    2    1    2  501    0 -0.13341147620E+03  0.87177134902E+02 -0.18774338945E+03  0.30126482455E+03  0.17353512439E+03 0.  0.
         24    2    3    3    0    0 -0.12477526083E+03  0.12480517013E+03 -0.13525733387E+03  0.23594002619E+03  0.78917383280E+02 0.  0.
         -6    2    1    2    0  502  0.13341147620E+03 -0.87177134902E+02  0.71910944949E+02  0.24531395104E+03  0.17207346030E+03 0.  0.
        -24    2    5    5    0    0  0.55473517929E+02 -0.83478969108E+02  0.10046339615E+03  0.16209535793E+03  0.78332379136E+02 0.  0.
          5    1    3    3  501    0 -0.86362153640E+01 -0.37628035229E+02 -0.52486055580E+02  0.65324798364E+02  0.47000000000E+01 0. -1.
        -11    1    4    4    0    0 -0.33864251689E+02  0.83993318648E+02 -0.85541727428E+02  0.12457548816E+03  0.00000000000E+00 0.  1.
         12    1    4    4    0    0 -0.90911009144E+02  0.40811851483E+02 -0.49715606443E+02  0.11136453802E+03  0.00000000000E+00 0. -1.
         -5    1    5    5    0  502  0.77937958268E+02 -0.36981657950E+01 -0.28552451203E+02  0.83218593108E+02  0.47000000000E+01 0.  1.
         13    1    6    6    0    0  0.20708669468E+02 -0.25427650803E+02  0.87173356167E+02  0.93137578034E+02  0.00000000000E+00 0. -1.
        -14    1    6    6    0    0  0.34764848460E+02 -0.58051318304E+02  0.13290039985E+02  0.68957779896E+02  0.00000000000E+00 0.  1.
</event>
<event>
12    1  0.1597826E-001  0.2406745E+03  0.7818608E-02  0.1119374E+00
         21   -1    0    0  503  502  0.00000000000E+00  0.00000000000E+00  0.85562812144E+02  0.85562812144E+02  0.00000000000E+00 0.  1.
         21   -1    0    0  501  503 -0.00000000000E+00 -0.00000000000E+00 -0.69431256690E+03  0.69431256690E+03  0.00000000000E+00 0. -1.
          6    2    1    2  501    0  0.11114189564E+03  0.12689919841E+03 -0.36698876195E+03  0.43886783078E+03  0.17166331574E+03 0.  0.
         24    2    3    3    0    0  0.39172416572E+02  0.12953077533E+03 -0.18258830142E+03  0.24084724862E+03  0.79725838820E+02 0.  0.
         -6    2    1    2    0  502 -0.11114189564E+03 -0.12689919841E+03 -0.24176099281E+03  0.34100754827E+03  0.17141132637E+03 0.  0.
        -24    2    5    5    0    0 -0.12135334361E+02 -0.25394834585E+01 -0.79760408898E+02  0.11399671798E+03  0.80497289191E+02 0.  0.
          5    1    3    3  501    0  0.71969479067E+02 -0.26315769171E+01 -0.18440046053E+03  0.19802058216E+03  0.47000000000E+01 0. -1.
        -11    1    4    4    0    0 -0.18270652330E+01  0.45944371019E+01  0.79376876596E+01  0.93516792626E+01  0.00000000000E+00 0.  1.
         12    1    4    4    0    0  0.40999481805E+02  0.12493633823E+03 -0.19052598908E+03  0.23149556936E+03  0.00000000000E+00 0. -1.
         -5    1    5    5    0  502 -0.99006561278E+02 -0.12435971495E+03 -0.16200058391E+03  0.22701083028E+03  0.47000000000E+01 0.  1.
         11    1    6    6    0    0  0.17943420781E+02 -0.32704724602E+02 -0.26314784260E+02  0.45651212812E+02  0.00000000000E+00 0. -1.
        -12    1    6    6    0    0 -0.30078755142E+02  0.30165241143E+02 -0.53445624638E+02  0.68345505171E+02  0.00000000000E+00 0.  1.
</event>
<event>
12    1  0.1597826E-001  0.1901672E+03  0.7818608E-02  0.1158547E+00
         21   -1    0    0  503  502  0.00000000000E+00  0.00000000000E+00  0.29856799400E+03  0.29856799400E+03  0.00000000000E+00 0. -1.
         21   -1    0    0  501  503 -0.00000000000E+00 -0.00000000000E+00 -0.22209110715E+03  0.22209110715E+03  0.00000000000E+00 0. -1.
          6    2    1    2  501    0  0.30093490620E+01 -0.78331732863E+02 -0.13781013544E+03  0.23485143184E+03  0.17325889602E+03 0.  0.
         24    2    3    3    0    0 -0.50771808858E+02 -0.49138378719E+02 -0.13943688304E+03  0.17345598265E+03  0.75179629735E+02 0.  0.
         -6    2    1    2    0  502 -0.30093490620E+01  0.78331732863E+02  0.21428702228E+03  0.28580766931E+03  0.17211095074E+03 0.  0.
        -24    2    5    5    0    0 -0.51806855667E+02  0.28792698003E+00  0.10657787737E+03  0.14404948724E+03  0.81898581386E+02 0.  0.
          5    1    3    3  501    0  0.53781157920E+02 -0.29193354144E+02  0.16267475976E+01  0.61395449189E+02  0.47000000000E+01 0. -1.
        -11    1    4    4    0    0 -0.12180661343E+02  0.18507679922E+02 -0.15350346666E+02  0.26954329329E+02  0.00000000000E+00 0.  1.
         12    1    4    4    0    0 -0.38591147515E+02 -0.67646058641E+02 -0.12408653637E+03  0.14650165332E+03  0.00000000000E+00 0. -1.
         -5    1    5    5    0  502  0.48797506605E+02  0.78043805883E+02  0.10770914491E+03  0.14175818207E+03  0.47000000000E+01 0.  1.
         13    1    6    6    0    0 -0.45457807587E+02  0.20271602618E+01  0.91679531349E+01  0.46417378363E+02  0.00000000000E+00 0. -1.
        -14    1    6    6    0    0 -0.63490480791E+01 -0.17392332818E+01  0.97409924239E+02  0.97632108879E+02  0.00000000000E+00 0.  1.
</event>
<event>
12    1  0.1597826E-001  0.1815804E+03  0.7818608E-02  0.1166655E+00
         21   -1    0    0  501  502  0.00000000000E+00  0.00000000000E+00  0.20304947267E+04  0.20304947267E+04  0.00000000000E+00 0. -1.
         21   -1    0    0  502  503 -0.00000000000E+00 -0.00000000000E+00 -0.50500145147E+02  0.50500145147E+02  0.00000000000E+00 0. -1.
         -6    2    1    2    0  503 -0.48012779349E+02  0.30242558411E+02  0.13258391582E+03  0.22483309452E+03  0.17248648161E+03 0.  0.
        -24    2    3    3    0    0 -0.61279735625E+01  0.53834145325E+02  0.15153776579E+02  0.97857397905E+02  0.80067259959E+02 0.  0.
          6    2    1    2  501    0  0.48012779349E+02 -0.30242558411E+02  0.18474106658E+04  0.18561617774E+04  0.17085238196E+03 0.  0.
         24    2    5    5    0    0  0.67485445000E+01 -0.23388676373E+02  0.44492098764E+03  0.45304057802E+03  0.81844407609E+02 0.  0.
          5    1    5    5  501    0  0.41264234849E+02 -0.68538820376E+01  0.14024896781E+04  0.14031211994E+04  0.47000000000E+01 0. -1.
        -13    1    6    6    0    0  0.34031451436E+02  0.69956805215E+01  0.10326711812E+03  0.10895493067E+03  0.00000000000E+00 0.  1.
         14    1    6    6    0    0 -0.27282906936E+02 -0.30384356895E+02  0.34165386952E+03  0.34408564735E+03  0.00000000000E+00 0. -1.
         -5    1    3    3    0  503 -0.41884805786E+02 -0.23591586914E+02  0.11743013924E+03  0.12697569661E+03  0.47000000000E+01 0.  1.
         13    1    4    4    0    0 -0.35474956085E+02  0.31136093477E+02 -0.15553426468E+02  0.49697463729E+02  0.00000000000E+00 0. -1.
        -14    1    4    4    0    0  0.29346982522E+02  0.22698051848E+02  0.30707203047E+02  0.48159934176E+02  0.00000000000E+00 0.  1.
</event>
<event>
12    1  0.1597826E-001  0.1752875E+03  0.7818608E-02  0.1172562E+00
         21   -1    0    0  503  502  0.00000000000E+00  0.00000000000E+00  0.69059504238E+02  0.69059504238E+02  0.00000000000E+00 0.  1.
         21   -1    0    0  501  503 -0.00000000000E+00 -0.00000000000E+00 -0.48568071184E+03  0.48568071184E+03  0.00000000000E+00 0.  1.
          6    2    1    2  501    0 -0.12036436055E+02  0.27889995455E+02 -0.29009607627E+03  0.33894162671E+03  0.17263535330E+03 0.  0.
         24    2    3    3    0    0 -0.54039998648E+02 -0.14469533045E+02 -0.24574103312E+03  0.26445613297E+03  0.80116802624E+02 0.  0.
         -6    2    1    2    0  502  0.12036436055E+02 -0.27889995455E+02 -0.12652513133E+03  0.21579858937E+03  0.17215601842E+03 0.  0.
        -24    2    5    5    0    0 -0.36064879006E+02 -0.25290533266E+02 -0.13104839090E+02  0.92482952056E+02  0.80256295970E+02 0.  0.
          5    1    3    3  501    0  0.42003562593E+02  0.42359528499E+02 -0.44355043147E+02  0.74485493740E+02  0.47000000000E+01 0. -1.
        -13    1    4    4    0    0 -0.70858482346E+02 -0.20808862226E+02 -0.15179910559E+03  0.16881025362E+03  0.00000000000E+00 0.  1.
         14    1    4    4    0    0  0.16818483698E+02  0.63393291814E+01 -0.93941927529E+02  0.95645879348E+02  0.00000000000E+00 0. -1.
         -5    1    5    5    0  502  0.48101315061E+02 -0.25994621881E+01 -0.11342029224E+03  0.12331563732E+03  0.47000000000E+01 0.  1.
         13    1    6    6    0    0 -0.79928499662E+00 -0.41806951213E+02  0.15037877583E+02  0.44436446623E+02  0.00000000000E+00 0. -1.
        -14    1    6    6    0    0 -0.35265594009E+02  0.16516417946E+02 -0.28142716673E+02  0.48046505433E+02  0.00000000000E+00 0.  1.
</event>
<event>
12    1  0.1597826E-001  0.2097718E+03  0.7818608E-02  0.1141919E+00
         21   -1    0    0  501  502  0.00000000000E+00  0.00000000000E+00  0.43692967406E+02  0.43692967406E+02  0.00000000000E+00 0. -1.
         21   -1    0    0  502  503 -0.00000000000E+00 -0.00000000000E+00 -0.19413163577E+04  0.19413163577E+04  0.00000000000E+00 0. -1.
         -6    2    1    2    0  503 -0.87877090825E+02 -0.82485157475E+02 -0.16398562289E+04  0.16532188781E+04  0.17169165075E+03 0.  0.
        -24    2    3    3    0    0 -0.42727361532E+02 -0.89991209902E+02 -0.15097810343E+04  0.15152461086E+04  0.81289313938E+02 0.  0.
          6    2    1    2  501    0  0.87877090825E+02  0.82485157475E+02 -0.25776716134E+03  0.33179044701E+03  0.17063061557E+03 0.  0.
         24    2    5    5    0    0  0.62953869359E+02 -0.15603488274E+02 -0.92382745457E+02  0.13784033897E+03  0.79112128501E+02 0.  0.
          5    1    5    5  501    0  0.24923221466E+02  0.98088645749E+02 -0.16538441588E+03  0.19395010804E+03  0.47000000000E+01 0. -1.
        -13    1    6    6    0    0 -0.79106148804E+01  0.12186589227E+02 -0.47056493076E+02  0.49248394140E+02  0.00000000000E+00 0.  1.
         14    1    6    6    0    0  0.70864484240E+02 -0.27790077502E+02 -0.45326252380E+02  0.88591944831E+02  0.00000000000E+00 0. -1.
         -5    1    3    3    0  503 -0.45149729293E+02  0.75060524275E+01 -0.13007519458E+03  0.13797276950E+03  0.47000000000E+01 0.  1.
         11    1    4    4    0    0 -0.48240774292E+02 -0.11595671295E+02 -0.52910269160E+03  0.53142383289E+03  0.00000000000E+00 0. -1.
        -12    1    4    4    0    0  0.55134127602E+01 -0.78395538607E+02 -0.98067834274E+03  0.98382227568E+03  0.00000000000E+00 0.  1.
</event>
<event>
12    1  0.1597826E-001  0.1759735E+03  0.7818608E-02  0.1171823E+00
         21   -1    0    0  501  502  0.00000000000E+00  0.00000000000E+00  0.87872808821E+02  0.87872808821E+02  0.00000000000E+00 0.  1.
         21   -1    0    0  502  503 -0.00000000000E+00 -0.00000000000E+00 -0.37651645008E+03  0.37651645008E+03  0.00000000000E+00 0.  1.
         -6    2    1    2    0  503 -0.39577803766E+02 -0.60147844779E+01 -0.20381173095E+03  0.26926917876E+03  0.17135953074E+03 0.  0.
        -24    2    3    3    0    0  0.37036834973E+02 -0.34779685887E+02 -0.11181096387E+03  0.14604802163E+03  0.79037834512E+02 0.  0.
          6    2    1    2  501    0  0.39577803766E+02  0.60147844779E+01 -0.84831910310E+02  0.19512008014E+03  0.17109299368E+03 0.  0.
         24    2    5    5    0    0  0.25405926211E+02  0.33658602488E+02 -0.11833106264E+03  0.14919289871E+03  0.80485514418E+02 0.  0.
          5    1    5    5  501    0  0.14171877554E+02 -0.27643818010E+02  0.33499152331E+02  0.45927181434E+02  0.47000000000E+01 0. -1.
        -13    1    6    6    0    0  0.22889619363E+02 -0.23506243870E+02 -0.53130634238E+02  0.62444715309E+02  0.00000000000E+00 0.  1.
         14    1    6    6    0    0  0.25163068483E+01  0.57164846358E+02 -0.65200428404E+02  0.86748183400E+02  0.00000000000E+00 0. -1.
         -5    1    3    3    0  503 -0.76614638738E+02  0.28764901409E+02 -0.92000767080E+02  0.12322115713E+03  0.47000000000E+01 0.  1.
         13    1    4    4    0    0 -0.18424243415E+02 -0.22002945665E+02 -0.11907761740E+02  0.31070519034E+02  0.00000000000E+00 0. -1.
        -14    1    4    4    0    0  0.55461078388E+02 -0.12776740222E+02 -0.99903202133E+02  0.11497750260E+03  0.00000000000E+00 0.  1.
</event>
<event>
12    1  0.1597826E-001  0.1857886E+03  0.7818608E-02  0.1164494E+00
         21   -1    0    0  503  502  0.00000000000E+00  0.00000000000E+00  0.55865291757E+02  0.55865291757E+02  0.00000000000E+00 0.  1.
         21   -1    0    0  501  503 -0.00000000000E+00 -0.00000000000E+00 -0.60350414382E+03  0.60350414382E+03  0.00000000000E+00 0.  1.
          6    2    1    2  501    0  0.77445527560E+02  0.31421916454E+02 -0.32013993673E+03  0.36564650372E+03  0.15563624263E+03 0.  0.
         24    2    3    3    0    0  0.83985192196E+02  0.50088746720E+02 -0.32141259472E+03  0.34527673631E+03  0.79671660835E+02 0.  0.
         -6    2    1    2    0  502 -0.77445527560E+02 -0.31421916454E+02 -0.22749891534E+03  0.29372293186E+03  0.16592847148E+03 0.  0.
        -24    2    5    5    0    0 -0.87578375665E+02  0.27099606486E+02 -0.18090946317E+03  0.21809152098E+03  0.80195493045E+02 0.  0.
          5    1    3    3  501    0 -0.65396646365E+01 -0.18666830266E+02  0.12726579912E+01  0.20369767404E+02  0.47000000000E+01 0. -1.
        -11    1    4    4    0    0 -0.33002038514E+00  0.26897990676E+02 -0.15470371123E+03  0.15702499510E+03  0.00000000000E+00 0.  1.
         12    1    4    4    0    0  0.84315212581E+02  0.23190756044E+02 -0.16670888348E+03  0.18825174122E+03  0.00000000000E+00 0. -1.
         -5    1    5    5    0  502  0.10132848106E+02 -0.58521522941E+02 -0.46589452172E+02  0.75631410880E+02  0.47000000000E+01 0.  1.
         13    1    6    6    0    0 -0.33488685278E+02  0.23201621292E+02 -0.14786526643E+02  0.43341073387E+02  0.00000000000E+00 0. -1.
        -14    1    6    6    0    0 -0.54089690388E+02  0.38979851948E+01 -0.16612293653E+03  0.17475044760E+03  0.00000000000E+00 0.  1.
</event>
<event>
12    1  0.1597826E-001  0.1986824E+03  0.7818608E-02  0.1151053E+00
         21   -1    0    0  503  502  0.00000000000E+00  0.00000000000E+00  0.18614262600E+03  0.18614262600E+03  0.00000000000E+00 0. -1.
         21   -1    0    0  501  503 -0.00000000000E+00 -0.00000000000E+00 -0.30036163026E+03  0.30036163026E+03  0.00000000000E+00 0. -1.
          6    2    1    2  501    0  0.64269791831E+02  0.72788416576E+02 -0.18963733834E+03  0.27398930185E+03  0.17227610893E+03 0.  0.
         24    2    3    3    0    0  0.22463486467E+02  0.11050990431E+03 -0.11152523752E+03  0.17758251734E+03  0.79878812498E+02 0.  0.
         -6    2    1    2    0  502 -0.64269791831E+02 -0.72788416576E+02  0.75418334087E+02  0.21251495441E+03  0.17333759258E+03 0.  0.
        -24    2    5    5    0    0 -0.32631408944E+02 -0.18364580089E+02  0.10958764387E+03  0.14073352937E+03  0.79965042043E+02 0.  0.
          5    1    3    3  501    0  0.41806305364E+02 -0.37721487736E+02 -0.78112100824E+02  0.96406784514E+02  0.47000000000E+01 0. -1.
        -13    1    4    4    0    0  0.48417784860E+01  0.55102235741E+02 -0.10550922550E+03  0.11912974385E+03  0.00000000000E+00 0.  1.
         14    1    4    4    0    0  0.17621707981E+02  0.55407668571E+02 -0.60160120156E+01  0.58452773494E+02  0.00000000000E+00 0. -1.
         -5    1    5    5    0  502 -0.31638382887E+02 -0.54423836486E+02 -0.34169309782E+02  0.71781425038E+02  0.47000000000E+01 0.  1.
         11    1    6    6    0    0  0.20673624400E+01  0.70641316444E+01 -0.10698663745E+02  0.12986044404E+02  0.00000000000E+00 0. -1.
        -12    1    6    6    0    0 -0.34698771384E+02 -0.25428711734E+02  0.12028630761E+03  0.12774748497E+03  0.00000000000E+00 0.  1.
</event>
<event>
12    1  0.1597826E-001  0.1987788E+03  0.7818608E-02  0.1152564E+00
         21   -1    0    0  503  502  0.00000000000E+00  0.00000000000E+00  0.51322467242E+03  0.51322467242E+03  0.00000000000E+00 0.  1.
         21   -1    0    0  501  503 -0.00000000000E+00 -0.00000000000E+00 -0.82520532599E+02  0.82520532599E+02  0.00000000000E+00 0. -1.
          6    2    1    2  501    0 -0.67849540495E+02 -0.44822096744E+02  0.11464934368E+03  0.22237722964E+03  0.17232115295E+03 0.  0.
         24    2    3    3    0    0  0.69896904303E+00  0.35364770131E+02  0.50614111534E+02  0.98880538447E+02  0.77229638566E+02 0.  0.
         -6    2    1    2    0  502  0.67849540495E+02  0.44822096744E+02  0.31605479614E+03  0.37336797538E+03  0.18138475784E+03 0.  0.
        -24    2    5    5    0    0  0.68021502872E+02  0.39362404247E+01  0.31467697070E+03  0.33218944674E+03  0.81766825753E+02 0.  0.
          5    1    3    3  501    0 -0.68548509538E+02 -0.80186866875E+02  0.64035232149E+02  0.12349669119E+03  0.47000000000E+01 0. -1.
        -13    1    4    4    0    0  0.21842071170E+02  0.39596897313E+01  0.56372911138E+02  0.60585974663E+02  0.00000000000E+00 0.  1.
         14    1    4    4    0    0 -0.21143102127E+02  0.31405080400E+02 -0.57587996040E+01  0.38294563783E+02  0.00000000000E+00 0. -1.
         -5    1    5    5    0  502 -0.17196237745E+00  0.40885856319E+02  0.13778254368E+01  0.41178528640E+02  0.47000000000E+01 0.  1.
         13    1    6    6    0    0  0.46598030526E+02 -0.12884988698E+02  0.64882928274E+02  0.80914731441E+02  0.00000000000E+00 0. -1.
        -14    1    6    6    0    0  0.21423472346E+02  0.16821229123E+02  0.24979404242E+03  0.25127471530E+03  0.00000000000E+00 0.  1.
</event>
<event>
12    1  0.1597826E-001  0.1938813E+03  0.7818608E-02  0.1155320E+00
         21   -1    0    0  503  502  0.00000000000E+00  0.00000000000E+00  0.19010913129E+03  0.19010913129E+03  0.00000000000E+00 0.  1.
         21   -1    0    0  501  503 -0.00000000000E+00 -0.00000000000E+00 -0.22283429094E+03  0.22283429094E+03  0.00000000000E+00 0.  1.
          6    2    1    2  501    0  0.57078168113E+02  0.65102903578E+02 -0.87580015375E+02  0.21145144178E+03  0.17188702047E+03 0.  0.
         24    2    3    3    0    0  0.30989339267E+02  0.10646407814E+03 -0.88815313651E+02  0.16230889694E+03  0.78492541071E+02 0.  0.
         -6    2    1    2    0  502 -0.57078168113E+02 -0.65102903578E+02  0.54854855727E+02  0.20149198044E+03  0.17347523644E+03 0.  0.
        -24    2    5    5    0    0 -0.88269818134E+01  0.18946603737E+01 -0.28778649402E+02  0.83876064281E+02  0.78265433954E+02 0.  0.
          5    1    3    3  501    0  0.26088828846E+02 -0.41361174561E+02  0.12352982756E+01  0.49142544841E+02  0.47000000000E+01 0. -1.
        -13    1    4    4    0    0  0.33720612733E+02  0.10796898440E+03 -0.50511134746E+02  0.12387798855E+03  0.00000000000E+00 0.  1.
         14    1    4    4    0    0 -0.27312734653E+01 -0.15049062581E+01 -0.38304178905E+02  0.38430908383E+02  0.00000000000E+00 0. -1.
         -5    1    5    5    0  502 -0.48251186300E+02 -0.66997563952E+02  0.83633505128E+02  0.11761591616E+03  0.47000000000E+01 0.  1.
         11    1    6    6    0    0  0.25251350202E+02  0.26356789997E+02 -0.95474902727E+01  0.37728843561E+02  0.00000000000E+00 0. -1.
        -12    1    6    6    0    0 -0.34078332016E+02 -0.24462129623E+02 -0.19231159129E+02  0.46147220719E+02  0.00000000000E+00 0.  1.
</event>
<event>
12    1  0.1597826E-001  0.3416143E+03  0.7818608E-02  0.1066131E+00
         21   -1    0    0  501  502  0.00000000000E+00  0.00000000000E+00  0.18823051874E+04  0.18823051874E+04  0.00000000000E+00 0.  1.
         21   -1    0    0  502  503 -0.00000000000E+00 -0.00000000000E+00 -0.15428812921E+03  0.15428812921E+03  0.00000000000E+00 0. -1.
         -6    2    1    2    0  503  0.17031755258E+03  0.24104416564E+03  0.76197854015E+02  0.34981917025E+03  0.17163035983E+03 0.  0.
        -24    2    3    3    0    0  0.17296538775E+03  0.13335283364E+03  0.48635022783E+02  0.23852571274E+03  0.82638650755E+02 0.  0.
          6    2    1    2  501    0 -0.17031755258E+03 -0.24104416564E+03  0.16518192042E+04  0.16867741464E+04  0.17201738012E+03 0.  0.
         24    2    5    5    0    0 -0.16202120056E+03 -0.12373830164E+03  0.12101067745E+04  0.12296511261E+04  0.78239691653E+02 0.  0.
          5    1    5    5  501    0 -0.82963520137E+01 -0.11730586399E+03  0.44171242965E+03  0.45712302031E+03  0.47000000000E+01 0. -1.
        -13    1    6    6    0    0 -0.14302676395E+03 -0.12597257264E+03  0.95527686686E+03  0.97410453065E+03  0.00000000000E+00 0.  1.
         14    1    6    6    0    0 -0.18994436612E+02  0.22342710009E+01  0.25482990765E+03  0.25554659541E+03  0.00000000000E+00 0. -1.
         -5    1    3    3    0  503 -0.26478351735E+01  0.10769133200E+03  0.27562831232E+02  0.11129345751E+03  0.47000000000E+01 0.  1.
         13    1    4    4    0    0  0.35265002222E+01  0.39777626030E+02  0.95003941855E+01  0.41048181763E+02  0.00000000000E+00 0. -1.
        -14    1    4    4    0    0  0.16943888753E+03  0.93575207610E+02  0.39134628598E+02  0.19747753098E+03  0.00000000000E+00 0.  1.
</event>
<event>
12    1  0.1597826E-001  0.2172157E+03  0.7818608E-02  0.1136201E+00
         21   -1    0    0  501  502  0.00000000000E+00  0.00000000000E+00  0.25738478769E+03  0.25738478769E+03  0.00000000000E+00 0.  1.
         21   -1    0    0  502  503 -0.00000000000E+00 -0.00000000000E+00 -0.82677320155E+03  0.82677320155E+03  0.00000000000E+00 0. -1.
         -6    2    1    2    0  503  0.12514147305E+03 -0.38699869573E+02 -0.76345766609E+03  0.79375705626E+03  0.17327604641E+03 0.  0.
        -24    2    3    3    0    0  0.78645861330E+02 -0.88374307080E+02 -0.45175813767E+03  0.47468327534E+03  0.85109384192E+02 0.  0.
          6    2    1    2  501    0 -0.12514147305E+03  0.38699869573E+02  0.19406925224E+03  0.29040093299E+03  0.17178986883E+03 0.  0.
         24    2    5    5    0    0 -0.13351945528E+03  0.66016961222E+02  0.19788578812E+03  0.26119357041E+03  0.82931369064E+02 0.  0.
          5    1    5    5  501    0  0.83779822311E+01 -0.27317091649E+02 -0.38165358877E+01  0.29207362575E+02  0.47000000000E+01 0. -1.
        -13    1    6    6    0    0 -0.13151942857E+03  0.38481614104E+02  0.18625942935E+03  0.23123747477E+03  0.00000000000E+00 0.  1.
         14    1    6    6    0    0 -0.20000267099E+01  0.27535347118E+02  0.11626358773E+02  0.29956095641E+02  0.00000000000E+00 0. -1.
         -5    1    3    3    0  503  0.46495611719E+02  0.49674437507E+02 -0.31169952842E+03  0.31907378092E+03  0.47000000000E+01 0.  1.
         11    1    4    4    0    0  0.51391762093E+02 -0.80813317378E+02 -0.42531391212E+03  0.43596310546E+03  0.00000000000E+00 0. -1.
        -12    1    4    4    0    0  0.27254099237E+02 -0.75609897020E+01 -0.26444225545E+02  0.38720169875E+02  0.00000000000E+00 0.  1.
</event>
<event>
12    1  0.1597826E-001  0.1765138E+03  0.7818608E-02  0.1171336E+00
         21   -1    0    0  503  502  0.00000000000E+00  0.00000000000E+00  0.80059313090E+03  0.80059313090E+03  0.00000000000E+00 0.  1.
         21   -1    0    0  501  503 -0.00000000000E+00 -0.00000000000E+00 -0.39828418536E+02  0.39828418536E+02  0.00000000000E+00 0.  1.
          6    2    1    2  501    0  0.65307331928E+01  0.35193177289E+02  0.31286140207E+03  0.35899190301E+03  0.17237087723E+03 0.  0.
         24    2    3    3    0    0  0.10642129068E+02  0.21675168636E+02  0.32755474658E+03  0.33807242628E+03  0.80111082608E+02 0.  0.
         -6    2    1    2    0  502 -0.65307331928E+01 -0.35193177289E+02  0.44790331030E+03  0.48142964643E+03  0.17284651828E+03 0.  0.
        -24    2    5    5    0    0 -0.21100264600E+02  0.34246255209E+02  0.14585495256E+03  0.17112430255E+03  0.79948937285E+02 0.  0.
          5    1    3    3  501    0 -0.41113958750E+01  0.13518008653E+02 -0.14693344508E+02  0.20919476734E+02  0.47000000000E+01 0. -1.
        -11    1    4    4    0    0  0.27592990401E+02  0.18158736742E+02  0.49681350425E+02  0.59660283434E+02  0.00000000000E+00 0.  1.
         12    1    4    4    0    0 -0.16950861333E+02  0.35164318941E+01  0.27787339615E+03  0.27841214284E+03  0.00000000000E+00 0. -1.
         -5    1    5    5    0  502  0.14569531407E+02 -0.69439432498E+02  0.30204835773E+03  0.31030534388E+03  0.47000000000E+01 0.  1.
         13    1    6    6    0    0  0.44532737239E+01  0.53471539251E+02  0.11395622903E+03  0.12595657701E+03  0.00000000000E+00 0. -1.
        -14    1    6    6    0    0 -0.25553538324E+02 -0.19225284042E+02  0.31898723533E+02  0.45167725539E+02  0.00000000000E+00 0.  1.
</event>
<event>
12    1  0.1597826E-001  0.2024489E+03  0.7818608E-02  0.1147829E+00
         21   -1    0    0  503  502  0.00000000000E+00  0.00000000000E+00  0.25513463269E+03  0.25513463269E+03  0.00000000000E+00 0.  1.
         21   -1    0    0  501  503 -0.00000000000E+00 -0.00000000000E+00 -0.16346601794E+03  0.16346601794E+03  0.00000000000E+00 0.  1.
          6    2    1    2  501    0 -0.10233792045E+03  0.25834830918E+02  0.15777105131E+02  0.20239451802E+03  0.17197132152E+03 0.  0.
         24    2    3    3    0    0 -0.11039800714E+02 -0.35727833529E+02  0.24515705414E+02  0.91833397110E+02  0.80212204336E+02 0.  0.
         -6    2    1    2    0  502  0.10233792045E+03 -0.25834830918E+02  0.75891509618E+02  0.21620613260E+03  0.17275729244E+03 0.  0.
        -24    2    5    5    0    0 -0.91392992065E+01  0.15995622882E+02  0.44184281594E+02  0.92900027007E+02  0.79616440115E+02 0.  0.
          5    1    3    3  501    0 -0.91298119740E+02  0.61562664447E+02 -0.87386002832E+01  0.11056112091E+03  0.47000000000E+01 0. -1.
        -11    1    4    4    0    0 -0.27940896587E+02 -0.17581810354E+02  0.47617787846E+02  0.57941931939E+02  0.00000000000E+00 0.  1.
         12    1    4    4    0    0  0.16901095873E+02 -0.18146023175E+02 -0.23102082432E+02  0.33891465171E+02  0.00000000000E+00 0. -1.
         -5    1    5    5    0  502  0.11147721966E+03 -0.41830453800E+02  0.31707228024E+02  0.12330610560E+03  0.47000000000E+01 0.  1.
         13    1    6    6    0    0 -0.74740656207E+01 -0.31278218239E+02  0.74551138329E+01  0.33011623943E+02  0.00000000000E+00 0. -1.
        -14    1    6    6    0    0 -0.16652335857E+01  0.47273841121E+02  0.36729167761E+02  0.59888403065E+02  0.00000000000E+00 0.  1.
</event>
<event>
12    1  0.1597826E-001  0.1858787E+03  0.7818608E-02  0.1163721E+00
         21   -1    0    0  503  502  0.00000000000E+00  0.00000000000E+00  0.25236317888E+03  0.25236317888E+03  0.00000000000E+00 0. -1.
         21   -1    0    0  501  503 -0.00000000000E+00 -0.00000000000E+00 -0.71482692679E+03  0.71482692679E+03  0.00000000000E+00 0. -1.
          6    2    1    2  501    0 -0.41489467571E+02  0.56689553506E+02 -0.66850947444E+03  0.69387015512E+03  0.17209239769E+03 0.  0.
         24    2    3    3    0    0  0.30409205794E+02  0.55410177802E+02 -0.26536762246E+03  0.28433810649E+03  0.80207082908E+02 0.  0.
         -6    2    1    2    0  502  0.41489467571E+02 -0.56689553506E+02  0.20604572654E+03  0.27331995055E+03  0.16526909133E+03 0.  0.
        -24    2    5    5    0    0  0.42752824078E+02 -0.65780657208E+02  0.22490523926E+03  0.25182540575E+03  0.81723738925E+02 0.  0.
          5    1    3    3  501    0 -0.71898673365E+02  0.12793757041E+01 -0.40314185198E+03  0.40953204863E+03  0.47000000000E+01 0. -1.
        -13    1    4    4    0    0 -0.23855127469E+02  0.37623713716E+02 -0.12988641896E+03  0.13731384770E+03  0.00000000000E+00 0.  1.
         14    1    4    4    0    0  0.54264333263E+02  0.17786464087E+02 -0.13548120350E+03  0.14702425878E+03  0.00000000000E+00 0. -1.
         -5    1    5    5    0  502 -0.12633565068E+01  0.90911037018E+01 -0.18859512722E+02  0.21494544803E+02  0.47000000000E+01 0.  1.
         11    1    6    6    0    0  0.14778090584E+02 -0.33825223509E+02  0.19830775291E+03  0.20171391268E+03  0.00000000000E+00 0. -1.
        -12    1    6    6    0    0  0.27974733494E+02 -0.31955433699E+02  0.26597486355E+02  0.50111493067E+02  0.00000000000E+00 0.  1.
</event>
<event>
12    1  0.1597826E-001  0.1866141E+03  0.7818608E-02  0.1162446E+00
         21   -1    0    0  501  502  0.00000000000E+00  0.00000000000E+00  0.45498003240E+03  0.45498003240E+03  0.00000000000E+00 0. -1.
         21   -1    0    0  502  503 -0.00000000000E+00 -0.00000000000E+00 -0.77936779062E+02  0.77936779062E+02  0.00000000000E+00 0. -1.
         -6    2    1    2    0  503  0.44595474619E+02  0.42507581854E+02  0.13471030486E+03  0.22705726148E+03  0.17208277916E+03 0.  0.
        -24    2    3    3    0    0  0.94514401535E+02  0.19450249780E+02  0.10679472068E+03  0.16521140740E+03  0.81107413078E+02 0.  0.
          6    2    1    2  501    0 -0.44595474619E+02 -0.42507581854E+02  0.24233294848E+03  0.30585954998E+03  0.17615094529E+03 0.  0.
         24    2    5    5    0    0 -0.40374167984E+02 -0.80396395232E+02  0.23932599497E+03  0.26733016667E+03  0.78069407164E+02 0.  0.
          5    1    5    5  501    0 -0.42213066351E+01  0.37888813377E+02  0.30069535008E+01  0.38529383309E+02  0.47000000000E+01 0. -1.
        -11    1    6    6    0    0  0.16411856486E+02 -0.63055276651E+01  0.11205495875E+02  0.20848785343E+02  0.00000000000E+00 0.  1.
         12    1    6    6    0    0 -0.56786024470E+02 -0.74090867566E+02  0.22812049910E+03  0.24648138133E+03  0.00000000000E+00 0. -1.
         -5    1    3    3    0  503 -0.49918926916E+02  0.23057332075E+02  0.27915584183E+02  0.61845854082E+02  0.47000000000E+01 0.  1.
         11    1    4    4    0    0  0.74530548957E+02  0.40768475917E+01  0.23605983082E+02  0.78285795975E+02  0.00000000000E+00 0. -1.
        -12    1    4    4    0    0  0.19983852578E+02  0.15373402188E+02  0.83188737596E+02  0.86925611425E+02  0.00000000000E+00 0.  1.
</event>
<event>
12    1  0.1597826E-001  0.1829468E+03  0.7818608E-02  0.1168279E+00
         21   -1    0    0  503  502  0.00000000000E+00  0.00000000000E+00  0.10583097788E+03  0.10583097788E+03  0.00000000000E+00 0.  1.
         21   -1    0    0  501  503 -0.00000000000E+00 -0.00000000000E+00 -0.78451135766E+03  0.78451135766E+03  0.00000000000E+00 0.  1.
          6    2    1    2  501    0 -0.43939458663E+02  0.46556286374E+02 -0.68659252870E+03  0.70722456251E+03  0.15703221811E+03 0.  0.
         24    2    3    3    0    0 -0.15900763340E+02  0.62538204208E+02 -0.26020515111E+03  0.27959168738E+03  0.79378395820E+02 0.  0.
         -6    2    1    2    0  502  0.43939458663E+02 -0.46556286374E+02  0.79121489266E+01  0.18311777303E+03  0.17138072491E+03 0.  0.
        -24    2    5    5    0    0  0.62058202845E+02  0.59712432647E+01  0.50853593169E+02  0.11273675361E+03  0.78972219101E+02 0.  0.
          5    1    3    3  501    0 -0.28038695324E+02 -0.15981917834E+02 -0.42638737759E+03  0.42763287514E+03  0.47000000000E+01 0. -1.
        -11    1    4    4    0    0  0.20016822139E+02  0.15323508243E+02 -0.16847211100E+03  0.17034768932E+03  0.00000000000E+00 0.  1.
         12    1    4    4    0    0 -0.35917585479E+02  0.47214695965E+02 -0.91733040117E+02  0.10924399805E+03  0.00000000000E+00 0. -1.
         -5    1    5    5    0  502 -0.18118744182E+02 -0.52527529639E+02 -0.42941444242E+02  0.70381019418E+02  0.47000000000E+01 0.  1.
         13    1    6    6    0    0  0.27891726796E+02 -0.14768738948E+02 -0.15587733491E+02  0.35200021437E+02  0.00000000000E+00 0. -1.
        -14    1    6    6    0    0  0.34166476049E+02  0.20739982213E+02  0.66441326659E+02  0.77536732173E+02  0.00000000000E+00 0.  1.
</event>
<event>
12    1  0.1597826E-001  0.1802869E+03  0.7818608E-02  0.1167755E+00
         21   -1    0    0  503  502  0.00000000000E+00  0.00000000000E+00  0.17293790697E+03  0.17293790697E+03  0.00000000000E+00 0. -1.
         21   -1    0    0  501  503 -0.00000000000E+00 -0.00000000000E+00 -0.23023231561E+03  0.23023231561E+03  0.00000000000E+00 0. -1.
          6    2    1    2  501    0  0.38813189269E+02 -0.34773178166E+02 -0.11597641236E+03  0.21357344160E+03  0.17160259075E+03 0.  0.
         24    2    3    3    0    0  0.28814775882E+02 -0.78228735256E+01 -0.14746574110E+03  0.17067874478E+03  0.80582879454E+02 0.  0.
         -6    2    1    2    0  502 -0.38813189269E+02  0.34773178166E+02  0.58682003719E+02  0.18959678098E+03  0.17259120550E+03 0.  0.
        -24    2    5    5    0    0 -0.14862064304E+02  0.49241500310E+01 -0.30330048071E+02  0.92592367511E+02  0.86071519659E+02 0.  0.
          5    1    3    3  501    0  0.99984133870E+01 -0.26950304640E+02  0.31489328742E+02  0.42894696818E+02  0.47000000000E+01 0. -1.
        -13    1    4    4    0    0  0.25275947892E+02  0.34706016776E+02 -0.66527119927E+02  0.79178525044E+02  0.00000000000E+00 0.  1.
         14    1    4    4    0    0  0.35388279905E+01 -0.42528890302E+02 -0.80938621178E+02  0.91500219738E+02  0.00000000000E+00 0. -1.
         -5    1    5    5    0  502 -0.23951124965E+02  0.29849028135E+02  0.89012051791E+02  0.97004413465E+02  0.47000000000E+01 0.  1.
         13    1    6    6    0    0 -0.16460339829E+02  0.36663156080E+02  0.98360531954E+01  0.41374844332E+02  0.00000000000E+00 0. -1.
        -14    1    6    6    0    0  0.15982755244E+01 -0.31739006049E+02 -0.40166101267E+02  0.51217523179E+02  0.00000000000E+00 0.  1.
</event>
<event>
12    1  0.1597826E-001  0.1741183E+03  0.7818608E-02  0.1174155E+00
         21   -1    0    0  503  502  0.00000000000E+00  0.00000000000E+00  0.30141473223E+03  0.30141473223E+03  0.00000000000E+00 0.  1.
         21   -1    0    0  501  503 -0.00000000000E+00 -0.00000000000E+00 -0.22366326229E+03  0.22366326229E+03  0.00000000000E+00 0.  1.
          6    2    1    2  501    0 -0.12373596241E+02 -0.54549368934E+01 -0.15672950352E+03  0.23426758702E+03  0.17359234671E+03 0.  0.
         24    2    3    3    0    0 -0.58906373658E+02 -0.29495012875E+02 -0.47532772840E+02  0.11306840955E+03  0.78645941429E+02 0.  0.
         -6    2    1    2    0  502  0.12373596241E+02  0.54549368934E+01  0.23448097346E+03  0.29081040750E+03  0.17148324692E+03 0.  0.
        -24    2    5    5    0    0 -0.28182863527E+02 -0.48754345845E+02  0.10230495599E+03  0.14223025284E+03  0.81190398244E+02 0.  0.
          5    1    3    3  501    0  0.46532777417E+02  0.24040075981E+02 -0.10919673068E+03  0.12119917747E+03  0.47000000000E+01 0. -1.
        -11    1    4    4    0    0  0.43174375081E+01 -0.24012069134E+02 -0.43008229535E+02  0.49446208535E+02  0.00000000000E+00 0.  1.
         12    1    4    4    0    0 -0.63223811166E+02 -0.54829437407E+01 -0.45245433048E+01  0.63622201019E+02  0.00000000000E+00 0. -1.
         -5    1    5    5    0  502  0.40556459768E+02  0.54209282739E+02  0.13217601747E+03  0.14858015466E+03  0.47000000000E+01 0.  1.
         13    1    6    6    0    0 -0.18650046765E+02  0.15386019764E+02  0.40619206272E+01  0.24516383251E+02  0.00000000000E+00 0. -1.
        -14    1    6    6    0    0 -0.95328167613E+01 -0.64140365609E+02  0.98243035362E+02  0.11771386959E+03  0.00000000000E+00 0.  1.
</event>
<event>
12    1  0.1597826E-001  0.1901429E+03  0.7818608E-02  0.1158788E+00
         21   -1    0    0  503  502  0.00000000000E+00  0.00000000000E+00  0.56410714228E+02  0.56410714228E+02  0.00000000000E+00 0.  1.
         21   -1    0    0  501  503 -0.00000000000E+00 -0.00000000000E+00 -0.63416811234E+03  0.63416811234E+03  0.00000000000E+00 0.  1.
          6    2    1    2  501    0  0.52828011455E+02  0.55312053362E+02 -0.29187173327E+03  0.34834383627E+03  0.17408072134E+03 0.  0.
         24    2    3    3    0    0 -0.35262676175E+02  0.30285846228E+01 -0.15370486908E+03  0.17628075856E+03  0.78721600616E+02 0.  0.
         -6    2    1    2    0  502 -0.52828011455E+02 -0.55312053362E+02 -0.28588566484E+03  0.34223499030E+03  0.17188354541E+03 0.  0.
        -24    2    5    5    0    0 -0.10264728516E+03 -0.37819738155E+02 -0.20498960711E+03  0.24551786007E+03  0.79318868155E+02 0.  0.
          5    1    3    3  501    0  0.88090687630E+02  0.52283468739E+02 -0.13816686419E+03  0.17206307771E+03  0.47000000000E+01 0. -1.
        -11    1    4    4    0    0 -0.15299029693E+02 -0.12088198285E+02 -0.14964811501E+03  0.15091303182E+03  0.00000000000E+00 0.  1.
         12    1    4    4    0    0 -0.19963646482E+02  0.15116782908E+02 -0.40567540711E+01  0.25367726740E+02  0.00000000000E+00 0. -1.
         -5    1    5    5    0  502  0.49819273702E+02 -0.17492315207E+02 -0.80896057734E+02  0.96717130232E+02  0.47000000000E+01 0.  1.
         11    1    6    6    0    0 -0.89599489765E+02  0.54898049423E+01 -0.14119700911E+03  0.16731647231E+03  0.00000000000E+00 0. -1.
        -12    1    6    6    0    0 -0.13047795392E+02 -0.43309543097E+02 -0.63792597997E+02  0.78201387757E+02  0.00000000000E+00 0.  1.
</event>
<event>
12    1  0.1597826E-001  0.2115218E+03  0.7818608E-02  0.1140414E+00
         21   -1    0    0  501  502  0.00000000000E+00  0.00000000000E+00  0.26985702647E+02  0.26985702647E+02  0.00000000000E+00 0. -1.
         21   -1    0    0  502  503 -0.00000000000E+00 -0.00000000000E+00 -0.19466160616E+04  0.19466160616E+04  0.00000000000E+00 0. -1.
         -6    2    1    2    0  503 -0.99271166235E+02  0.72423528333E+02 -0.13405794615E+04  0.13571267638E+04  0.17187154643E+03 0.  0.
        -24    2    3    3    0    0 -0.11312293057E+03  0.22794687829E+02 -0.68924977302E+03  0.70374529306E+03  0.82920399673E+02 0.  0.
          6    2    1    2  501    0  0.99271166235E+02 -0.72423528333E+02 -0.57905089748E+03  0.61647500050E+03  0.17216722237E+03 0.  0.
         24    2    5    5    0    0  0.65452792757E+01 -0.16228682009E+02 -0.39087996672E+03  0.39925083046E+03  0.79422077757E+02 0.  0.
          5    1    5    5  501    0  0.92725886959E+02 -0.56194846324E+02 -0.18817093076E+03  0.21722417004E+03  0.47000000000E+01 0. -1.
        -13    1    6    6    0    0  0.26092337885E+02 -0.23554450477E+01 -0.35580263317E+03  0.35676585037E+03  0.00000000000E+00 0.  1.
         14    1    6    6    0    0 -0.19547058610E+02 -0.13873236961E+02 -0.35077333552E+02  0.42484980089E+02  0.00000000000E+00 0. -1.
         -5    1    3    3    0  503  0.13851764337E+02  0.49628840504E+02 -0.65132968847E+03  0.65338147071E+03  0.47000000000E+01 0.  1.
         13    1    4    4    0    0 -0.20690038586E+02 -0.26775136664E+02 -0.24243934443E+03  0.24478934080E+03  0.00000000000E+00 0. -1.
        -14    1    4    4    0    0 -0.92432891986E+02  0.49569824493E+02 -0.44681042859E+03  0.45895595226E+03  0.00000000000E+00 0.  1.
</event>
<event>
12    1  0.1597826E-001  0.2153958E+03  0.7818608E-02  0.1137597E+00
         21   -1    0    0  503  502  0.00000000000E+00  0.00000000000E+00  0.20660615703E+03  0.20660615703E+03  0.00000000000E+00 0.  1.
         21   -1    0    0  501  503 -0.00000000000E+00 -0.00000000000E+00 -0.22950094678E+03  0.22950094678E+03  0.00000000000E+00 0.  1.
          6    2    1    2  501    0 -0.44226316379E+02 -0.12038629847E+03  0.24381423907E+02  0.21677133877E+03  0.17305066183E+03 0.  0.
         24    2    3    3    0    0  0.50293377180E+01  0.28018851023E+01 -0.68448983284E+01  0.80394576699E+02  0.79895497567E+02 0.  0.
         -6    2    1    2    0  502  0.44226316379E+02  0.12038629847E+03 -0.47276213652E+02  0.21933576504E+03  0.17153515538E+03 0.  0.
        -24    2    5    5    0    0  0.91260985031E+01  0.60561930178E+01 -0.36746662086E+02  0.99184361538E+02  0.91472713153E+02 0.  0.
          5    1    3    3  501    0 -0.49255654097E+02 -0.12318818357E+03  0.31226322236E+02  0.13637676207E+03  0.47000000000E+01 0. -1.
        -11    1    4    4    0    0  0.28086221617E+02 -0.62314132907E+01 -0.33401908990E+02  0.44083487618E+02  0.00000000000E+00 0.  1.
         12    1    4    4    0    0 -0.23056883899E+02  0.90332983931E+01  0.26557010662E+02  0.36311089082E+02  0.00000000000E+00 0. -1.
         -5    1    5    5    0  502  0.35100217876E+02  0.11433010545E+03 -0.10529551566E+02  0.12015140350E+03  0.47000000000E+01 0.  1.
         11    1    6    6    0    0  0.30125015328E+02  0.40576745499E+02 -0.12492808106E+02  0.52058227766E+02  0.00000000000E+00 0. -1.
        -12    1    6    6    0    0 -0.20998916825E+02 -0.34520552481E+02 -0.24253853980E+02  0.47126133772E+02  0.00000000000E+00 0.  1.
</event>
<event>
12    1  0.1597826E-001  0.1790152E+03  0.7818608E-02  0.1168935E+00
         21   -1    0    0  501  502  0.00000000000E+00  0.00000000000E+00  0.27105421389E+02  0.27105421389E+02  0.00000000000E+00 0. -1.
         21   -1    0    0  502  503 -0.00000000000E+00 -0.00000000000E+00 -0.11798604296E+04  0.11798604296E+04  0.00000000000E+00 0. -1.
         -6    2    1    2    0  503 -0.57903330263E+01  0.48164710331E+02 -0.55075577275E+03  0.57911860761E+03  0.17231678149E+03 0.  0.
        -24    2    3    3    0    0  0.25294816207E+02  0.38576778227E+02 -0.53559303201E+03  0.54292173410E+03  0.76000775502E+02 0.  0.
          6    2    1    2  501    0  0.57903330263E+01 -0.48164710331E+02 -0.60199923543E+03  0.62784724335E+03  0.17156839524E+03 0.  0.
         24    2    5    5    0    0 -0.39632310339E+02 -0.47042287356E+02 -0.53541763771E+03  0.54710273568E+03  0.94157632711E+02 0.  0.
          5    1    5    5  501    0  0.45422643365E+02 -0.11224229756E+01 -0.66581597720E+02  0.80744507668E+02  0.47000000000E+01 0. -1.
        -13    1    6    6    0    0 -0.25436906414E+02 -0.17022281323E+02 -0.48939254597E+03  0.49034871094E+03  0.00000000000E+00 0.  1.
         14    1    6    6    0    0 -0.14195403925E+02 -0.30020006033E+02 -0.46025091739E+02  0.56754024742E+02  0.00000000000E+00 0. -1.
         -5    1    3    3    0  503 -0.31085149233E+02  0.95879321042E+01 -0.15162740739E+02  0.36196873506E+02  0.47000000000E+01 0.  1.
         11    1    4    4    0    0  0.91064539314E+01  0.59440768159E+02 -0.42421019594E+03  0.42845119064E+03  0.00000000000E+00 0. -1.
        -12    1    4    4    0    0  0.16188362276E+02 -0.20863989932E+02 -0.11138283607E+03  0.11447054346E+03  0.00000000000E+00 0.  1.
</event>
<event>
12    1  0.1597826E-001  0.2019571E+03  0.7818608E-02  0.1148212E+00
         21   -1    0    0  501  502  0.00000000000E+00  0.00000000000E+00  0.75712331544E+02  0.75712331544E+02  0.00000000000E+00 0.  1.
         21   -1    0    0  502  503 -0.00000000000E+00 -0.00000000000E+00 -0.84602431260E+03  0.84602431260E+03  0.00000000000E+00 0.  1.
         -6    2    1    2    0  503 -0.56862763210E+02  0.88511179239E+02 -0.10640026305E+03  0.22778747366E+03  0.17175131582E+03 0.  0.
        -24    2    3    3    0    0  0.19185548385E+02  0.18172950974E+02 -0.73766156077E+01  0.84404821969E+02  0.79821163233E+02 0.  0.
          6    2    1    2  501    0  0.56862763210E+02 -0.88511179239E+02 -0.66391171801E+03  0.69394917049E+03  0.17239222496E+03 0.  0.
         24    2    5    5    0    0 -0.43300809733E+01 -0.10168252981E+03 -0.33523826900E+03  0.35933540100E+03  0.79869562008E+02 0.  0.
          5    1    5    5  501    0  0.61192844183E+02  0.13171350570E+02 -0.32867344900E+03  0.33461376949E+03  0.47000000000E+01 0. -1.
        -13    1    6    6    0    0  0.19921762148E+02 -0.10300830561E+03 -0.27909399861E+03  0.29816278723E+03  0.00000000000E+00 0.  1.
         14    1    6    6    0    0 -0.24251843121E+02  0.13257758039E+01 -0.56144270397E+02  0.61172613763E+02  0.00000000000E+00 0. -1.
         -5    1    3    3    0  503 -0.76048311596E+02  0.70338228264E+02 -0.99023647445E+02  0.14338265169E+03  0.47000000000E+01 0.  1.
         13    1    4    4    0    0  0.13949184208E+02 -0.21431824586E+01  0.34660234731E+02  0.37423319504E+02  0.00000000000E+00 0. -1.
        -14    1    4    4    0    0  0.52363641773E+01  0.20316133433E+02 -0.42036850339E+02  0.46981502465E+02  0.00000000000E+00 0.  1.
</event>
<event>
12    1  0.1597826E-001  0.1804801E+03  0.7818608E-02  0.1167481E+00
         21   -1    0    0  503  502  0.00000000000E+00  0.00000000000E+00  0.24157531281E+03  0.24157531281E+03  0.00000000000E+00 0.  1.
         21   -1    0    0  501  503 -0.00000000000E+00 -0.00000000000E+00 -0.30543391501E+03  0.30543391501E+03  0.00000000000E+00 0.  1.
          6    2    1    2  501    0  0.51660290118E+02 -0.11120225947E+02 -0.23661907331E+03  0.29759310005E+03  0.17257063002E+03 0.  0.
         24    2    3    3    0    0 -0.80871032231E+01 -0.61583798332E+02 -0.15264857174E+03  0.18274773322E+03  0.78975832299E+02 0.  0.
         -6    2    1    2    0  502 -0.51660290118E+02  0.11120225947E+02  0.17276047111E+03  0.24941612776E+03  0.17195865611E+03 0.  0.
        -24    2    5    5    0    0 -0.10729871965E+01  0.12964875078E+02  0.13110449573E+02  0.81867038467E+02  0.79756434299E+02 0.  0.
          5    1    3    3  501    0  0.59747393341E+02  0.50463572386E+02 -0.83970501574E+02  0.11484536684E+03  0.47000000000E+01 0. -1.
        -13    1    4    4    0    0 -0.25254682973E+01 -0.57357669900E+02 -0.16154076773E+03  0.17144007678E+03  0.00000000000E+00 0.  1.
         14    1    4    4    0    0 -0.55616349258E+01 -0.42261284327E+01  0.88921959939E+01  0.11307656440E+02  0.00000000000E+00 0. -1.
         -5    1    5    5    0  502 -0.50587302921E+02 -0.18446491308E+01  0.15965002153E+03  0.16754908929E+03  0.47000000000E+01 0.  1.
         13    1    6    6    0    0 -0.20180158415E+02  0.67042892899E+01 -0.28555455276E+02  0.35603375045E+02  0.00000000000E+00 0. -1.
        -14    1    6    6    0    0  0.19107171218E+02  0.62605857877E+01  0.41665904849E+02  0.46263663423E+02  0.00000000000E+00 0.  1.
</event>
<event>
12    1  0.1597826E-001  0.1761070E+03  0.7818608E-02  0.1171862E+00
         21   -1    0    0  501  502  0.00000000000E+00  0.00000000000E+00  0.10315462676E+03  0.10315462676E+03  0.00000000000E+00 0.  1.
         21   -1    0    0  502  503 -0.00000000000E+00 -0.00000000000E+00 -0.30702697955E+03  0.30702697955E+03  0.00000000000E+00 0.  1.
         -6    2    1    2    0  503  0.37196372597E+02 -0.94445158308E+01 -0.13476028581E+03  0.22099879560E+03  0.17090162085E+03 0.  0.
        -24    2    3    3    0    0  0.18841639044E+02  0.55873308234E+02 -0.43499986250E+02  0.10718382883E+03  0.78225893566E+02 0.  0.
          6    2    1    2  501    0 -0.37196372597E+02  0.94445158308E+01 -0.69112066981E+02  0.18918281071E+03  0.17187463179E+03 0.  0.
         24    2    5    5    0    0 -0.36363094507E+02  0.71053071665E+02 -0.36785073858E+02  0.11944449277E+03  0.80889007657E+02 0.  0.
          5    1    5    5  501    0 -0.83327809023E+00 -0.61608555834E+02 -0.32326993123E+02  0.69738317937E+02  0.47000000000E+01 0. -1.
        -13    1    6    6    0    0 -0.96875490686E+01  0.72706014620E+02  0.76685453420E+00  0.73352581650E+02  0.00000000000E+00 0.  1.
         14    1    6    6    0    0 -0.26675545439E+02 -0.16529429551E+01 -0.37551928393E+02  0.46091911122E+02  0.00000000000E+00 0. -1.
         -5    1    3    3    0  503  0.18354733554E+02 -0.65317824064E+02 -0.91260299559E+02  0.11381496677E+03  0.47000000000E+01 0.  1.
         13    1    4    4    0    0  0.31910050244E+02  0.46089275013E+02 -0.61275551849E+02  0.83049177191E+02  0.00000000000E+00 0. -1.
        -14    1    4    4    0    0 -0.13068411201E+02  0.97840332206E+01  0.17775565599E+02  0.24134651639E+02  0.00000000000E+00 0.  1.
</event>
<event>
12    1  0.1597826E-001  0.1800503E+03  0.7818608E-02  0.1168076E+00
         21   -1    0    0  503  502  0.00000000000E+00  0.00000000000E+00  0.18860781336E+03  0.18860781336E+03  0.00000000000E+00 0. -1.
         21   -1    0    0  501  503 -0.00000000000E+00 -0.00000000000E+00 -0.21919345647E+03  0.21919345647E+03  0.00000000000E+00 0. -1.
          6    2    1    2  501    0 -0.52892094405E+02 -0.16491730390E+02 -0.11123488973E+03  0.21051364018E+03  0.16992127938E+03 0.  0.
         24    2    3    3    0    0 -0.70581599500E+02 -0.51088160043E+02 -0.58012522119E+02  0.14444896014E+03  0.99540379128E+02 0.  0.
         -6    2    1    2    0  502  0.52892094405E+02  0.16491730390E+02  0.80649246625E+02  0.19728762964E+03  0.17131420550E+03 0.  0.
        -24    2    5    5    0    0 -0.36891699734E+02  0.14924463338E+02  0.33848224483E+02  0.95916964807E+02  0.80440193448E+02 0.  0.
          5    1    3    3  501    0  0.17689505095E+02  0.34596429653E+02 -0.53222367614E+02  0.66064680047E+02  0.47000000000E+01 0. -1.
        -13    1    4    4    0    0 -0.27106958196E+02 -0.46706899853E+02  0.17872063351E+02  0.56883497827E+02  0.00000000000E+00 0.  1.
         14    1    4    4    0    0 -0.43474641304E+02 -0.43812601896E+01 -0.75884585470E+02  0.87565462309E+02  0.00000000000E+00 0. -1.
         -5    1    5    5    0  502  0.89783794139E+02  0.15672670520E+01  0.46801022142E+02  0.10137066484E+03  0.47000000000E+01 0.  1.
         11    1    6    6    0    0  0.15018133538E+02  0.19919916057E+02  0.35911837399E+02  0.43726507476E+02  0.00000000000E+00 0. -1.
        -12    1    6    6    0    0 -0.51909833272E+02 -0.49954527187E+01 -0.20636129164E+01  0.52190457331E+02  0.00000000000E+00 0.  1.
</event>
<event>
12    1  0.1597826E-001  0.2069918E+03  0.7818608E-02  0.1144197E+00
         21   -1    0    0  501  502  0.00000000000E+00  0.00000000000E+00  0.14331251905E+03  0.14331251905E+03  0.00000000000E+00 0.  1.
         21   -1    0    0  502  503 -0.00000000000E+00 -0.00000000000E+00 -0.36429508991E+03  0.36429508991E+03  0.00000000000E+00 0.  1.
         -6    2    1    2    0  503 -0.10681913053E+03 -0.38559448507E+02 -0.14496251342E+01  0.20587875216E+03  0.17171721365E+03 0.  0.
        -24    2    3    3    0    0  0.12257707462E+02 -0.30278968438E+02  0.57204436588E+01  0.86206869158E+02  0.79572818804E+02 0.  0.
          6    2    1    2  501    0  0.10681913053E+03  0.38559448507E+02 -0.21953294572E+03  0.30172885680E+03  0.17305614999E+03 0.  0.
         24    2    5    5    0    0 -0.46104576094E+01  0.37578111472E+02 -0.13445314277E+03  0.16144992393E+03  0.80963322289E+02 0.  0.
          5    1    5    5  501    0  0.11142958814E+03  0.98133703479E+00 -0.85079802949E+02  0.14027893286E+03  0.47000000000E+01 0. -1.
        -13    1    6    6    0    0  0.22355102398E+02  0.41162510353E+02 -0.12357144731E+03  0.13215144892E+03  0.00000000000E+00 0.  1.
         14    1    6    6    0    0 -0.26965560008E+02 -0.35843988803E+01 -0.10881695458E+02  0.29298475010E+02  0.00000000000E+00 0. -1.
         -5    1    3    3    0  503 -0.11907683799E+03 -0.82804800689E+01 -0.71700687930E+01  0.11967188301E+03  0.47000000000E+01 0.  1.
         13    1    4    4    0    0 -0.18259968732E+02  0.97853753988E+01  0.24832165170E+02  0.32339085590E+02  0.00000000000E+00 0. -1.
        -14    1    4    4    0    0  0.30517676194E+02 -0.40064343837E+02 -0.19111721512E+02  0.53867783568E+02  0.00000000000E+00 0.  1.
</event>
<event>
12    1  0.1597826E-001  0.8029559E+03  0.7818608E-02  0.9556400E-01
         21   -1    0    0  503  502  0.00000000000E+00  0.00000000000E+00  0.50485815854E+03  0.50485815854E+03  0.00000000000E+00 0.  1.
         21   -1    0    0  501  503 -0.00000000000E+00 -0.00000000000E+00 -0.15425949743E+04  0.15425949743E+04  0.00000000000E+00 0. -1.
          6    2    1    2  501    0  0.77279375444E+03  0.12280536100E+03 -0.94637106193E+03  0.12411109155E+04  0.18012988097E+03 0.  0.
         24    2    3    3    0    0  0.43097137275E+03  0.11418915562E+03 -0.45246050686E+03  0.64037261467E+03  0.81123905013E+02 0.  0.
         -6    2    1    2    0  502 -0.77279375444E+03 -0.12280536100E+03 -0.91365753809E+02  0.80634221737E+03  0.17189743149E+03 0.  0.
        -24    2    5    5    0    0 -0.70039804599E+03 -0.96571127360E+02 -0.12485347266E+03  0.72224173622E+03  0.78494142639E+02 0.  0.
          5    1    3    3  501    0  0.34182238168E+03  0.86162053838E+01 -0.49391055507E+03  0.60073830078E+03  0.47000000000E+01 0. -1.
        -11    1    4    4    0    0  0.22772653350E+03  0.45155858894E+02 -0.18146042665E+03  0.29466304840E+03  0.00000000000E+00 0.  1.
         12    1    4    4    0    0  0.20324483925E+03  0.69033296723E+02 -0.27100008021E+03  0.34570956627E+03  0.00000000000E+00 0. -1.
         -5    1    5    5    0  502 -0.72395708445E+02 -0.26234233641E+02  0.33487718853E+02  0.84100481152E+02  0.47000000000E+01 0.  1.
         13    1    6    6    0    0 -0.48028087751E+03 -0.93824424476E+02 -0.11023963518E+03  0.50162288733E+03  0.00000000000E+00 0. -1.
        -14    1    6    6    0    0 -0.22011716848E+03 -0.27467028838E+01 -0.14613837478E+02  0.22061884888E+03  0.00000000000E+00 0.  1.
</event>
<event>
12    1  0.1597826E-001  0.2233258E+03  0.7818608E-02  0.1133084E+00
         21   -1    0    0  501  502  0.00000000000E+00  0.00000000000E+00  0.11750967105E+03  0.11750967105E+03  0.00000000000E+00 0.  1.
         21   -1    0    0  502  503 -0.00000000000E+00 -0.00000000000E+00 -0.11367226751E+04  0.11367226751E+04  0.00000000000E+00 0. -1.
         -6    2    1    2    0  503  0.68489818991E+02  0.12286038264E+03 -0.10154754382E+04  0.10397426426E+04  0.17346143206E+03 0.  0.
        -24    2    3    3    0    0  0.77001993408E+02  0.11124566156E+03 -0.50273629508E+03  0.52677980018E+03  0.80301128779E+02 0.  0.
          6    2    1    2  501    0 -0.68489818991E+02 -0.12286038264E+03 -0.37375658317E+01  0.21448970349E+03  0.16188370696E+03 0.  0.
         24    2    5    5    0    0 -0.44584200064E+01 -0.30691352216E+02 -0.39179100364E+02  0.96704549099E+02  0.82794512508E+02 0.  0.
          5    1    5    5  501    0 -0.64031398984E+02 -0.92169030425E+02  0.35441534532E+02  0.11778515439E+03  0.47000000000E+01 0. -1.
        -13    1    6    6    0    0 -0.13714171309E+01 -0.59227494799E+02 -0.30975852358E+02  0.66852676494E+02  0.00000000000E+00 0.  1.
         14    1    6    6    0    0 -0.30870028755E+01  0.28536142582E+02 -0.82032480059E+01  0.29851872606E+02  0.00000000000E+00 0. -1.
         -5    1    3    3    0  503 -0.85121744167E+01  0.11614721085E+02 -0.51273914312E+03  0.51296284246E+03  0.47000000000E+01 0.  1.
         13    1    4    4    0    0  0.30369026349E+02  0.95340536713E+02 -0.40687002043E+03  0.41899320905E+03  0.00000000000E+00 0. -1.
        -14    1    4    4    0    0  0.46632967059E+02  0.15905124843E+02 -0.95866274650E+02  0.10778659113E+03  0.00000000000E+00 0.  1.
</event>
<event>
12    1  0.1597826E-001  0.2164115E+03  0.7818608E-02  0.1136792E+00
         21   -1    0    0  503  502  0.00000000000E+00  0.00000000000E+00  0.31739443129E+03  0.31739443129E+03  0.00000000000E+00 0. -1.
         21   -1    0    0  501  503 -0.00000000000E+00 -0.00000000000E+00 -0.15671899237E+03  0.15671899237E+03  0.00000000000E+00 0. -1.
          6    2    1    2  501    0 -0.13010975347E+03 -0.13354773989E+02  0.20961291617E+02  0.21742430102E+03  0.17241535022E+03 0.  0.
         24    2    3    3    0    0 -0.62710115530E+02  0.53218837116E+02 -0.15116540198E+02  0.11594298826E+03  0.80308552010E+02 0.  0.
         -6    2    1    2    0  502  0.13010975347E+03  0.13354773989E+02  0.13971414730E+03  0.25668912264E+03  0.17106245874E+03 0.  0.
        -24    2    5    5    0    0  0.39016947085E+02 -0.40120375137E+02  0.53049773524E+02  0.11997667028E+03  0.91913852486E+02 0.  0.
          5    1    3    3  501    0 -0.67399637940E+02 -0.66573611105E+02  0.36077831815E+02  0.10148131275E+03  0.47000000000E+01 0. -1.
        -13    1    4    4    0    0 -0.44158126472E+02  0.34440554854E+02 -0.48012737669E+02  0.73765269136E+02  0.00000000000E+00 0.  1.
         14    1    4    4    0    0 -0.18551989058E+02  0.18778282262E+02  0.32896197471E+02  0.42177719127E+02  0.00000000000E+00 0. -1.
         -5    1    5    5    0  502  0.91092806385E+02  0.53475149126E+02  0.86664373776E+02  0.13671245236E+03  0.47000000000E+01 0.  1.
         13    1    6    6    0    0 -0.10130199282E+02  0.16481293915E+02  0.39246033032E+02  0.43755057940E+02  0.00000000000E+00 0. -1.
        -14    1    6    6    0    0  0.49147146368E+02 -0.56601669053E+02  0.13803740492E+02  0.76221612336E+02  0.00000000000E+00 0.  1.
</event>
<event>
12    1  0.1597826E-001  0.1779721E+03  0.7818608E-02  0.1170345E+00
         21   -1    0    0  501  502  0.00000000000E+00  0.00000000000E+00  0.31164867904E+02  0.31164867904E+02  0.00000000000E+00 0. -1.
         21   -1    0    0  502  503 -0.00000000000E+00 -0.00000000000E+00 -0.12998721816E+04  0.12998721816E+04  0.00000000000E+00 0. -1.
         -6    2    1    2    0  503  0.29252655582E+02  0.33207872310E+02 -0.95538004472E+03  0.97181536883E+03  0.17238213538E+03 0.  0.
        -24    2    3    3    0    0  0.11260514017E+02 -0.47439493926E+02 -0.49719776610E+03  0.50621811231E+03  0.81693658581E+02 0.  0.
          6    2    1    2  501    0 -0.29252655582E+02 -0.33207872310E+02 -0.31332726903E+03  0.35922168073E+03  0.17002281537E+03 0.  0.
         24    2    5    5    0    0 -0.46261537077E+02 -0.42017092963E+02 -0.32194314895E+03  0.33769895309E+03  0.80545799702E+02 0.  0.
          5    1    5    5  501    0  0.17008881495E+02  0.88092206532E+01  0.86158799196E+01  0.21522727639E+02  0.47000000000E+01 0. -1.
        -13    1    6    6    0    0  0.11969883921E+02  0.36497124182E+01 -0.14982004074E+03  0.15034175445E+03  0.00000000000E+00 0.  1.
         14    1    6    6    0    0 -0.58231420998E+02 -0.45666805381E+02 -0.17212310820E+03  0.18735719864E+03  0.00000000000E+00 0. -1.
         -5    1    3    3    0  503  0.17992141564E+02  0.80647366236E+02 -0.45818227862E+03  0.46559725652E+03  0.47000000000E+01 0.  1.
         13    1    4    4    0    0  0.15305532096E+02 -0.10473682164E+02 -0.42122103345E+03  0.42162912180E+03  0.00000000000E+00 0. -1.
        -14    1    4    4    0    0 -0.40450180786E+01 -0.36965811762E+02 -0.75976732655E+02  0.84588990510E+02  0.00000000000E+00 0.  1.
</event>
<event>
12    1  0.1597826E-001  0.1842512E+03  0.7818608E-02  0.1163953E+00
         21   -1    0    0  503  502  0.00000000000E+00  0.00000000000E+00  0.48031841867E+02  0.48031841867E+02  0.00000000000E+00 0. -1.
         21   -1    0    0  501  503 -0.00000000000E+00 -0.00000000000E+00 -0.84264420747E+03  0.84264420747E+03  0.00000000000E+00 0. -1.
          6    2    1    2  501    0  0.63459917568E+02 -0.20003876535E+02 -0.57905079739E+03  0.60765805679E+03  0.17181726282E+03 0.  0.
         24    2    3    3    0    0 -0.15775559326E+01  0.19653414748E+02 -0.14449820358E+03  0.16645445243E+03  0.80240940304E+02 0.  0.
         -6    2    1    2    0  502 -0.63459917568E+02  0.20003876535E+02 -0.21556156821E+03  0.28301799255E+03  0.17089493323E+03 0.  0.
        -24    2    5    5    0    0 -0.10845190566E+03  0.41915344874E+01 -0.14908935087E+03  0.20107316458E+03  0.80146105129E+02 0.  0.
          5    1    3    3  501    0  0.65037473501E+02 -0.39657291283E+02 -0.43455259381E+03  0.44120360436E+03  0.47000000000E+01 0. -1.
        -11    1    4    4    0    0 -0.16029917075E+01 -0.17638833986E+02 -0.12118990338E+03  0.12247730699E+03  0.00000000000E+00 0.  1.
         12    1    4    4    0    0  0.25435774814E-01  0.37292248734E+02 -0.23308300208E+02  0.43977145442E+02  0.00000000000E+00 0. -1.
         -5    1    5    5    0  502  0.44991988091E+02  0.15812342047E+02 -0.66472217334E+02  0.81944827968E+02  0.47000000000E+01 0.  1.
         11    1    6    6    0    0 -0.51370671351E+02 -0.36815178832E+02 -0.56076865814E+02  0.84492118845E+02  0.00000000000E+00 0. -1.
        -12    1    6    6    0    0 -0.57081234308E+02  0.41006713319E+02 -0.93012485059E+02  0.11658104573E+03  0.00000000000E+00 0.  1.
</event>
<event>
12    1  0.1597826E-001  0.2732567E+03  0.7818608E-02  0.1100748E+00
         21   -1    0    0  503  502  0.00000000000E+00  0.00000000000E+00  0.19001044469E+03  0.19001044469E+03  0.00000000000E+00 0. -1.
         21   -1    0    0  501  503 -0.00000000000E+00 -0.00000000000E+00 -0.38006091754E+03  0.38006091754E+03  0.00000000000E+00 0. -1.
          6    2    1    2  501    0  0.19140004115E+03 -0.57109466417E+02 -0.87169086899E+02  0.27808879192E+03  0.17274101880E+03 0.  0.
         24    2    3    3    0    0  0.20149819719E+02  0.37408551500E+01 -0.16283780280E+02  0.82957511319E+02  0.78719616056E+02 0.  0.
         -6    2    1    2    0  502 -0.19140004115E+03  0.57109466417E+02 -0.10288138595E+03  0.29198257031E+03  0.18647727712E+03 0.  0.
        -24    2    5    5    0    0 -0.16313072728E+03  0.10928919315E+03 -0.94027043237E+02  0.23179646416E+03  0.79578602732E+02 0.  0.
          5    1    3    3  501    0  0.17125022143E+03 -0.60850321567E+02 -0.70885306619E+02  0.19513128060E+03  0.47000000000E+01 0. -1.
        -13    1    4    4    0    0  0.50583997761E+02  0.14947086070E+00 -0.80058985331E+01  0.51213841707E+02  0.00000000000E+00 0.  1.
         14    1    4    4    0    0 -0.30434178042E+02  0.35913842893E+01 -0.82778817473E+01  0.31743669612E+02  0.00000000000E+00 0. -1.
         -5    1    5    5    0  502 -0.28269313867E+02 -0.52179726736E+02 -0.88543427149E+01  0.60186106151E+02  0.47000000000E+01 0.  1.
         11    1    6    6    0    0 -0.10235473157E+03  0.79636981939E+02 -0.10020804518E+03  0.16389079378E+03  0.00000000000E+00 0. -1.
        -12    1    6    6    0    0 -0.60775995716E+02  0.29652211213E+02  0.61810019396E+01  0.67905670382E+02  0.00000000000E+00 0.  1.
</event>
<event>
12    1  0.1597826E-001  0.2101096E+03  0.7818608E-02  0.1141538E+00
         21   -1    0    0  501  502  0.00000000000E+00  0.00000000000E+00  0.10358268336E+04  0.10358268336E+04  0.00000000000E+00 0. -1.
         21   -1    0    0  502  503 -0.00000000000E+00 -0.00000000000E+00 -0.45829086963E+02  0.45829086963E+02  0.00000000000E+00 0. -1.
         -6    2    1    2    0  503  0.12003062257E+03  0.71343138163E+01  0.35084954645E+03  0.40895163947E+03  0.17230145210E+03 0.  0.
        -24    2    3    3    0    0  0.89330129227E+02 -0.58294777393E+02  0.18847962539E+03  0.23116084237E+03  0.80824580431E+02 0.  0.
          6    2    1    2  501    0 -0.12003062257E+03 -0.71343138163E+01  0.63914820015E+03  0.67270428106E+03  0.17193713736E+03 0.  0.
         24    2    5    5    0    0 -0.10102555698E+02  0.65863442331E+01  0.14394879674E+03  0.16524297664E+03  0.80240536402E+02 0.  0.
          5    1    5    5  501    0 -0.10992806687E+03 -0.13720658049E+02  0.49519940341E+03  0.50746130442E+03  0.47000000000E+01 0. -1.
        -13    1    6    6    0    0  0.30944430847E+02 -0.17376101933E+01  0.99302207319E+02  0.10402646523E+03  0.00000000000E+00 0.  1.
         14    1    6    6    0    0 -0.41046986545E+02  0.83239544264E+01  0.44646589424E+02  0.61216511408E+02  0.00000000000E+00 0. -1.
         -5    1    3    3    0  503  0.30700493342E+02  0.65429091209E+02  0.16236992106E+03  0.17779079710E+03  0.47000000000E+01 0.  1.
         11    1    4    4    0    0  0.48976627187E+02 -0.37109600735E+02  0.17208255074E+03  0.18272448316E+03  0.00000000000E+00 0. -1.
        -12    1    4    4    0    0  0.40353502040E+02 -0.21185176658E+02  0.16397074649E+02  0.48436359215E+02  0.00000000000E+00 0.  1.
</event>
<event>
12    1  0.1597826E-001  0.2245985E+03  0.7818608E-02  0.1130642E+00
         21   -1    0    0  503  502  0.00000000000E+00  0.00000000000E+00  0.28345138460E+03  0.28345138460E+03  0.00000000000E+00 0.  1.
         21   -1    0    0  501  503 -0.00000000000E+00 -0.00000000000E+00 -0.17848126169E+03  0.17848126169E+03  0.00000000000E+00 0.  1.
          6    2    1    2  501    0  0.12238222901E+03  0.74369114764E+02  0.33986479320E+02  0.22638397581E+03  0.17200711764E+03 0.  0.
         24    2    3    3    0    0  0.26672585635E+02 -0.25906528484E+02  0.19188353375E+02  0.86897005112E+02  0.76159842106E+02 0.  0.
         -6    2    1    2    0  502 -0.12238222901E+03 -0.74369114764E+02  0.70983643582E+02  0.23554867048E+03  0.17302116431E+03 0.  0.
        -24    2    5    5    0    0 -0.89964653201E+02 -0.10027312324E+03  0.99330724525E+02  0.18507527279E+03  0.78980539979E+02 0.  0.
          5    1    3    3  501    0  0.95709643373E+02  0.10027564325E+03  0.14798125945E+02  0.13948697070E+03  0.47000000000E+01 0. -1.
        -13    1    4    4    0    0  0.52056821358E+02 -0.79975051103E+01  0.55164439845E+01  0.52955678564E+02  0.00000000000E+00 0.  1.
         14    1    4    4    0    0 -0.25384235723E+02 -0.17909023374E+02  0.13671909390E+02  0.33941326548E+02  0.00000000000E+00 0. -1.
         -5    1    5    5    0  502 -0.32417575807E+02  0.25904008471E+02 -0.28347080943E+02  0.50473397687E+02  0.47000000000E+01 0.  1.
         11    1    6    6    0    0  0.36820240392E+01 -0.30682609031E+02  0.49174461777E+02  0.58078459768E+02  0.00000000000E+00 0. -1.
        -12    1    6    6    0    0 -0.93646677240E+02 -0.69590514204E+02  0.50156262748E+02  0.12699681302E+03  0.00000000000E+00 0.  1.
</event>
<event>
12    1  0.1597826E-001  0.2922485E+03  0.7818608E-02  0.1089200E+00
         21   -1    0    0  501  502  0.00000000000E+00  0.00000000000E+00  0.64969806332E+02  0.64969806332E+02  0.00000000000E+00 0.  1.
         21   -1    0    0  502  503 -0.00000000000E+00 -0.00000000000E+00 -0.13631634317E+04  0.13631634317E+04  0.00000000000E+00 0.  1.
         -6    2    1    2    0  503 -0.16421744681E+03 -0.17075637270E+03 -0.51325469800E+03  0.59055441679E+03  0.17087722353E+03 0.  0.
        -24    2    3    3    0    0 -0.15171068411E+03 -0.65097784054E+02 -0.35737427689E+03  0.40176630236E+03  0.80286578977E+02 0.  0.
          6    2    1    2  501    0  0.16421744681E+03  0.17075637270E+03 -0.78493892736E+03  0.83757882123E+03  0.17112584095E+03 0.  0.
         24    2    5    5    0    0  0.15852644844E+03  0.10174916070E+03 -0.69416325639E+03  0.72331292427E+03  0.76390008029E+02 0.  0.
          5    1    5    5  501    0  0.56909983715E+01  0.69007211996E+02 -0.90775670962E+02  0.11426589696E+03  0.47000000000E+01 0. -1.
        -13    1    6    6    0    0  0.92545648562E+02  0.51128163054E+02 -0.25011326347E+03  0.27154268668E+03  0.00000000000E+00 0.  1.
         14    1    6    6    0    0  0.65980799877E+02  0.50620997645E+02 -0.44404999292E+03  0.45177023759E+03  0.00000000000E+00 0. -1.
         -5    1    3    3    0  503 -0.12506762699E+02 -0.10565858864E+03 -0.15588042111E+03  0.18878811444E+03  0.47000000000E+01 0.  1.
         11    1    4    4    0    0  0.87859961183E+01 -0.87148375618E+01 -0.14890022829E+02  0.19361169938E+02  0.00000000000E+00 0. -1.
        -12    1    4    4    0    0 -0.16049668023E+03 -0.56382946492E+02 -0.34248425406E+03  0.38240513242E+03  0.00000000000E+00 0.  1.
</event>
<event>
12    1  0.1597826E-001  0.1988224E+03  0.7818608E-02  0.1150985E+00
         21   -1    0    0  503  502  0.00000000000E+00  0.00000000000E+00  0.29241589902E+03  0.29241589902E+03  0.00000000000E+00 0.  1.
         21   -1    0    0  501  503 -0.00000000000E+00 -0.00000000000E+00 -0.21902488939E+03  0.21902488939E+03  0.00000000000E+00 0.  1.
          6    2    1    2  501    0  0.63473269185E+02  0.74832723385E+02 -0.12219560289E+03  0.23337115180E+03  0.17292060819E+03 0.  0.
         24    2    3    3    0    0  0.63647614208E+02  0.11046401891E+03 -0.60993204381E+02  0.16239620411E+03  0.79993986398E+02 0.  0.
         -6    2    1    2    0  502 -0.63473269185E+02 -0.74832723385E+02  0.19558661252E+03  0.27806963661E+03  0.17158032352E+03 0.  0.
        -24    2    5    5    0    0 -0.65208003020E+02 -0.58972107356E+01  0.45815797013E+02  0.11311964000E+03  0.80063131000E+02 0.  0.
          5    1    3    3  501    0 -0.17434502373E+00 -0.35631295524E+02 -0.61202398509E+02  0.70974947694E+02  0.47000000000E+01 0. -1.
        -13    1    4    4    0    0  0.24758442380E+02  0.16805561187E+02 -0.52755137248E+02  0.60650736698E+02  0.00000000000E+00 0.  1.
         14    1    4    4    0    0  0.38889171828E+02  0.93658457722E+02 -0.82380671329E+01  0.10174546741E+03  0.00000000000E+00 0. -1.
         -5    1    5    5    0  502  0.17347338350E+01 -0.68935512649E+02  0.14977081551E+03  0.16494999661E+03  0.47000000000E+01 0.  1.
         13    1    6    6    0    0 -0.15539263203E+02  0.30532513432E+02  0.37781695313E+02  0.51001564467E+02  0.00000000000E+00 0. -1.
        -14    1    6    6    0    0 -0.49668739817E+02 -0.36429724167E+02  0.80341017007E+01  0.62118075534E+02  0.00000000000E+00 0.  1.
</event>
<event>
12    1  0.1597826E-001  0.1911043E+03  0.7818608E-02  0.1160202E+00
         21   -1    0    0  503  502  0.00000000000E+00  0.00000000000E+00  0.98457093205E+02  0.98457093205E+02  0.00000000000E+00 0.  1.
         21   -1    0    0  501  503 -0.00000000000E+00 -0.00000000000E+00 -0.67068412512E+03  0.67068412512E+03  0.00000000000E+00 0.  1.
          6    2    1    2  501    0 -0.49676506423E+02  0.19484708143E+01 -0.54790226971E+03  0.57649509342E+03  0.17227345633E+03 0.  0.
         24    2    3    3    0    0 -0.27802263790E+01  0.62966126147E+02 -0.33618330537E+03  0.35117437709E+03  0.79572392314E+02 0.  0.
         -6    2    1    2    0  502  0.49676506423E+02 -0.19484708143E+01 -0.24324762198E+02  0.19264612490E+03  0.18452447955E+03 0.  0.
        -24    2    5    5    0    0  0.42533525922E+02  0.14661565511E+02 -0.87541285207E+02  0.12672697549E+03  0.79825981804E+02 0.  0.
          5    1    3    3  501    0 -0.46896280043E+02 -0.61017655332E+02 -0.21171896434E+03  0.22532071633E+03  0.47000000000E+01 0. -1.
        -13    1    4    4    0    0 -0.16901611038E+02  0.67427432648E+02 -0.32568650083E+03  0.33302225144E+03  0.00000000000E+00 0.  1.
         14    1    4    4    0    0  0.14121384659E+02 -0.44613065014E+01 -0.10496804539E+02  0.18152125658E+02  0.00000000000E+00 0. -1.
         -5    1    5    5    0  502  0.71429805010E+01 -0.16610036325E+02  0.63216523009E+02  0.65919149406E+02  0.47000000000E+01 0.  1.
         11    1    6    6    0    0 -0.18721692859E+02 -0.15946288721E+01 -0.49176339534E+02  0.52643679532E+02  0.00000000000E+00 0. -1.
        -12    1    6    6    0    0  0.61255218780E+02  0.16256194383E+02 -0.38364945673E+02  0.74083295959E+02  0.00000000000E+00 0.  1.
</event>
<event>
12    1  0.1597826E-001  0.1758618E+03  0.7818608E-02  0.1172421E+00
         21   -1    0    0  503  502  0.00000000000E+00  0.00000000000E+00  0.68554071795E+03  0.68554071795E+03  0.00000000000E+00 0. -1.
         21   -1    0    0  501  503 -0.00000000000E+00 -0.00000000000E+00 -0.72795551809E+02  0.72795551809E+02  0.00000000000E+00 0. -1.
          6    2    1    2  501    0  0.57420008327E+01  0.35483521552E+02  0.69020867018E+02  0.18687894644E+03  0.16990529616E+03 0.  0.
         24    2    3    3    0    0 -0.79233476954E+01 -0.45022932426E+02  0.43295690668E+02  0.10113569259E+03  0.79145862826E+02 0.  0.
         -6    2    1    2    0  502 -0.57420008327E+01 -0.35483521552E+02  0.54372429912E+03  0.57145732332E+03  0.17214908667E+03 0.  0.
        -24    2    5    5    0    0 -0.65721692731E+02 -0.32707197718E+02  0.31111562599E+03  0.33117799372E+03  0.86584231312E+02 0.  0.
          5    1    3    3  501    0  0.13665348528E+02  0.80506453978E+02  0.25725176349E+02  0.85743253850E+02  0.47000000000E+01 0. -1.
        -11    1    4    4    0    0  0.11637568926E+02 -0.48078622465E+02 -0.42335653899E+01  0.49647860222E+02  0.00000000000E+00 0.  1.
         12    1    4    4    0    0 -0.19560916622E+02  0.30556900391E+01  0.47529256058E+02  0.51487832370E+02  0.00000000000E+00 0. -1.
         -5    1    5    5    0  502  0.59979691899E+02 -0.27763238335E+01  0.23260867313E+03  0.24027932960E+03  0.47000000000E+01 0.  1.
         13    1    6    6    0    0  0.20884674446E+02 -0.11858323678E+02  0.55074852355E+02  0.60083515452E+02  0.00000000000E+00 0. -1.
        -14    1    6    6    0    0 -0.86606367177E+02 -0.20848874041E+02  0.25604077363E+03  0.27109447827E+03  0.00000000000E+00 0.  1.
</event>
<event>
12    1  0.1597826E-001  0.1969075E+03  0.7818608E-02  0.1152768E+00
         21   -1    0    0  503  502  0.00000000000E+00  0.00000000000E+00  0.13004713152E+03  0.13004713152E+03  0.00000000000E+00 0. -1.
         21   -1    0    0  501  503 -0.00000000000E+00 -0.00000000000E+00 -0.32017963047E+03  0.32017963047E+03  0.00000000000E+00 0.  1.
          6    2    1    2  501    0  0.47053616595E+02  0.81287102560E+02 -0.32027832818E+02  0.19770023726E+03  0.17099112801E+03 0.  0.
         24    2    3    3    0    0  0.23733556024E+02 -0.20486196842E+02  0.51316747002E+01  0.86774366987E+02  0.80749555653E+02 0.  0.
         -6    2    1    2    0  502 -0.47053616595E+02 -0.81287102560E+02 -0.15810466613E+03  0.25252652473E+03  0.17306335360E+03 0.  0.
        -24    2    5    5    0    0 -0.69017402041E+01 -0.85728540494E+02 -0.17182051258E+03  0.20960666927E+03  0.83759480577E+02 0.  0.
          5    1    3    3  501    0  0.23320060571E+02  0.10177329940E+03 -0.37159507518E+02  0.11092587027E+03  0.47000000000E+01 0. -1.
        -11    1    4    4    0    0  0.19693824256E+02 -0.11510055323E+02 -0.37022855337E+02  0.43485858674E+02  0.00000000000E+00 0.  1.
         12    1    4    4    0    0  0.40397317679E+01 -0.89761415198E+01  0.42154530037E+02  0.43288508313E+02  0.00000000000E+00 0. -1.
         -5    1    5    5    0  502 -0.40151876391E+02  0.44414379339E+01  0.13715846448E+02  0.42919855457E+02  0.47000000000E+01 0.  1.
         13    1    6    6    0    0 -0.26994723069E+02 -0.99156821417E+01 -0.11203570755E+02  0.30863503099E+02  0.00000000000E+00 0. -1.
        -14    1    6    6    0    0  0.20092982865E+02 -0.75812858352E+02 -0.16061694182E+03  0.17874316617E+03  0.00000000000E+00 0.  1.
</event>
<event>
12    1  0.1597826E-001  0.2445710E+03  0.7818608E-02  0.1117040E+00
         21   -1    0    0  501  502  0.00000000000E+00  0.00000000000E+00  0.27959714039E+03  0.27959714039E+03  0.00000000000E+00 0.  1.
         21   -1    0    0  502  503 -0.00000000000E+00 -0.00000000000E+00 -0.30056998299E+03  0.30056998299E+03  0.00000000000E+00 0. -1.
         -6    2    1    2    0  503 -0.13654950323E+03  0.10719527571E+03 -0.16747502570E+03  0.29641668598E+03  0.17227412320E+03 0.  0.
        -24    2    3    3    0    0 -0.58165541496E+02  0.11887670605E+03 -0.67905359149E+02  0.16907184011E+03  0.80369446044E+02 0.  0.
          6    2    1    2  501    0  0.13654950323E+03 -0.10719527571E+03  0.14650218310E+03  0.28375043741E+03  0.17004360355E+03 0.  0.
         24    2    5    5    0    0  0.11743826617E+03 -0.98574578867E+02  0.41835980335E+02  0.17690166672E+03  0.77686913176E+02 0.  0.
          5    1    5    5  501    0  0.19111237064E+02 -0.86206968477E+01  0.10466620276E+03  0.10684877069E+03  0.47000000000E+01 0. -1.
        -11    1    6    6    0    0  0.32099701927E+02 -0.24125347343E+02  0.49089116657E+02  0.63420537860E+02  0.00000000000E+00 0.  1.
         12    1    6    6    0    0  0.85338564241E+02 -0.74449231524E+02 -0.72531363220E+01  0.11348112886E+03  0.00000000000E+00 0. -1.
         -5    1    3    3    0  503 -0.78383961736E+02 -0.11681430333E+02 -0.99569666555E+02  0.12734484587E+03  0.47000000000E+01 0.  1.
         11    1    4    4    0    0 -0.76671469130E+02  0.77418932155E+02 -0.41809921541E+02  0.11670593290E+03  0.00000000000E+00 0. -1.
        -12    1    4    4    0    0  0.18505927633E+02  0.41457773892E+02 -0.26095437608E+02  0.52365907207E+02  0.00000000000E+00 0.  1.
</event>
<event>
12    1  0.1597826E-001  0.1783142E+03  0.7818608E-02  0.1170122E+00
         21   -1    0    0  503  502  0.00000000000E+00  0.00000000000E+00  0.15858963628E+03  0.15858963628E+03  0.00000000000E+00 0.  1.
         21   -1    0    0  501  503 -0.00000000000E+00 -0.00000000000E+00 -0.12018858532E+04  0.12018858532E+04  0.00000000000E+00 0.  1.
          6    2    1    2  501    0  0.40440909937E+02 -0.20229579308E+02 -0.11428468325E+04  0.11562542972E+04  0.16964791212E+03 0.  0.
         24    2    3    3    0    0 -0.29315034750E+02 -0.79085878187E+01 -0.87474501622E+03  0.87891268013E+03  0.79917074899E+02 0.  0.
         -6    2    1    2    0  502 -0.40440909937E+02  0.20229579308E+02  0.99550615580E+02  0.20422119232E+03  0.17248555665E+03 0.  0.
        -24    2    5    5    0    0  0.35075650231E+02  0.46657550863E+02  0.49846486118E+02  0.10991435786E+03  0.78671885664E+02 0.  0.
          5    1    3    3  501    0  0.69755944687E+02 -0.12320991490E+02 -0.26810181629E+03  0.27734161705E+03  0.47000000000E+01 0. -1.
        -13    1    4    4    0    0  0.60457179621E+01 -0.38185504121E+02 -0.36189391805E+03  0.36395314445E+03  0.00000000000E+00 0.  1.
         14    1    4    4    0    0 -0.35360752712E+02  0.30276916302E+02 -0.51285109817E+03  0.51495953568E+03  0.00000000000E+00 0. -1.
         -5    1    5    5    0  502 -0.75516560168E+02 -0.26427971555E+02  0.49704129462E+02  0.94306834459E+02  0.47000000000E+01 0.  1.
         13    1    6    6    0    0 -0.10148212807E+02  0.16689519168E+02 -0.15533718803E+02  0.24956415870E+02  0.00000000000E+00 0. -1.
        -14    1    6    6    0    0  0.45223863038E+02  0.29968031695E+02  0.65380204920E+02  0.84957941990E+02  0.00000000000E+00 0.  1.
</event>
<event>
12    1  0.1597826E-001  0.1975415E+03  0.7818608E-02  0.1152189E+00
         21   -1    0    0  503  502  0.00000000000E+00  0.00000000000E+00  0.49338632686E+03  0.49338632686E+03  0.00000000000E+00 0. -1.
         21   -1    0    0  501  503 -0.00000000000E+00 -0.00000000000E+00 -0.15580574392E+03  0.15580574392E+03  0.00000000000E+00 0. -1.
          6    2    1    2  501    0 -0.90195547889E+02  0.24159695569E+02 -0.59601068484E+02  0.20633698048E+03  0.17407967831E+03 0.  0.
         24    2    3    3    0    0 -0.82817269367E+02 -0.28000727241E+02  0.11555829775E+02  0.11767727785E+03  0.77920880950E+02 0.  0.
         -6    2    1    2    0  502  0.90195547889E+02 -0.24159695569E+02  0.39718165142E+03  0.44285509029E+03  0.17218722084E+03 0.  0.
        -24    2    5    5    0    0  0.10471293516E+03 -0.66732044070E+02  0.33054874648E+03  0.36232439173E+03  0.81231315061E+02 0.  0.
          5    1    3    3  501    0 -0.73782785219E+01  0.52160422810E+02 -0.71156898258E+02  0.88659702635E+02  0.47000000000E+01 0. -1.
        -13    1    4    4    0    0 -0.83129602915E+02 -0.32596989697E+02  0.33413673581E+02  0.95339226976E+02  0.00000000000E+00 0.  1.
         14    1    4    4    0    0  0.31233354821E+00  0.45962624563E+01 -0.21857843806E+02  0.22338050870E+02  0.00000000000E+00 0. -1.
         -5    1    5    5    0  502 -0.14517387266E+02  0.42572348501E+02  0.66632904941E+02  0.80530698561E+02  0.47000000000E+01 0.  1.
         13    1    6    6    0    0  0.68280702729E+02 -0.31329086862E+02  0.28279277593E+03  0.29260129898E+03  0.00000000000E+00 0. -1.
        -14    1    6    6    0    0  0.36432232426E+02 -0.35402957208E+02  0.47755970552E+02  0.69723092745E+02  0.00000000000E+00 0.  1.
</event>
<event>
12    1  0.1597826E-001  0.1776570E+03  0.7818608E-02  0.1170567E+00
         21   -1    0    0  501  502  0.00000000000E+00  0.00000000000E+00  0.26493590754E+02  0.26493590754E+02  0.00000000000E+00 0. -1.
         21   -1    0    0  502  503 -0.00000000000E+00 -0.00000000000E+00 -0.19104058154E+04  0.19104058154E+04  0.00000000000E+00 0. -1.
         -6    2    1    2    0  503 -0.38950300768E+02 -0.39218598176E+01 -0.15445802891E+04  0.15547637317E+04  0.17329017609E+03 0.  0.
        -24    2    3    3    0    0 -0.79738772398E+02 -0.42676074018E+02 -0.11146599461E+04  0.11211519470E+04  0.79595060803E+02 0.  0.
          6    2    1    2  501    0  0.38950300768E+02  0.39218598176E+01 -0.33933193558E+03  0.38213567445E+03  0.17131551089E+03 0.  0.
         24    2    5    5    0    0 -0.29276873362E+02  0.40780437168E+02 -0.15461815442E+03  0.18174911561E+03  0.81275998793E+02 0.  0.
          5    1    5    5  501    0  0.68227174130E+02 -0.36858577351E+02 -0.18471378116E+03  0.20038655884E+03  0.47000000000E+01 0. -1.
        -13    1    6    6    0    0  0.26053784921E+02 -0.10740061419E+01 -0.45529857052E+02  0.52468286432E+02  0.00000000000E+00 0.  1.
         14    1    6    6    0    0 -0.55330658283E+02  0.41854443310E+02 -0.10908829737E+03  0.12928082918E+03  0.00000000000E+00 0. -1.
         -5    1    3    3    0  503  0.40788471630E+02  0.38754214200E+02 -0.42992034299E+03  0.43361178472E+03  0.47000000000E+01 0.  1.
         13    1    4    4    0    0 -0.70200655273E+02  0.22024597477E+01 -0.81229864557E+03  0.81532942570E+03  0.00000000000E+00 0. -1.
        -14    1    4    4    0    0 -0.95381171255E+01 -0.44878533766E+02 -0.30236130052E+03  0.30582252128E+03  0.00000000000E+00 0.  1.
</event>
<event>
12    1  0.1597826E-001  0.1738600E+03  0.7818608E-02  0.1174375E+00
         21   -1    0    0  501  502  0.00000000000E+00  0.00000000000E+00  0.97595768759E+02  0.97595768759E+02  0.00000000000E+00 0. -1.
         21   -1    0    0  502  503 -0.00000000000E+00 -0.00000000000E+00 -0.30628916942E+03  0.30628916942E+03  0.00000000000E+00 0. -1.
         -6    2    1    2    0  503  0.58494488717E+01  0.14617501683E+02 -0.10255667593E+03  0.20018830650E+03  0.17120046399E+03 0.  0.
        -24    2    3    3    0    0  0.70495194481E+02 -0.18614647209E+01 -0.74245175347E+02  0.12756420702E+03  0.76073933480E+02 0.  0.
          6    2    1    2  501    0 -0.58494488717E+01 -0.14617501683E+02 -0.10613672473E+03  0.20369663168E+03  0.17314567859E+03 0.  0.
         24    2    5    5    0    0 -0.16544533693E+02 -0.17029124542E+02  0.13168007786E+02  0.83797048847E+02  0.79276959381E+02 0.  0.
          5    1    5    5  501    0  0.10695084822E+02  0.24116228588E+01 -0.11930473251E+03  0.11989958284E+03  0.47000000000E+01 0. -1.
        -11    1    6    6    0    0 -0.13471213021E+02  0.28155919513E+02 -0.10196530287E+02  0.32835934794E+02  0.00000000000E+00 0.  1.
         12    1    6    6    0    0 -0.30733206727E+01 -0.45185044055E+02  0.23364538073E+02  0.50961114053E+02  0.00000000000E+00 0. -1.
         -5    1    3    3    0  503 -0.64645745609E+02  0.16478966404E+02 -0.28311500588E+02  0.72624099475E+02  0.47000000000E+01 0.  1.
         13    1    4    4    0    0  0.15121703069E+02  0.28601818108E+02 -0.50654388545E+02  0.60104883177E+02  0.00000000000E+00 0. -1.
        -14    1    4    4    0    0  0.55373491412E+02 -0.30463282829E+02 -0.23590786802E+02  0.67459323846E+02  0.00000000000E+00 0.  1.
</event>
<event>
12    1  0.1597826E-001  0.2414229E+03  0.7818608E-02  0.1119027E+00
         21   -1    0    0  501  502  0.00000000000E+00  0.00000000000E+00  0.14730887996E+04  0.14730887996E+04  0.00000000000E+00 0.  1.
         21   -1    0    0  502  503 -0.00000000000E+00 -0.00000000000E+00 -0.53905705987E+02  0.53905705987E+02  0.00000000000E+00 0.  1.
         -6    2    1    2    0  503  0.33989850889E+02 -0.16503136577E+03  0.31225004478E+03  0.39404006042E+03  0.17139666597E+03 0.  0.
        -24    2    3    3    0    0  0.11090077955E+02 -0.63221000174E+02  0.25601863299E+03  0.27540696296E+03  0.78635679671E+02 0.  0.
          6    2    1    2  501    0 -0.33989850889E+02  0.16503136577E+03  0.11069330489E+04  0.11329544452E+04  0.17289979342E+03 0.  0.
         24    2    5    5    0    0  0.32834509610E+02  0.12670454208E+03  0.55384420551E+03  0.57450677601E+03  0.78628784180E+02 0.  0.
          5    1    5    5  501    0 -0.66824360500E+02  0.38326823684E+02  0.55308884337E+03  0.55844766919E+03  0.47000000000E+01 0. -1.
        -11    1    6    6    0    0 -0.14045716083E+02  0.94327979943E+02  0.32759000580E+03  0.34118948085E+03  0.00000000000E+00 0.  1.
         12    1    6    6    0    0  0.46880225694E+02  0.32376562138E+02  0.22625419971E+03  0.23331729516E+03  0.00000000000E+00 0. -1.
         -5    1    3    3    0  503  0.22899772934E+02 -0.10181036559E+03  0.56231411792E+02  0.11863309747E+03  0.47000000000E+01 0.  1.
         11    1    4    4    0    0  0.36109556123E+02 -0.12032371802E+02  0.58152454822E+02  0.69500978529E+02  0.00000000000E+00 0. -1.
        -12    1    4    4    0    0 -0.25019478168E+02 -0.51188628372E+02  0.19786617816E+03  0.20590598443E+03  0.00000000000E+00 0.  1.
</event>
<event>
12    1  0.1597826E-001  0.2861331E+03  0.7818608E-02  0.1092456E+00
         21   -1    0    0  501  502  0.00000000000E+00  0.00000000000E+00  0.10595622710E+03  0.10595622710E+03  0.00000000000E+00 0.  1.
         21   -1    0    0  502  503 -0.00000000000E+00 -0.00000000000E+00 -0.77320018421E+03  0.77320018421E+03  0.00000000000E+00 0.  1.
         -6    2    1    2    0  503  0.22782744388E+03 -0.22495625970E+02 -0.35532950942E+03  0.45588016357E+03  0.17075205972E+03 0.  0.
        -24    2    3    3    0    0  0.13145430092E+03  0.28100434812E+02 -0.12080669484E+03  0.19728630322E+03  0.79106006438E+02 0.  0.
          6    2    1    2  501    0 -0.22782744388E+03  0.22495625970E+02 -0.31191444769E+03  0.42327624773E+03  0.17164137568E+03 0.  0.
         24    2    5    5    0    0 -0.21455224495E+03 -0.24913814318E+02 -0.21516685370E+03  0.31462049373E+03  0.77691159006E+02 0.  0.
          5    1    5    5  501    0 -0.13275198936E+02  0.47409440288E+02 -0.96747593992E+02  0.10865575401E+03  0.47000000000E+01 0. -1.
        -13    1    6    6    0    0 -0.19500565547E+03 -0.45873856275E+02 -0.19509159068E+03  0.27962894183E+03  0.00000000000E+00 0.  1.
         14    1    6    6    0    0 -0.19546589481E+02  0.20960041957E+02 -0.20075263017E+02  0.34991551900E+02  0.00000000000E+00 0. -1.
         -5    1    3    3    0  503  0.96373142967E+02 -0.50596060782E+02 -0.23452281458E+03  0.25859386035E+03  0.47000000000E+01 0.  1.
         11    1    4    4    0    0  0.25429742953E+02 -0.22109299052E+02 -0.49892269619E+02  0.60205743073E+02  0.00000000000E+00 0. -1.
        -12    1    4    4    0    0  0.10602455796E+03  0.50209733865E+02 -0.70914425218E+02  0.13708056015E+03  0.00000000000E+00 0.  1.
</event>
<event>
12    1  0.1597826E-001  0.2390180E+03  0.7818608E-02  0.1120455E+00
         21   -1    0    0  501  502  0.00000000000E+00  0.00000000000E+00  0.56941656477E+03  0.56941656477E+03  0.00000000000E+00 0. -1.
         21   -1    0    0  502  503 -0.00000000000E+00 -0.00000000000E+00 -0.10141362584E+03  0.10141362584E+03  0.00000000000E+00 0.  1.
         -6    2    1    2    0  503  0.13026785673E+03 -0.10362025649E+03  0.26891412136E+03  0.35975787687E+03  0.17147610112E+03 0.  0.
        -24    2    3    3    0    0  0.14022069963E+03 -0.91350708173E+02  0.28284274486E+03  0.33817785253E+03  0.79733588509E+02 0.  0.
          6    2    1    2  501    0 -0.13026785673E+03  0.10362025649E+03  0.19908881757E+03  0.31107231373E+03  0.17153062420E+03 0.  0.
         24    2    5    5    0    0 -0.14778859657E+03  0.48998190757E+02  0.17961742585E+03  0.25031236405E+03  0.78431931986E+02 0.  0.
          5    1    5    5  501    0  0.17520739843E+02  0.54622065735E+02  0.19471391716E+02  0.60759949680E+02  0.47000000000E+01 0. -1.
        -13    1    6    6    0    0 -0.11582963216E+02  0.17257820110E+02 -0.22308760708E+01  0.20903927857E+02  0.00000000000E+00 0.  1.
         14    1    6    6    0    0 -0.13620563335E+03  0.31740370646E+02  0.18184830192E+03  0.22940843620E+03  0.00000000000E+00 0. -1.
         -5    1    3    3    0  503 -0.99528428995E+01 -0.12269548318E+02 -0.13928623503E+02  0.21580024337E+02  0.47000000000E+01 0.  1.
         13    1    4    4    0    0  0.26588823895E+02 -0.28385675033E+02  0.13907020016E+03  0.14440648419E+03  0.00000000000E+00 0. -1.
        -14    1    4    4    0    0  0.11363187573E+03 -0.62965033140E+02  0.14377254470E+03  0.19377136834E+03  0.00000000000E+00 0.  1.
</event>
<event>
12    1  0.1597826E-001  0.1840375E+03  0.7818608E-02  0.1164999E+00
         21   -1    0    0  501  502  0.00000000000E+00  0.00000000000E+00  0.23332899493E+04  0.23332899493E+04  0.00000000000E+00 0.  1.
         21   -1    0    0  502  503 -0.00000000000E+00 -0.00000000000E+00 -0.14484897131E+02  0.14484897131E+02  0.00000000000E+00 0.  1.
         -6    2    1    2    0  503 -0.62484869813E+02  0.16702944927E+02  0.10003241730E+04  0.10171127060E+04  0.17229758691E+03 0.  0.
        -24    2    3    3    0    0 -0.80234741015E+01 -0.30719550380E+02  0.78646483426E+03  0.79134104388E+03  0.81765795383E+02 0.  0.
          6    2    1    2  501    0  0.62484869813E+02 -0.16702944927E+02  0.13184808793E+04  0.13306621404E+04  0.16759044037E+03 0.  0.
         24    2    5    5    0    0  0.85056434331E+02 -0.43440043537E+02  0.12124996222E+04  0.12189550914E+04  0.81083577293E+02 0.  0.
          5    1    5    5  501    0 -0.22571564518E+02  0.26737098611E+02  0.10598125705E+03  0.11170704908E+03  0.47000000000E+01 0. -1.
        -11    1    6    6    0    0  0.22573306057E+02 -0.53352695234E+02  0.73557295243E+03  0.73785068447E+03  0.00000000000E+00 0.  1.
         12    1    6    6    0    0  0.62483128274E+02  0.99126516969E+01  0.47692666978E+03  0.48110440689E+03  0.00000000000E+00 0. -1.
         -5    1    3    3    0  503 -0.54461395711E+02  0.47422495306E+02  0.21385933870E+03  0.22577166216E+03  0.47000000000E+01 0.  1.
         13    1    4    4    0    0 -0.43166949543E+02 -0.79706705571E+01  0.31912769491E+03  0.32213258572E+03  0.00000000000E+00 0. -1.
        -14    1    4    4    0    0  0.35143475442E+02 -0.22748879822E+02  0.46733713934E+03  0.46920845816E+03  0.00000000000E+00 0.  1.
</event>
<event>
12    1  0.1597826E-001  0.2212778E+03  0.7818608E-02  0.1133122E+00
         21   -1    0    0  501  502  0.00000000000E+00  0.00000000000E+00  0.35814221578E+02  0.35814221578E+02  0.00000000000E+00 0.  1.
         21   -1    0    0  502  503 -0.00000000000E+00 -0.00000000000E+00 -0.13619674842E+04  0.13619674842E+04  0.00000000000E+00 0.  1.
         -6    2    1    2    0  503 -0.98265940168E+02  0.96984699980E+02 -0.64508745454E+03  0.68198364353E+03  0.17292090394E+03 0.  0.
        -24    2    3    3    0    0 -0.18979849620E+02  0.11650538824E+02 -0.12131156565E+03  0.14539117714E+03  0.76981352824E+02 0.  0.
          6    2    1    2  501    0  0.98265940168E+02 -0.96984699980E+02 -0.68106580807E+03  0.71579806223E+03  0.17162168843E+03 0.  0.
         24    2    5    5    0    0  0.11444781364E+03 -0.44232396574E+02 -0.33984187213E+03  0.37010958542E+03  0.80210973120E+02 0.  0.
          5    1    5    5  501    0 -0.16181873473E+02 -0.52752303406E+02 -0.34122393594E+03  0.34568847681E+03  0.47000000000E+01 0. -1.
        -11    1    6    6    0    0  0.74352476781E+02 -0.22838261509E+02 -0.29918900785E+03  0.30913417703E+03  0.00000000000E+00 0.  1.
         12    1    6    6    0    0  0.40095336860E+02 -0.21394135065E+02 -0.40652864284E+02  0.60975408384E+02  0.00000000000E+00 0. -1.
         -5    1    3    3    0  503 -0.79286090549E+02  0.85334161157E+02 -0.52377588889E+03  0.53659246640E+03  0.47000000000E+01 0.  1.
         13    1    4    4    0    0  0.23752979263E+02  0.22767378855E+02 -0.72230265855E+02  0.79371083331E+02  0.00000000000E+00 0. -1.
        -14    1    4    4    0    0 -0.42732828883E+02 -0.11116840031E+02 -0.49081299797E+02  0.66020093807E+02  0.00000000000E+00 0.  1.
</event>
<event>
12    1  0.1597826E-001  0.2418166E+03  0.7818608E-02  0.1118763E+00
         21   -1    0    0  503  502  0.00000000000E+00  0.00000000000E+00  0.38283193185E+02  0.38283193185E+02  0.00000000000E+00 0. -1.
         21   -1    0    0  501  503 -0.00000000000E+00 -0.00000000000E+00 -0.15340787781E+04  0.15340787781E+04  0.00000000000E+00 0. -1.
          6    2    1    2  501    0 -0.48105617929E+01 -0.16885444234E+03 -0.82273726474E+03  0.85753827797E+03  0.17303273447E+03 0.  0.
         24    2    3    3    0    0 -0.65731614173E+02 -0.74541259714E+02 -0.37771032225E+03  0.39854217714E+03  0.79333063245E+02 0.  0.
         -6    2    1    2    0  502  0.48105617929E+01  0.16885444234E+03 -0.67305832022E+03  0.71482369335E+03  0.17155304125E+03 0.  0.
        -24    2    5    5    0    0  0.47504565030E+02  0.16898648616E+03 -0.48005592576E+03  0.51709961891E+03  0.78263706886E+02 0.  0.
          5    1    3    3  501    0  0.60921052380E+02 -0.94313182624E+02 -0.44502694249E+03  0.45899610083E+03  0.47000000000E+01 0. -1.
        -11    1    4    4    0    0 -0.61689683903E+02 -0.22397386556E+02 -0.28135307124E+03  0.28890623171E+03  0.00000000000E+00 0.  1.
         12    1    4    4    0    0 -0.40419302700E+01 -0.52143873158E+02 -0.96357251012E+02  0.10963594543E+03  0.00000000000E+00 0. -1.
         -5    1    5    5    0  502 -0.42694003237E+02 -0.13204382330E+00 -0.19300239445E+03  0.19772407444E+03  0.47000000000E+01 0.  1.
         13    1    6    6    0    0 -0.11172783926E+02  0.80205685184E+02 -0.26593216918E+03  0.27798867179E+03  0.00000000000E+00 0. -1.
        -14    1    6    6    0    0  0.58677348955E+02  0.88780800977E+02 -0.21412375658E+03  0.23911094713E+03  0.00000000000E+00 0.  1.
</event>
<event>
12    1  0.1597826E-001  0.3133383E+03  0.7818608E-02  0.1078948E+00
         21   -1    0    0  503  502  0.00000000000E+00  0.00000000000E+00  0.29346080681E+03  0.29346080681E+03  0.00000000000E+00 0.  1.
         21   -1    0    0  501  503 -0.00000000000E+00 -0.00000000000E+00 -0.33780417667E+03  0.33780417667E+03  0.00000000000E+00 0. -1.
          6    2    1    2  501    0  0.15691032221E+02 -0.25963275808E+03 -0.60487938330E+02  0.31912331636E+03  0.17471554824E+03 0.  0.
         24    2    3    3    0    0 -0.24386979465E+02 -0.23493144720E+03 -0.88158107494E+02  0.26431337162E+03  0.79386376996E+02 0.  0.
         -6    2    1    2    0  502 -0.15691032221E+02  0.25963275808E+03  0.16144568470E+02  0.31214166711E+03  0.17180336346E+03 0.  0.
        -24    2    5    5    0    0 -0.72077560701E+02  0.13833318917E+03  0.15318723662E+02  0.17829175852E+03  0.84982597501E+02 0.  0.
          5    1    3    3  501    0  0.40078011686E+02 -0.24701310886E+02  0.27670169164E+02  0.54809944734E+02  0.47000000000E+01 0. -1.
        -13    1    4    4    0    0 -0.49433308203E+02 -0.10062234442E+03 -0.47599487649E+02  0.12179581019E+03  0.00000000000E+00 0.  1.
         14    1    4    4    0    0  0.25046328738E+02 -0.13430910278E+03 -0.40558619845E+02  0.14251756143E+03  0.00000000000E+00 0. -1.
         -5    1    5    5    0  502  0.56386528479E+02  0.12129956891E+03  0.82584480888E+00  0.13384990859E+03  0.47000000000E+01 0.  1.
         13    1    6    6    0    0 -0.70363069645E+02  0.59195898566E+02  0.32068217046E+02  0.97383194245E+02  0.00000000000E+00 0. -1.
        -14    1    6    6    0    0 -0.17144910555E+01  0.79137290608E+02 -0.16749493385E+02  0.80908564275E+02  0.00000000000E+00 0.  1.
</event>
<event>
12    1  0.1597826E-001  0.1900709E+03  0.7818608E-02  0.1158498E+00
         21   -1    0    0  503  502  0.00000000000E+00  0.00000000000E+00  0.57107477387E+03  0.57107477387E+03  0.00000000000E+00 0. -1.
         21   -1    0    0  501  503 -0.00000000000E+00 -0.00000000000E+00 -0.63626600962E+02  0.63626600962E+02  0.00000000000E+00 0. -1.
          6    2    1    2  501    0 -0.38741636961E+02  0.68452694164E+02  0.22491198162E+03  0.29418168410E+03  0.17254210504E+03 0.  0.
         24    2    3    3    0    0 -0.79611132227E+02  0.49252936302E+01  0.13074640508E+03  0.17337070750E+03  0.81244008307E+02 0.  0.
         -6    2    1    2    0  502  0.38741636961E+02 -0.68452694164E+02  0.28253619128E+03  0.34051969073E+03  0.17303258253E+03 0.  0.
        -24    2    5    5    0    0  0.71407531809E+02 -0.58744273698E+02  0.11008689697E+03  0.16467270263E+03  0.80299743561E+02 0.  0.
          5    1    3    3  501    0  0.40869495266E+02  0.63527400534E+02  0.94165576547E+02  0.12081097660E+03  0.47000000000E+01 0. -1.
        -11    1    4    4    0    0 -0.67917481443E+00 -0.28232433952E+02  0.32435539320E+02  0.43006927538E+02  0.00000000000E+00 0.  1.
         12    1    4    4    0    0 -0.78931957412E+02  0.33157727582E+02  0.98310865757E+02  0.13036377996E+03  0.00000000000E+00 0. -1.
         -5    1    5    5    0  502 -0.32665894849E+02 -0.97084204662E+01  0.17244929431E+03  0.17584698810E+03  0.47000000000E+01 0.  1.
         13    1    6    6    0    0  0.99910777053E+01 -0.59593001046E+02  0.46328579096E+02  0.76141215176E+02  0.00000000000E+00 0. -1.
        -14    1    6    6    0    0  0.61416454104E+02  0.84872734880E+00  0.63758317875E+02  0.88531487456E+02  0.00000000000E+00 0.  1.
</event>
<event>
12    1  0.1597826E-001  0.1858768E+03  0.7818608E-02  0.1162378E+00
         21   -1    0    0  501  502  0.00000000000E+00  0.00000000000E+00  0.37669624901E+02  0.37669624901E+02  0.00000000000E+00 0. -1.
         21   -1    0    0  502  503 -0.00000000000E+00 -0.00000000000E+00 -0.12496873669E+04  0.12496873669E+04  0.00000000000E+00 0. -1.
         -6    2    1    2    0  503  0.49001537269E+02  0.50250409229E+02 -0.93881124788E+03  0.95691492078E+03  0.17144489545E+03 0.  0.
        -24    2    3    3    0    0  0.85160321260E+02  0.41824696583E+02 -0.86718932199E+03  0.87610501692E+03  0.80877035900E+02 0.  0.
          6    2    1    2  501    0 -0.49001537269E+02 -0.50250409229E+02 -0.27320649411E+03  0.33044207101E+03  0.17211600620E+03 0.  0.
         24    2    5    5    0    0 -0.40077020486E+02 -0.11571359738E+01 -0.26488326619E+03  0.27963692756E+03  0.80163333325E+02 0.  0.
          5    1    5    5  501    0 -0.89245167822E+01 -0.49093273256E+02 -0.83232279156E+01  0.50805143457E+02  0.47000000000E+01 0. -1.
        -13    1    6    6    0    0  0.55989699163E+01 -0.55081096063E+01 -0.20008408945E+03  0.20023818464E+03  0.00000000000E+00 0.  1.
         14    1    6    6    0    0 -0.45675990403E+02  0.43509736325E+01 -0.64799176744E+02  0.79398742921E+02  0.00000000000E+00 0. -1.
         -5    1    3    3    0  503 -0.36158783992E+02  0.84257126465E+01 -0.71621925894E+02  0.80809903861E+02  0.47000000000E+01 0.  1.
         13    1    4    4    0    0  0.64063597295E+02  0.45344532839E+02 -0.35962368485E+03  0.36808893744E+03  0.00000000000E+00 0. -1.
        -14    1    4    4    0    0  0.21096723966E+02 -0.35198362559E+01 -0.50756563714E+03  0.50801607948E+03  0.00000000000E+00 0.  1.
</event>
<event>
12    1  0.1597826E-001  0.3679036E+03  0.7818608E-02  0.1055519E+00
         21   -1    0    0  503  502  0.00000000000E+00  0.00000000000E+00  0.16515121427E+04  0.16515121427E+04  0.00000000000E+00 0.  1.
         21   -1    0    0  501  503 -0.00000000000E+00 -0.00000000000E+00 -0.88683342883E+02  0.88683342883E+02  0.00000000000E+00 0. -1.
          6    2    1    2  501    0 -0.29874855030E+03  0.12792827127E+03  0.54111598022E+03  0.65433901222E+03  0.17244332391E+03 0.  0.
         24    2    3    3    0    0 -0.22503388412E+03  0.83670964281E+02  0.49711892802E+03  0.55764158808E+03  0.78713613137E+02 0.  0.
         -6    2    1    2    0  502  0.29874855030E+03 -0.12792827127E+03  0.10217128196E+04  0.10858564734E+04  0.17196178683E+03 0.  0.
        -24    2    5    5    0    0  0.10646383100E+03 -0.84476494895E+02  0.32484435208E+03  0.36162638481E+03  0.82334461886E+02 0.  0.
          5    1    3    3  501    0 -0.73714666184E+02  0.44257306993E+02  0.43997052197E+02  0.96697424138E+02  0.47000000000E+01 0. -1.
        -13    1    4    4    0    0  0.37734433321E+01 -0.51493982162E+01  0.68318775725E+01  0.93503865019E+01  0.00000000000E+00 0.  1.
         14    1    4    4    0    0 -0.22880732745E+03  0.88820362497E+02  0.49028705045E+03  0.54829120158E+03  0.00000000000E+00 0. -1.
         -5    1    5    5    0  502  0.19228471930E+03 -0.43451776379E+02  0.69686846756E+03  0.72423008860E+03  0.47000000000E+01 0.  1.
         13    1    6    6    0    0  0.10531986344E+03 -0.86066594919E+02  0.23324055395E+03  0.27000164519E+03  0.00000000000E+00 0. -1.
        -14    1    6    6    0    0  0.11439675555E+01  0.15901000239E+01  0.91603798124E+02  0.91624739621E+02  0.00000000000E+00 0.  1.
</event>
<event>
12    1  0.1597826E-001  0.1724692E+03  0.7818608E-02  0.1175888E+00
         21   -1    0    0  501  502  0.00000000000E+00  0.00000000000E+00  0.20009909406E+03  0.20009909406E+03  0.00000000000E+00 0.  1.
         21   -1    0    0  502  503 -0.00000000000E+00 -0.00000000000E+00 -0.78531594324E+03  0.78531594324E+03  0.00000000000E+00 0.  1.
         -6    2    1    2    0  503 -0.13744249981E+02 -0.68241855057E+01 -0.73655681861E+03  0.75596044534E+03  0.16948384573E+03 0.  0.
        -24    2    3    3    0    0  0.39534156650E+02  0.39412141868E+02 -0.47264940908E+03  0.48274698047E+03  0.80814087759E+02 0.  0.
          6    2    1    2  501    0  0.13744249981E+02  0.68241855057E+01  0.15133996943E+03  0.22945459196E+03  0.17178518420E+03 0.  0.
         24    2    5    5    0    0 -0.14439475058E+02  0.42015483658E+02  0.15945360439E+03  0.18340384935E+03  0.78979242188E+02 0.  0.
          5    1    5    5  501    0  0.28183725039E+02 -0.35191298153E+02 -0.81136349623E+01  0.46050742611E+02  0.47000000000E+01 0. -1.
        -13    1    6    6    0    0 -0.25150855807E+02 -0.80190760724E+01  0.15467107620E+02  0.30595792962E+02  0.00000000000E+00 0.  1.
         14    1    6    6    0    0  0.10711380749E+02  0.50034559731E+02  0.14398649677E+03  0.15280805639E+03  0.00000000000E+00 0. -1.
         -5    1    3    3    0  503 -0.53278406631E+02 -0.46236327374E+02 -0.26390740952E+03  0.27321346486E+03  0.47000000000E+01 0.  1.
         13    1    4    4    0    0 -0.21534801129E+02 -0.13419608482E+01 -0.63582607056E+02  0.67143848851E+02  0.00000000000E+00 0. -1.
        -14    1    4    4    0    0  0.61068957779E+02  0.40754102717E+02 -0.40906680203E+03  0.41560313162E+03  0.00000000000E+00 0.  1.
</event>
<event>
12    1  0.1597826E-001  0.1775852E+03  0.7818608E-02  0.1173493E+00
         21   -1    0    0  501  502  0.00000000000E+00  0.00000000000E+00  0.12826572930E+03  0.12826572930E+03  0.00000000000E+00 0.  1.
         21   -1    0    0  502  503 -0.00000000000E+00 -0.00000000000E+00 -0.22879453845E+03  0.22879453845E+03  0.00000000000E+00 0.  1.
         -6    2    1    2    0  503  0.10132039033E+02 -0.45138133176E+02 -0.57391892153E+02  0.17431101545E+03  0.15795692938E+03 0.  0.
        -24    2    3    3    0    0 -0.48455563885E+01  0.16141242467E+02 -0.75254763214E+02  0.10857926964E+03  0.76434019161E+02 0.  0.
          6    2    1    2  501    0 -0.10132039033E+02  0.45138133176E+02 -0.43136916998E+02  0.18274925230E+03  0.17145374399E+03 0.  0.
         24    2    5    5    0    0 -0.26762212216E+02  0.76789120819E+02  0.14704574119E+02  0.11458712372E+03  0.79380094123E+02 0.  0.
          5    1    5    5  501    0  0.16630173184E+02 -0.31650987642E+02 -0.57841491117E+02  0.68162128587E+02  0.47000000000E+01 0. -1.
        -11    1    6    6    0    0 -0.39221665979E+02  0.55012323468E+02 -0.21177370410E+02  0.70803784030E+02  0.00000000000E+00 0.  1.
         12    1    6    6    0    0  0.12459453763E+02  0.21776797351E+02  0.35881944529E+02  0.43783339687E+02  0.00000000000E+00 0. -1.
         -5    1    3    3    0  503  0.14977595421E+02 -0.61279375644E+02  0.17862871060E+02  0.65731745804E+02  0.47000000000E+01 0.  1.
         11    1    4    4    0    0  0.28956061473E+01 -0.80292912282E+01  0.13663178267E+02  0.16110136342E+02  0.00000000000E+00 0. -1.
        -12    1    4    4    0    0 -0.77411625358E+01  0.24170533695E+02 -0.88917941481E+02  0.92469133303E+02  0.00000000000E+00 0.  1.
</event>
<event>
12    1  0.1597826E-001  0.2159583E+03  0.7818608E-02  0.1137331E+00
         21   -1    0    0  501  502  0.00000000000E+00  0.00000000000E+00  0.17754235217E+04  0.17754235217E+04  0.00000000000E+00 0. -1.
         21   -1    0    0  502  503 -0.00000000000E+00 -0.00000000000E+00 -0.42026476043E+02  0.42026476043E+02  0.00000000000E+00 0. -1.
         -6    2    1    2    0  503 -0.12467398044E+03  0.30508473635E+02  0.30324633223E+03  0.37108591889E+03  0.17109077363E+03 0.  0.
        -24    2    3    3    0    0 -0.11735256144E+01  0.19217898884E+02  0.65773840182E+02  0.10313981628E+03  0.77077356276E+02 0.  0.
          6    2    1    2  501    0  0.12467398044E+03 -0.30508473635E+02  0.14301507134E+04  0.14463640788E+04  0.17367676047E+03 0.  0.
         24    2    5    5    0    0  0.81411107413E+02 -0.81169074610E+02  0.76356964685E+03  0.77644573981E+03  0.81321548146E+02 0.  0.
          5    1    5    5  501    0  0.43262873032E+02  0.50660600975E+02  0.66658106653E+03  0.66991833900E+03  0.47000000000E+01 0. -1.
        -13    1    6    6    0    0  0.26603620507E+02  0.14439691727E+02  0.18789534091E+03  0.19031793519E+03  0.00000000000E+00 0.  1.
         14    1    6    6    0    0  0.54807486906E+02 -0.95608766337E+02  0.57567430594E+03  0.58612780462E+03  0.00000000000E+00 0. -1.
         -5    1    3    3    0  503 -0.12350045483E+03  0.11290574751E+02  0.23747249205E+03  0.26794610261E+03  0.47000000000E+01 0.  1.
         11    1    4    4    0    0 -0.17812720591E+02  0.44247156376E+02  0.50357615542E+02  0.69361324275E+02  0.00000000000E+00 0. -1.
        -12    1    4    4    0    0  0.16639194976E+02 -0.25029257492E+02  0.15416224640E+02  0.33778492006E+02  0.00000000000E+00 0.  1.
</event>
<event>
12    1  0.1597826E-001  0.1821396E+03  0.7818608E-02  0.1165794E+00
         21   -1    0    0  503  502  0.00000000000E+00  0.00000000000E+00  0.64154637512E+02  0.64154637512E+02  0.00000000000E+00 0. -1.
         21   -1    0    0  501  503 -0.00000000000E+00 -0.00000000000E+00 -0.53751090215E+03  0.53751090215E+03  0.00000000000E+00 0. -1.
          6    2    1    2  501    0 -0.59914564515E+02 -0.10076370990E+02 -0.29618611352E+03  0.34770827528E+03  0.17170772425E+03 0.  0.
         24    2    3    3    0    0  0.13928186127E+02 -0.34645905723E+02 -0.22558293091E+03  0.24252598945E+03  0.80850873136E+02 0.  0.
         -6    2    1    2    0  502  0.59914564515E+02  0.10076370990E+02 -0.17717015112E+03  0.25395726438E+03  0.17150434802E+03 0.  0.
        -24    2    5    5    0    0  0.89415486718E+02  0.62176897858E+02 -0.11278267268E+03  0.16590837631E+03  0.54263820178E+02 0.  0.
          5    1    3    3  501    0 -0.73842750642E+02  0.24569534733E+02 -0.70603182606E+02  0.10518228584E+03  0.47000000000E+01 0. -1.
        -11    1    4    4    0    0  0.15001016668E+02  0.56186269750E+01 -0.29616196100E+01  0.16290201376E+02  0.00000000000E+00 0.  1.
         12    1    4    4    0    0 -0.10728305405E+01 -0.40264532698E+02 -0.22262131130E+03  0.22623578807E+03  0.00000000000E+00 0. -1.
         -5    1    5    5    0  502 -0.29500922204E+02 -0.52100526867E+02 -0.64387478445E+02  0.88048888075E+02  0.47000000000E+01 0.  1.
         13    1    6    6    0    0  0.31911088778E+02  0.43526916651E+02 -0.25392562582E+02  0.59646393811E+02  0.00000000000E+00 0. -1.
        -14    1    6    6    0    0  0.57504397940E+02  0.18649981206E+02 -0.87390110095E+02  0.10626198250E+03  0.00000000000E+00 0.  1.
</event>
<event>
12    1  0.1597826E-001  0.1789782E+03  0.7818608E-02  0.1169967E+00
         21   -1    0    0  501  502  0.00000000000E+00  0.00000000000E+00  0.11391836845E+03  0.11391836845E+03  0.00000000000E+00 0.  1.
         21   -1    0    0  502  503 -0.00000000000E+00 -0.00000000000E+00 -0.34025179912E+03  0.34025179912E+03  0.00000000000E+00 0.  1.
         -6    2    1    2    0  503  0.26529075569E+02 -0.42673667463E+02 -0.11600717795E+02  0.17462889637E+03  0.16684076555E+03 0.  0.
        -24    2    3    3    0    0  0.66639031169E+02 -0.48253084707E+02 -0.42371417365E+02  0.12355185273E+03  0.81857208873E+02 0.  0.
          6    2    1    2  501    0 -0.26529075569E+02  0.42673667463E+02 -0.21473271287E+03  0.27954127119E+03  0.17177994813E+03 0.  0.
         24    2    5    5    0    0  0.11081143953E+02  0.25924794512E+02 -0.22179181435E+03  0.23750587812E+03  0.80140791756E+02 0.  0.
          5    1    5    5  501    0 -0.37610219522E+02  0.16748872951E+02  0.70591014815E+01  0.42035393080E+02  0.47000000000E+01 0. -1.
        -13    1    6    6    0    0 -0.34818106166E+02  0.13539183863E+02 -0.10191657507E+03  0.10854767750E+03  0.00000000000E+00 0.  1.
         14    1    6    6    0    0  0.45899250119E+02  0.12385610649E+02 -0.11987523929E+03  0.12895820062E+03  0.00000000000E+00 0. -1.
         -5    1    3    3    0  503 -0.40109955600E+02  0.55794172435E+01  0.30770699570E+02  0.51077043640E+02  0.47000000000E+01 0.  1.
         11    1    4    4    0    0  0.88461153903E+01  0.21722982889E+02 -0.18041401052E+02  0.29591111757E+02  0.00000000000E+00 0. -1.
        -12    1    4    4    0    0  0.57792915779E+02 -0.69976067596E+02 -0.24330016312E+02  0.93960740973E+02  0.00000000000E+00 0.  1.
</event>
<event>
12    1  0.1597826E-001  0.1959558E+03  0.7818608E-02  0.1153280E+00
         21   -1    0    0  503  502  0.00000000000E+00  0.00000000000E+00  0.18237525837E+03  0.18237525837E+03  0.00000000000E+00 0. -1.
         21   -1    0    0  501  503 -0.00000000000E+00 -0.00000000000E+00 -0.32200286117E+03  0.32200286117E+03  0.00000000000E+00 0.  1.
          6    2    1    2  501    0 -0.71022734486E+02 -0.58286411836E+02 -0.21841341264E+03  0.29317712418E+03  0.17264667012E+03 0.  0.
         24    2    3    3    0    0 -0.32606239209E+02  0.31687914316E+01 -0.19891395140E+03  0.21797813412E+03  0.82912597449E+02 0.  0.
         -6    2    1    2    0  502  0.71022734486E+02  0.58286411836E+02  0.78785809829E+02  0.21120099536E+03  0.17308125835E+03 0.  0.
        -24    2    5    5    0    0  0.59131172992E+02  0.23205715540E+02  0.11823082755E+03  0.15688650457E+03  0.81239435502E+02 0.  0.
          5    1    3    3  501    0 -0.38416495277E+02 -0.61455203267E+02 -0.19499461233E+02  0.75198990062E+02  0.47000000000E+01 0. -1.
        -13    1    4    4    0    0 -0.34212775185E+02 -0.35868468238E+02 -0.12267206144E+03  0.13230833556E+03  0.00000000000E+00 0.  1.
         14    1    4    4    0    0  0.16065359759E+01  0.39037259670E+02 -0.76241889963E+02  0.85669798561E+02  0.00000000000E+00 0. -1.
         -5    1    5    5    0  502  0.11891561494E+02  0.35080696296E+02 -0.39445017717E+02  0.54314490793E+02  0.47000000000E+01 0.  1.
         13    1    6    6    0    0  0.20747251869E+02 -0.28587849508E+02  0.61934152513E+02  0.71299038192E+02  0.00000000000E+00 0. -1.
        -14    1    6    6    0    0  0.38383921123E+02  0.51793565048E+02  0.56296675033E+02  0.85587466377E+02  0.00000000000E+00 0.  1.
</event>
<event>
12    1  0.1597826E-001  0.2329105E+03  0.7818608E-02  0.1124981E+00
         21   -1    0    0  501  502  0.00000000000E+00  0.00000000000E+00  0.10069558596E+03  0.10069558596E+03  0.00000000000E+00 0. -1.
         21   -1    0    0  502  503 -0.00000000000E+00 -0.00000000000E+00 -0.71065495141E+03  0.71065495141E+03  0.00000000000E+00 0.  1.
         -6    2    1    2    0  503 -0.15069769368E+03 -0.30829999535E+02 -0.50630819058E+03  0.55641748316E+03  0.17202368431E+03 0.  0.
        -24    2    3    3    0    0 -0.14088091393E+03 -0.72587457534E+02 -0.34166777840E+03  0.38621580930E+03  0.85495085528E+02 0.  0.
          6    2    1    2  501    0  0.15069769368E+03  0.30829999535E+02 -0.10365117487E+03  0.25493305421E+03  0.17489143010E+03 0.  0.
         24    2    5    5    0    0  0.17863926975E+03  0.81030164322E+01 -0.82682754189E+02  0.21299247600E+03  0.80942630437E+02 0.  0.
          5    1    5    5  501    0 -0.27941576069E+02  0.22726983103E+02 -0.20968420681E+02  0.41940578204E+02  0.47000000000E+01 0. -1.
        -13    1    6    6    0    0  0.26988622266E+02  0.94316375597E+01 -0.50391150939E+02  0.57936254728E+02  0.00000000000E+00 0.  1.
         14    1    6    6    0    0  0.15165064748E+03 -0.13286211274E+01 -0.32291603250E+02  0.15505622127E+03  0.00000000000E+00 0. -1.
         -5    1    3    3    0  503 -0.98167797438E+01  0.41757457999E+02 -0.16464041218E+03  0.17020167386E+03  0.47000000000E+01 0.  1.
         11    1    4    4    0    0 -0.70501033387E+02 -0.66732048335E+02 -0.12462034024E+03  0.15796769032E+03  0.00000000000E+00 0. -1.
        -12    1    4    4    0    0 -0.70379880547E+02 -0.58554091997E+01 -0.21704743817E+03  0.22824811898E+03  0.00000000000E+00 0.  1.
</event>
<event>
12    1  0.1597826E-001  0.2511491E+03  0.7818608E-02  0.1112587E+00
         21   -1    0    0  503  502  0.00000000000E+00  0.00000000000E+00  0.13853341419E+03  0.13853341419E+03  0.00000000000E+00 0.  1.
         21   -1    0    0  501  503 -0.00000000000E+00 -0.00000000000E+00 -0.45640902423E+03  0.45640902423E+03  0.00000000000E+00 0.  1.
          6    2    1    2  501    0 -0.17394120460E+03  0.55254704325E+02 -0.14386851794E+03  0.28940301504E+03  0.17247414199E+03 0.  0.
         24    2    3    3    0    0 -0.92112230313E+02  0.44747078237E+02 -0.15949687787E+03  0.20530350926E+03  0.78887976792E+02 0.  0.
         -6    2    1    2    0  502  0.17394120460E+03 -0.55254704325E+02 -0.17400709210E+03  0.30553942338E+03  0.17253186990E+03 0.  0.
        -24    2    5    5    0    0  0.62926596201E+02 -0.10570588394E+02 -0.15230162541E+03  0.18382610949E+03  0.80775983916E+02 0.  0.
          5    1    3    3  501    0 -0.81828974283E+02  0.10507626088E+02  0.15628359925E+02  0.84099505778E+02  0.47000000000E+01 0. -1.
        -13    1    4    4    0    0 -0.70416467779E+02  0.19881330545E+01 -0.51875811291E+02  0.87484463790E+02  0.00000000000E+00 0.  1.
         14    1    4    4    0    0 -0.21695762534E+02  0.42758945183E+02 -0.10762106658E+03  0.11781904547E+03  0.00000000000E+00 0. -1.
         -5    1    5    5    0  502  0.11101460840E+03 -0.44684115931E+02 -0.21705466685E+02  0.12171331389E+03  0.47000000000E+01 0.  1.
         11    1    6    6    0    0  0.14407291211E+02  0.32932404084E+02 -0.38391865114E+02  0.52593237072E+02  0.00000000000E+00 0. -1.
        -12    1    6    6    0    0  0.48519304991E+02 -0.43502992478E+02 -0.11390976030E+03  0.13123287242E+03  0.00000000000E+00 0.  1.
</event>
<event>
12    1  0.1597826E-001  0.2263863E+03  0.7818608E-02  0.1129645E+00
         21   -1    0    0  501  502  0.00000000000E+00  0.00000000000E+00  0.45049400202E+02  0.45049400202E+02  0.00000000000E+00 0.  1.
         21   -1    0    0  502  503 -0.00000000000E+00 -0.00000000000E+00 -0.11893668271E+04  0.11893668271E+04  0.00000000000E+00 0.  1.
         -6    2    1    2    0  503 -0.14594572886E+03  0.15029701495E+02 -0.71219379767E+03  0.74658266270E+03  0.16923244107E+03 0.  0.
        -24    2    3    3    0    0 -0.84256683898E+01  0.29496445282E+02 -0.25740501887E+03  0.27121335676E+03  0.79739005357E+02 0.  0.
          6    2    1    2  501    0  0.14594572886E+03 -0.15029701495E+02 -0.43212362918E+03  0.48783356455E+03  0.17240854998E+03 0.  0.
         24    2    5    5    0    0  0.16439778952E+03  0.14744447104E+02 -0.40068459182E+03  0.44053153988E+03  0.79220348350E+02 0.  0.
          5    1    5    5  501    0 -0.18452060661E+02 -0.29774148599E+02 -0.31439037363E+02  0.47302024668E+02  0.47000000000E+01 0. -1.
        -11    1    6    6    0    0  0.58781456942E+02 -0.28610653052E+02 -0.18953477900E+03  0.20049254749E+03  0.00000000000E+00 0.  1.
         12    1    6    6    0    0  0.10561633258E+03  0.43355100156E+02 -0.21114981282E+03  0.24003899240E+03  0.00000000000E+00 0. -1.
         -5    1    3    3    0  503 -0.13752006047E+03 -0.14466743787E+02 -0.45478877880E+03  0.47536930594E+03  0.47000000000E+01 0.  1.
         13    1    4    4    0    0  0.17293657192E+01 -0.89428811553E+01  0.15366113377E+01  0.92372616912E+01  0.00000000000E+00 0. -1.
        -14    1    4    4    0    0 -0.10155034109E+02  0.38439326438E+02 -0.25894163021E+03  0.26197609507E+03  0.00000000000E+00 0.  1.
</event>
<event>
12    1  0.1597826E-001  0.1910770E+03  0.7818608E-02  0.1157889E+00
         21   -1    0    0  501  502  0.00000000000E+00  0.00000000000E+00  0.29879003513E+03  0.29879003513E+03  0.00000000000E+00 0.  1.
         21   -1    0    0  502  503 -0.00000000000E+00 -0.00000000000E+00 -0.12258064379E+03  0.12258064379E+03  0.00000000000E+00 0. -1.
         -6    2    1    2    0  503  0.42467567758E+02  0.70903958849E+02  0.11106226008E+03  0.21949310633E+03  0.17032772064E+03 0.  0.
        -24    2    3    3    0    0  0.86108606566E+02  0.78896954009E+02  0.10240697331E+03  0.17404607970E+03  0.78520240702E+02 0.  0.
          6    2    1    2  501    0 -0.42467567758E+02 -0.70903958849E+02  0.65147131260E+02  0.20187757260E+03  0.17227750845E+03 0.  0.
         24    2    5    5    0    0 -0.15980734406E+02  0.26469287526E+02  0.48007909608E+02  0.99413216022E+02  0.81377030424E+02 0.  0.
          5    1    5    5  501    0 -0.26486833352E+02 -0.97373246375E+02  0.17139221653E+02  0.10246435658E+03  0.47000000000E+01 0. -1.
        -11    1    6    6    0    0  0.15240826298E+02  0.33826402533E+01  0.57381830313E+02  0.59467633982E+02  0.00000000000E+00 0.  1.
         12    1    6    6    0    0 -0.31221560704E+02  0.23086647273E+02 -0.93739207057E+01  0.39945582040E+02  0.00000000000E+00 0. -1.
         -5    1    3    3    0  503 -0.43641038808E+02 -0.79929951608E+01  0.86552867674E+01  0.45447026623E+02  0.47000000000E+01 0.  1.
         11    1    4    4    0    0  0.94539632720E+02  0.43015487467E+02  0.76251403381E+02  0.12885010995E+03  0.00000000000E+00 0. -1.
        -12    1    4    4    0    0 -0.84310261543E+01  0.35881466543E+02  0.26155569932E+02  0.45195969751E+02  0.00000000000E+00 0.  1.
</event>
<event>
12    1  0.1597826E-001  0.2264536E+03  0.7818608E-02  0.1129217E+00
         21   -1    0    0  503  502  0.00000000000E+00  0.00000000000E+00  0.13829372854E+03  0.13829372854E+03  0.00000000000E+00 0.  1.
         21   -1    0    0  501  503 -0.00000000000E+00 -0.00000000000E+00 -0.85376776637E+03  0.85376776637E+03  0.00000000000E+00 0.  1.
          6    2    1    2  501    0 -0.34511854100E+01 -0.14717963209E+03 -0.73089736570E+03  0.76508331961E+03  0.17166179533E+03 0.  0.
         24    2    3    3    0    0  0.54134377943E+02 -0.96906681335E+02 -0.33404314213E+03  0.36090658667E+03  0.79669992696E+02 0.  0.
         -6    2    1    2    0  502  0.34511854100E+01  0.14717963209E+03  0.15423327871E+02  0.22697817531E+03  0.17206817905E+03 0.  0.
        -24    2    5    5    0    0  0.51444581435E+01  0.14416006816E+03  0.64411458460E+02  0.17764348287E+03  0.81239032026E+02 0.  0.
          5    1    3    3  501    0 -0.57585563353E+02 -0.50272950752E+02 -0.39685422357E+03  0.40417673293E+03  0.47000000000E+01 0. -1.
        -13    1    4    4    0    0  0.39298563333E+02 -0.82000523970E+02 -0.32591069306E+03  0.33835815767E+03  0.00000000000E+00 0.  1.
         14    1    4    4    0    0  0.14835814611E+02 -0.14906157365E+02 -0.81324490705E+01  0.22548429001E+02  0.00000000000E+00 0. -1.
         -5    1    5    5    0  502 -0.16932727336E+01  0.30195639251E+01 -0.48988130589E+02  0.49334692433E+02  0.47000000000E+01 0.  1.
         11    1    6    6    0    0  0.29438653381E+02  0.84743292818E+02  0.44787722390E+01  0.89822710888E+02  0.00000000000E+00 0. -1.
        -12    1    6    6    0    0 -0.24294195237E+02  0.59416775345E+02  0.59932686221E+02  0.87820771986E+02  0.00000000000E+00 0.  1.
</event>
<event>
12    1  0.1597826E-001  0.1924994E+03  0.7818608E-02  0.1156272E+00
         21   -1    0    0  503  502  0.00000000000E+00  0.00000000000E+00  0.13814623947E+03  0.13814623947E+03  0.00000000000E+00 0. -1.
         21   -1    0    0  501  503 -0.00000000000E+00 -0.00000000000E+00 -0.27474215652E+03  0.27474215652E+03  0.00000000000E+00 0.  1.
          6    2    1    2  501    0  0.35381361468E+01  0.83338599690E+02 -0.10079457103E+03  0.21729144177E+03  0.17348828350E+03 0.  0.
         24    2    3    3    0    0  0.31687692007E+02  0.52805853647E+02 -0.13018966955E+03  0.16619537644E+03  0.82939647260E+02 0.  0.
         -6    2    1    2    0  502 -0.35381361468E+01 -0.83338599690E+02 -0.35801346024E+02  0.19559695422E+03  0.17325874153E+03 0.  0.
        -24    2    5    5    0    0  0.40274685997E+02 -0.84265043717E+02  0.19591060739E+02  0.12480973497E+03  0.80442602870E+02 0.  0.
          5    1    3    3  501    0 -0.28149555860E+02  0.30532746043E+02  0.29395098518E+02  0.51096065337E+02  0.47000000000E+01 0. -1.
        -11    1    4    4    0    0 -0.17886788050E+02  0.50309090869E+02 -0.61437205794E+02  0.81397002811E+02  0.00000000000E+00 0.  1.
         12    1    4    4    0    0  0.49574480057E+02  0.24967627776E+01 -0.68752463754E+02  0.84798373626E+02  0.00000000000E+00 0. -1.
         -5    1    5    5    0  502 -0.43812822144E+02  0.92644402676E+00 -0.55392406764E+02  0.70787219255E+02  0.47000000000E+01 0.  1.
         13    1    6    6    0    0 -0.98620735409E+01  0.29087274212E+00  0.24471997884E+02  0.26386052792E+02  0.00000000000E+00 0. -1.
        -14    1    6    6    0    0  0.50136759538E+02 -0.84555916459E+02 -0.48809371452E+01  0.98423682173E+02  0.00000000000E+00 0.  1.
</event>
<event>
12    1  0.1597826E-001  0.1857304E+03  0.7818608E-02  0.1162718E+00
         21   -1    0    0  503  502  0.00000000000E+00  0.00000000000E+00  0.11262007129E+03  0.11262007129E+03  0.00000000000E+00 0. -1.
         21   -1    0    0  501  503 -0.00000000000E+00 -0.00000000000E+00 -0.32359093383E+03  0.32359093383E+03  0.00000000000E+00 0. -1.
          6    2    1    2  501    0  0.91205644953E+00 -0.67543723382E+02 -0.15976284819E+03  0.24498966754E+03  0.17301093355E+03 0.  0.
         24    2    3    3    0    0 -0.47841015066E+01 -0.19033020350E+02 -0.47132177443E+01  0.82360603645E+02  0.79849302567E+02 0.  0.
         -6    2    1    2    0  502 -0.91205644953E+00  0.67543723382E+02 -0.51208014358E+02  0.19122133758E+03  0.17140698001E+03 0.  0.
        -24    2    5    5    0    0  0.13252395635E+02  0.36716728245E+02  0.35806457930E+02  0.97709072502E+02  0.82104910308E+02 0.  0.
          5    1    3    3  501    0  0.56961579561E+01 -0.48510703032E+02 -0.15504963044E+03  0.16262906390E+03  0.47000000000E+01 0. -1.
        -13    1    4    4    0    0 -0.66465950788E+01 -0.47681797476E+02 -0.17104938781E+02  0.51091192660E+02  0.00000000000E+00 0.  1.
         14    1    4    4    0    0  0.18624935722E+01  0.28648777126E+02  0.12391721037E+02  0.31269410985E+02  0.00000000000E+00 0. -1.
         -5    1    5    5    0  502 -0.14164452085E+02  0.30826995137E+02 -0.87014472288E+02  0.93512265076E+02  0.47000000000E+01 0.  1.
         13    1    6    6    0    0 -0.73446787003E+01  0.45500899664E+02 -0.96022648236E+01  0.47079503664E+02  0.00000000000E+00 0. -1.
        -14    1    6    6    0    0  0.20597074336E+02 -0.87841714187E+01  0.45408722754E+02  0.50629568839E+02  0.00000000000E+00 0.  1.
</event>
<event>
12    1  0.1597826E-001  0.2205367E+03  0.7818608E-02  0.1133550E+00
         21   -1    0    0  501  502  0.00000000000E+00  0.00000000000E+00  0.49284248280E+03  0.49284248280E+03  0.00000000000E+00 0. -1.
         21   -1    0    0  502  503 -0.00000000000E+00 -0.00000000000E+00 -0.98618117910E+02  0.98618117910E+02  0.00000000000E+00 0.  1.
         -6    2    1    2    0  503 -0.44137578231E+02 -0.12524536938E+03  0.20601163172E+03  0.30152879680E+03  0.17562543817E+03 0.  0.
        -24    2    3    3    0    0 -0.43701115938E+02 -0.16050868327E+03  0.17081733757E+03  0.25148461485E+03  0.79957011894E+02 0.  0.
          6    2    1    2  501    0  0.44137578231E+02  0.12524536938E+03  0.18821273317E+03  0.28993180391E+03  0.17607353472E+03 0.  0.
         24    2    5    5    0    0 -0.14142738252E+01  0.56287652706E+02  0.15230242431E+02  0.98163271520E+02  0.78954211878E+02 0.  0.
          5    1    5    5  501    0  0.45551852056E+02  0.68957716669E+02  0.17298249074E+03  0.19176853239E+03  0.47000000000E+01 0. -1.
        -11    1    6    6    0    0 -0.34709783529E+02  0.39731211028E+01  0.65982562388E+01  0.35554067971E+02  0.00000000000E+00 0.  1.
         12    1    6    6    0    0  0.33295509704E+02  0.52314531603E+02  0.86319861926E+01  0.62609203548E+02  0.00000000000E+00 0. -1.
         -5    1    3    3    0  503 -0.43646229257E+00  0.35263313897E+02  0.35194294149E+02  0.50044181949E+02  0.47000000000E+01 0.  1.
         13    1    4    4    0    0 -0.66942303876E+02 -0.12968760996E+03  0.13666297600E+03  0.19994228476E+03  0.00000000000E+00 0. -1.
        -14    1    4    4    0    0  0.23241187938E+02 -0.30821073315E+02  0.34154361574E+02  0.51542330094E+02  0.00000000000E+00 0.  1.
</event>
<event>
12    1  0.1597826E-001  0.2187696E+03  0.7818608E-02  0.1134887E+00
         21   -1    0    0  503  502  0.00000000000E+00  0.00000000000E+00  0.32679648075E+03  0.32679648075E+03  0.00000000000E+00 0. -1.
         21   -1    0    0  501  503 -0.00000000000E+00 -0.00000000000E+00 -0.15697515189E+03  0.15697515189E+03  0.00000000000E+00 0.  1.
          6    2    1    2  501    0  0.13386362895E+03 -0.11257536245E+02  0.21491182627E+02  0.21982265441E+03  0.17266709352E+03 0.  0.
         24    2    3    3    0    0  0.16025240657E+03  0.94652690862E+01  0.36874216835E+02  0.18261338155E+03  0.78851215104E+02 0.  0.
         -6    2    1    2    0  502 -0.13386362895E+03  0.11257536245E+02  0.14833014624E+03  0.26394897823E+03  0.17210760455E+03 0.  0.
        -24    2    5    5    0    0 -0.15303550598E+03 -0.24986982280E+02  0.10408572315E+03  0.20344373080E+03  0.80692617144E+02 0.  0.
          5    1    3    3  501    0 -0.26388777624E+02 -0.20722805332E+02 -0.15383034207E+02  0.37209272860E+02  0.47000000000E+01 0. -1.
        -13    1    4    4    0    0  0.16559326929E+02 -0.18705467862E+02 -0.12694564186E+02  0.28022451645E+02  0.00000000000E+00 0.  1.
         14    1    4    4    0    0  0.14369307964E+03  0.28170736948E+02  0.49568781021E+02  0.15459092991E+03  0.00000000000E+00 0. -1.
         -5    1    5    5    0  502  0.19171877033E+02  0.36244518525E+02  0.44244423091E+02  0.60505247432E+02  0.47000000000E+01 0.  1.
         11    1    6    6    0    0 -0.60692187949E+02 -0.44626314316E+02  0.22375771218E+02  0.78585779535E+02  0.00000000000E+00 0. -1.
        -12    1    6    6    0    0 -0.92343318034E+02  0.19639332036E+02  0.81709951932E+02  0.12485795126E+03  0.00000000000E+00 0.  1.
</event>
<event>
12    1  0.1597826E-001  0.1733715E+03  0.7818608E-02  0.1174845E+00
         21   -1    0    0  501  502  0.00000000000E+00  0.00000000000E+00  0.23248423767E+02  0.23248423767E+02  0.00000000000E+00 0. -1.
         21   -1    0    0  502  503 -0.00000000000E+00 -0.00000000000E+00 -0.13642790413E+04  0.13642790413E+04  0.00000000000E+00 0. -1.
         -6    2    1    2    0  503 -0.76647064018E+01 -0.15370418584E+02 -0.50067901834E+03  0.52984636675E+03  0.17251868147E+03 0.  0.
        -24    2    3    3    0    0  0.32146337457E+02 -0.32259883692E+02 -0.46271335383E+03  0.47210855481E+03  0.81906975350E+02 0.  0.
          6    2    1    2  501    0  0.76647064018E+01  0.15370418584E+02 -0.84035159924E+03  0.85768109837E+03  0.17067823137E+03 0.  0.
         24    2    5    5    0    0  0.51303871513E+02  0.47456498794E+00 -0.75431920892E+03  0.75995737878E+03  0.76846835797E+02 0.  0.
          5    1    5    5  501    0 -0.43639165111E+02  0.14895853596E+02 -0.86032390311E+02  0.97723719581E+02  0.47000000000E+01 0. -1.
        -13    1    6    6    0    0  0.22070894297E+02 -0.24821990175E+02 -0.12149679034E+03  0.12595525251E+03  0.00000000000E+00 0.  1.
         14    1    6    6    0    0  0.29232977216E+02  0.25296555163E+02 -0.63282241859E+03  0.63400212628E+03  0.00000000000E+00 0. -1.
         -5    1    3    3    0  503 -0.39811043858E+02  0.16889465108E+02 -0.37965664518E+02  0.57737811935E+02  0.47000000000E+01 0.  1.
         11    1    4    4    0    0 -0.40661350404E+00 -0.52424823913E+02 -0.20658256789E+03  0.21313114472E+03  0.00000000000E+00 0. -1.
        -12    1    4    4    0    0  0.32552950961E+02  0.20164940221E+02 -0.25613078594E+03  0.25897741009E+03  0.00000000000E+00 0.  1.
</event>
<event>
12    1  0.1597826E-001  0.1827803E+03  0.7818608E-02  0.1165189E+00
         21   -1    0    0  501  502  0.00000000000E+00  0.00000000000E+00  0.16102663503E+03  0.16102663503E+03  0.00000000000E+00 0. -1.
         21   -1    0    0  502  503 -0.00000000000E+00 -0.00000000000E+00 -0.28348413644E+03  0.28348413644E+03  0.00000000000E+00 0. -1.
         -6    2    1    2    0  503 -0.55231629850E+02 -0.25101449444E+02 -0.17647124392E+03  0.25391665024E+03  0.17219451105E+03 0.  0.
        -24    2    3    3    0    0 -0.32493954757E+02  0.53812414367E+02 -0.11832949926E+03  0.15318456874E+03  0.74242903159E+02 0.  0.
          6    2    1    2  501    0  0.55231629850E+02  0.25101449444E+02  0.54013742507E+02  0.19059412123E+03  0.17241815151E+03 0.  0.
         24    2    5    5    0    0 -0.32001941283E+02  0.38436937057E+02  0.22334259115E+02  0.96715418480E+02  0.79709037538E+02 0.  0.
          5    1    5    5  501    0  0.87233571134E+02 -0.13335487613E+02  0.31679483391E+02  0.93878702753E+02  0.47000000000E+01 0. -1.
        -11    1    6    6    0    0 -0.42524508368E+02  0.57142024844E+02  0.99045201799E+01  0.71914145585E+02  0.00000000000E+00 0.  1.
         12    1    6    6    0    0  0.10522567085E+02 -0.18705087787E+02  0.12429738935E+02  0.24801272895E+02  0.00000000000E+00 0. -1.
         -5    1    3    3    0  503 -0.22737675093E+02 -0.78913863811E+02 -0.58141744659E+02  0.10073208149E+03  0.47000000000E+01 0.  1.
         11    1    4    4    0    0 -0.42290040641E+02  0.26563526384E+01 -0.71653140671E+02  0.83244677396E+02  0.00000000000E+00 0. -1.
        -12    1    4    4    0    0  0.97960858844E+01  0.51156061728E+02 -0.46676358593E+02  0.69939891348E+02  0.00000000000E+00 0.  1.
</event>
<event>
12    1  0.1597826E-001  0.2438966E+03  0.7818608E-02  0.1117377E+00
         21   -1    0    0  503  502  0.00000000000E+00  0.00000000000E+00  0.18149198160E+03  0.18149198160E+03  0.00000000000E+00 0. -1.
         21   -1    0    0  501  503 -0.00000000000E+00 -0.00000000000E+00 -0.35374884565E+03  0.35374884565E+03  0.00000000000E+00 0.  1.
          6    2    1    2  501    0  0.12736398503E+03  0.11507350911E+03 -0.11704743822E+02  0.24324334351E+03  0.17195006819E+03 0.  0.
         24    2    3    3    0    0  0.24549734750E+02 -0.60518229236E+01  0.38645007307E+01  0.83535461741E+02  0.79523109631E+02 0.  0.
         -6    2    1    2    0  502 -0.12736398503E+03 -0.11507350911E+03 -0.16055212024E+03  0.29199748374E+03  0.17326872198E+03 0.  0.
        -24    2    5    5    0    0 -0.14369874323E+03 -0.48448381207E+02 -0.13614797885E+03  0.21903595888E+03  0.80273935305E+02 0.  0.
          5    1    3    3  501    0  0.10281425028E+03  0.12112533204E+03 -0.15569244553E+02  0.15970788177E+03  0.47000000000E+01 0. -1.
        -13    1    4    4    0    0  0.49060195022E+02 -0.67717368138E+01 -0.15927492978E+02  0.52023496495E+02  0.00000000000E+00 0.  1.
         14    1    4    4    0    0 -0.24510460271E+02  0.71991389016E+00  0.19791993708E+02  0.31511965246E+02  0.00000000000E+00 0. -1.
         -5    1    5    5    0  502  0.16334758197E+02 -0.66625127907E+02 -0.24404141383E+02  0.72961524865E+02  0.47000000000E+01 0.  1.
         11    1    6    6    0    0 -0.26914629970E+02 -0.14705709014E+02  0.67739596373E+01  0.31409261583E+02  0.00000000000E+00 0. -1.
        -12    1    6    6    0    0 -0.11678411326E+03 -0.33742672193E+02 -0.14292193849E+03  0.18762669730E+03  0.00000000000E+00 0.  1.
</event>
<event>
12    1  0.1597826E-001  0.1844291E+03  0.7818608E-02  0.1163634E+00
         21   -1    0    0  501  502  0.00000000000E+00  0.00000000000E+00  0.28338198628E+02  0.28338198628E+02  0.00000000000E+00 0. -1.
         21   -1    0    0  502  503 -0.00000000000E+00 -0.00000000000E+00 -0.15158201306E+04  0.15158201306E+04  0.00000000000E+00 0. -1.
         -6    2    1    2    0  503  0.28976675576E+02  0.62710594416E+02 -0.10964251352E+04  0.11117933234E+04  0.17077485263E+03 0.  0.
        -24    2    3    3    0    0  0.11653921289E+02  0.75138345195E+02 -0.39237249212E+03  0.40740228062E+03  0.78986460101E+02 0.  0.
          6    2    1    2  501    0 -0.28976675576E+02 -0.62710594416E+02 -0.39105679669E+03  0.43236500583E+03  0.17100237908E+03 0.  0.
         24    2    5    5    0    0 -0.64258240161E+02 -0.89362211755E+02 -0.33735056809E+03  0.36264021472E+03  0.74751543240E+02 0.  0.
          5    1    5    5  501    0  0.35281564585E+02  0.26651617339E+02 -0.53706228598E+02  0.69724791118E+02  0.47000000000E+01 0. -1.
        -13    1    6    6    0    0 -0.54219045502E+02 -0.21700708783E+02 -0.21134735585E+03  0.21926771418E+03  0.00000000000E+00 0.  1.
         14    1    6    6    0    0 -0.10039194659E+02 -0.67661502972E+02 -0.12600321224E+03  0.14337250053E+03  0.00000000000E+00 0. -1.
         -5    1    3    3    0  503  0.17322754287E+02 -0.12427750779E+02 -0.70405264312E+03  0.70439104274E+03  0.47000000000E+01 0.  1.
         13    1    4    4    0    0 -0.74213469000E+01  0.13997742775E+02 -0.25863271847E+03  0.25911753367E+03  0.00000000000E+00 0. -1.
        -14    1    4    4    0    0  0.19075268189E+02  0.61140602420E+02 -0.13373977365E+03  0.14828474695E+03  0.00000000000E+00 0.  1.
</event>
<event>
12    1  0.1597826E-001  0.1720906E+03  0.7818608E-02  0.1175876E+00
         21   -1    0    0  501  502  0.00000000000E+00  0.00000000000E+00  0.19957345106E+02  0.19957345106E+02  0.00000000000E+00 0. -1.
         21   -1    0    0  502  503 -0.00000000000E+00 -0.00000000000E+00 -0.16388114909E+04  0.16388114909E+04  0.00000000000E+00 0. -1.
         -6    2    1    2    0  503 -0.55625658842E+01  0.17627241986E+02 -0.10680299099E+04  0.10816878030E+04  0.17034950252E+03 0.  0.
        -24    2    3    3    0    0 -0.52016645428E+02 -0.11134406441E+02 -0.89536496253E+03  0.90052354615E+03  0.80215551027E+02 0.  0.
          6    2    1    2  501    0  0.55625658842E+01 -0.17627241986E+02 -0.55082423592E+03  0.57708103299E+03  0.17109505534E+03 0.  0.
         24    2    5    5    0    0 -0.50594785615E+01  0.42737527134E+00 -0.11229058992E+03  0.13802221494E+03  0.80094782976E+02 0.  0.
          5    1    5    5  501    0  0.10622044446E+02 -0.18054617258E+02 -0.43853364600E+03  0.43905881805E+03  0.47000000000E+01 0. -1.
        -11    1    6    6    0    0 -0.32583186515E+01 -0.35452880139E+02 -0.87241018474E+02  0.94225891639E+02  0.00000000000E+00 0.  1.
         12    1    6    6    0    0 -0.18011599100E+01  0.35880255411E+02 -0.25049571449E+02  0.43796323306E+02  0.00000000000E+00 0. -1.
         -5    1    3    3    0  503  0.46454079544E+02  0.28761648428E+02 -0.17266494737E+03  0.18116425690E+03  0.47000000000E+01 0.  1.
         11    1    4    4    0    0 -0.14162927453E+02 -0.22244470266E+02 -0.80604451168E+02  0.84808504995E+02  0.00000000000E+00 0. -1.
        -12    1    4    4    0    0 -0.37853717974E+02  0.11110063824E+02 -0.81476051136E+03  0.81571504115E+03  0.00000000000E+00 0.  1.
</event>
<event>
12    1  0.1597826E-001  0.1968557E+03  0.7818608E-02  0.1156923E+00
         21   -1    0    0  503  502  0.00000000000E+00  0.00000000000E+00  0.55767923916E+03  0.55767923916E+03  0.00000000000E+00 0.  1.
         21   -1    0    0  501  503 -0.00000000000E+00 -0.00000000000E+00 -0.63569938393E+02  0.63569938393E+02  0.00000000000E+00 0.  1.
          6    2    1    2  501    0 -0.18069211173E+02  0.39242203427E+02  0.19757157847E+03  0.26531832745E+03  0.17173479362E+03 0.  0.
         24    2    3    3    0    0 -0.74594463799E+02  0.47592890689E+02  0.13976647713E+03  0.18390359965E+03  0.80352028980E+02 0.  0.
         -6    2    1    2    0  502  0.18069211173E+02 -0.39242203427E+02  0.29653772230E+03  0.35593085010E+03  0.19205650832E+03 0.  0.
        -24    2    5    5    0    0 -0.25817853673E+02  0.19713786659E+02  0.52471012942E+02  0.10099452110E+03  0.79946801942E+02 0.  0.
          5    1    3    3  501    0  0.56525252626E+02 -0.83506872623E+01  0.57805101339E+02  0.81414727801E+02  0.47000000000E+01 0. -1.
        -13    1    4    4    0    0 -0.80198217593E+02  0.46116419258E+02  0.75592275222E+02  0.11946828158E+03  0.00000000000E+00 0.  1.
         14    1    4    4    0    0  0.56037537936E+01  0.14764714307E+01  0.64174201904E+02  0.64435318068E+02  0.00000000000E+00 0. -1.
         -5    1    5    5    0  502  0.43887064846E+02 -0.58955990086E+02  0.24406670936E+03  0.25493632900E+03  0.47000000000E+01 0.  1.
         13    1    6    6    0    0  0.16897936379E+02  0.34925349381E+02  0.13119940688E+02  0.40956722610E+02  0.00000000000E+00 0. -1.
        -14    1    6    6    0    0 -0.42715790053E+02 -0.15211562722E+02  0.39351072254E+02  0.60037798493E+02  0.00000000000E+00 0.  1.
</event>
<event>
12    1  0.1597826E-001  0.2491857E+03  0.7818608E-02  0.1114597E+00
         21   -1    0    0  503  502  0.00000000000E+00  0.00000000000E+00  0.12277447258E+04  0.12277447258E+04  0.00000000000E+00 0. -1.
         21   -1    0    0  501  503 -0.00000000000E+00 -0.00000000000E+00 -0.83483814488E+02  0.83483814488E+02  0.00000000000E+00 0. -1.
          6    2    1    2  501    0 -0.16008661849E+03 -0.63968653183E+02  0.15778134738E+03  0.29493803279E+03  0.17992713968E+03 0.  0.
         24    2    3    3    0    0 -0.79244742532E+02 -0.51929162249E+01  0.15384083210E+03  0.19480005885E+03  0.89293704755E+02 0.  0.
         -6    2    1    2    0  502  0.16008661849E+03  0.63968653183E+02  0.98647956397E+03  0.10162905075E+04  0.17316105674E+03 0.  0.
        -24    2    5    5    0    0  0.18056284591E+03  0.27916234679E+02  0.87189890580E+03  0.89434843114E+03  0.79178007468E+02 0.  0.
          5    1    3    3  501    0 -0.80841875957E+02 -0.58775736958E+02  0.39405152780E+01  0.10013797394E+03  0.47000000000E+01 0. -1.
        -11    1    4    4    0    0 -0.30373449958E+02  0.10356046294E+02  0.13716945092E+03  0.14087317850E+03  0.00000000000E+00 0.  1.
         12    1    4    4    0    0 -0.48871292575E+02 -0.15548962519E+02  0.16671381185E+02  0.53926880347E+02  0.00000000000E+00 0. -1.
         -5    1    5    5    0  502 -0.20476227423E+02  0.36052418504E+02  0.11458065817E+03  0.12194207640E+03  0.47000000000E+01 0.  1.
         13    1    6    6    0    0  0.13144681434E+03  0.39681414943E+02  0.48144966180E+03  0.50064623891E+03  0.00000000000E+00 0. -1.
        -14    1    6    6    0    0  0.49116031575E+02 -0.11765180265E+02  0.39044924400E+03  0.39370219222E+03  0.00000000000E+00 0.  1.
</event>
<event>
12    1  0.1597826E-001  0.1739609E+03  0.7818608E-02  0.1173911E+00
         21   -1    0    0  501  502  0.00000000000E+00  0.00000000000E+00  0.25446353166E+03  0.25446353166E+03  0.00000000000E+00 0.  1.
         21   -1    0    0  502  503 -0.00000000000E+00 -0.00000000000E+00 -0.13985751964E+03  0.13985751964E+03  0.00000000000E+00 0.  1.
         -6    2    1    2    0  503  0.26114947146E+02  0.30099272128E+01 -0.19541059603E+02  0.17505500423E+03  0.17196322680E+03 0.  0.
        -24    2    3    3    0    0 -0.35301850462E+02 -0.41128857211E+02 -0.23880768871E+02  0.99152577425E+02  0.79518167400E+02 0.  0.
          6    2    1    2  501    0 -0.26114947146E+02 -0.30099272128E+01  0.13414707162E+03  0.21926604706E+03  0.17143836339E+03 0.  0.
         24    2    5    5    0    0 -0.10201187707E+02  0.35814266352E+02 -0.56817928353E+00  0.78089368493E+02  0.68636001770E+02 0.  0.
          5    1    5    5  501    0 -0.15913759439E+02 -0.38824193565E+02  0.13471525090E+03  0.14117667857E+03  0.47000000000E+01 0. -1.
        -11    1    6    6    0    0  0.29371206076E+02  0.12506416596E+02 -0.32296458090E+01  0.32085959772E+02  0.00000000000E+00 0.  1.
         12    1    6    6    0    0 -0.39572393783E+02  0.23307849756E+02  0.26614665255E+01  0.46003408721E+02  0.00000000000E+00 0. -1.
         -5    1    3    3    0  503  0.61416797608E+02  0.44138784424E+02  0.43397092680E+01  0.75902426808E+02  0.47000000000E+01 0.  1.
         13    1    4    4    0    0 -0.64626579623E+01  0.23607110266E+02 -0.34743025960E+00  0.24478200727E+02  0.00000000000E+00 0. -1.
        -14    1    4    4    0    0 -0.28839192500E+02 -0.64735967477E+02 -0.23533338611E+02  0.74674376699E+02  0.00000000000E+00 0.  1.
</event>
<event>
12    1  0.1597826E-001  0.2637352E+03  0.7818608E-02  0.1105035E+00
         21   -1    0    0  503  502  0.00000000000E+00  0.00000000000E+00  0.50986982878E+02  0.50986982878E+02  0.00000000000E+00 0.  1.
         21   -1    0    0  501  503 -0.00000000000E+00 -0.00000000000E+00 -0.14183801286E+04  0.14183801286E+04  0.00000000000E+00 0. -1.
          6    2    1    2  501    0 -0.19899073393E+03  0.16636184218E+02 -0.83159119582E+03  0.87217368173E+03  0.17108167440E+03 0.  0.
         24    2    3    3    0    0 -0.19973913807E+03  0.33775974834E+02 -0.82480053731E+03  0.85313331476E+03  0.80647297912E+02 0.  0.
         -6    2    1    2    0  502  0.19899073393E+03 -0.16636184218E+02 -0.53580194991E+03  0.59719342976E+03  0.17228519439E+03 0.  0.
        -24    2    5    5    0    0  0.75999622107E+02 -0.46714848680E+02 -0.14910076751E+03  0.19026415567E+03  0.77531867078E+02 0.  0.
          5    1    3    3  501    0  0.74840414547E+00 -0.17139790617E+02 -0.67906585169E+01  0.19040366967E+02  0.47000000000E+01 0. -1.
        -13    1    4    4    0    0  0.45693887268E+01  0.47712006350E+01 -0.80059787112E+02  0.80331893923E+02  0.00000000000E+00 0.  1.
         14    1    4    4    0    0 -0.20430852680E+03  0.29004774199E+02 -0.74474075020E+03  0.77280142084E+03  0.00000000000E+00 0. -1.
         -5    1    5    5    0  502  0.12299111182E+03  0.30078664462E+02 -0.38670118240E+03  0.40692927409E+03  0.47000000000E+01 0.  1.
         13    1    6    6    0    0  0.39646982226E+02 -0.58489781830E+02 -0.12900710739E+03  0.14709103146E+03  0.00000000000E+00 0. -1.
        -14    1    6    6    0    0  0.36352639882E+02  0.11774933150E+02 -0.20093660117E+02  0.43173124209E+02  0.00000000000E+00 0.  1.
</event>
<event>
12    1  0.1597826E-001  0.1825915E+03  0.7818608E-02  0.1165578E+00
         21   -1    0    0  503  502  0.00000000000E+00  0.00000000000E+00  0.11104604641E+04  0.11104604641E+04  0.00000000000E+00 0.  1.
         21   -1    0    0  501  503 -0.00000000000E+00 -0.00000000000E+00 -0.12302514892E+03  0.12302514892E+03  0.00000000000E+00 0.  1.
          6    2    1    2  501    0  0.10079842489E+02  0.51150378060E+02 -0.42671215535E+02  0.18751129214E+03  0.17499053587E+03 0.  0.
         24    2    3    3    0    0 -0.53230100917E+02  0.16268318998E+01 -0.47548906131E+02  0.10684771657E+03  0.79494942202E+02 0.  0.
         -6    2    1    2    0  502 -0.10079842489E+02 -0.51150378060E+02  0.10301065307E+04  0.10459743209E+04  0.17385295777E+03 0.  0.
        -24    2    5    5    0    0 -0.53965862843E+01  0.38774200103E+02  0.44341816297E+03  0.45239728839E+03  0.80691248357E+02 0.  0.
          5    1    3    3  501    0  0.63309943407E+02  0.49523546161E+02  0.48776905953E+01  0.80663575572E+02  0.47000000000E+01 0. -1.
        -11    1    4    4    0    0  0.34092743207E+01  0.25680918897E+02 -0.35816800975E+02  0.44203800502E+02  0.00000000000E+00 0.  1.
         12    1    4    4    0    0 -0.56639375238E+02 -0.24054086997E+02 -0.11732105156E+02  0.62643916065E+02  0.00000000000E+00 0. -1.
         -5    1    5    5    0  502 -0.46832562052E+01 -0.89924578163E+02  0.58668836772E+03  0.59357703246E+03  0.47000000000E+01 0.  1.
         11    1    6    6    0    0  0.18124205655E+02  0.55290226229E+02  0.34486362255E+03  0.34973763610E+03  0.00000000000E+00 0. -1.
        -12    1    6    6    0    0 -0.23520791940E+02 -0.16516026126E+02  0.98554540416E+02  0.10265965229E+03  0.00000000000E+00 0.  1.
</event>
<event>
12    1  0.1597826E-001  0.1765081E+03  0.7818608E-02  0.1171807E+00
         21   -1    0    0  503  502  0.00000000000E+00  0.00000000000E+00  0.60623792427E+03  0.60623792427E+03  0.00000000000E+00 0.  1.
         21   -1    0    0  501  503 -0.00000000000E+00 -0.00000000000E+00 -0.63975353650E+02  0.63975353650E+02  0.00000000000E+00 0.  1.
          6    2    1    2  501    0  0.42954698056E+01  0.22544055510E+02  0.11714924278E+03  0.20991286955E+03  0.17266378375E+03 0.  0.
         24    2    3    3    0    0  0.23708227910E+02  0.14135545986E+02 -0.58126969513E+01  0.85055803944E+02  0.80242187207E+02 0.  0.
         -6    2    1    2    0  502 -0.42954698056E+01 -0.22544055510E+02  0.42511332783E+03  0.46030040836E+03  0.17500982526E+03 0.  0.
        -24    2    5    5    0    0  0.18397325869E+02  0.21710252936E+02  0.39069928435E+03  0.39963886222E+03  0.79091672912E+02 0.  0.
          5    1    3    3  501    0 -0.19412758104E+02  0.84085095237E+01  0.12296193973E+03  0.12485706561E+03  0.47000000000E+01 0. -1.
        -13    1    4    4    0    0 -0.15358076850E+02  0.36443414265E+02  0.97725642875E+00  0.39559423630E+02  0.00000000000E+00 0.  1.
         14    1    4    4    0    0  0.39066304760E+02 -0.22307868278E+02 -0.67899533801E+01  0.45496380314E+02  0.00000000000E+00 0. -1.
         -5    1    5    5    0  502 -0.22692795674E+02 -0.44254308446E+02  0.34414043489E+02  0.60661546146E+02  0.47000000000E+01 0.  1.
         13    1    6    6    0    0  0.17827415945E+02  0.48514618716E+02  0.18108372025E+03  0.18831568901E+03  0.00000000000E+00 0. -1.
        -14    1    6    6    0    0  0.56990992366E+00 -0.26804365780E+02  0.20961556410E+03  0.21132317321E+03  0.00000000000E+00 0.  1.
</event>
<event>
12    1  0.1597826E-001  0.2880750E+03  0.7818608E-02  0.1091663E+00
         21   -1    0    0  501  502  0.00000000000E+00  0.00000000000E+00  0.35973056038E+03  0.35973056038E+03  0.00000000000E+00 0. -1.
         21   -1    0    0  502  503 -0.00000000000E+00 -0.00000000000E+00 -0.33742309636E+03  0.33742309636E+03  0.00000000000E+00 0.  1.
         -6    2    1    2    0  503  0.11468607095E+03  0.19688770774E+03 -0.18660618487E+03  0.34129961455E+03  0.17246998094E+03 0.  0.
        -24    2    3    3    0    0  0.10201143251E+03  0.18221289609E+03 -0.87514736670E+02  0.24021944011E+03  0.80241375930E+02 0.  0.
          6    2    1    2  501    0 -0.11468607095E+03 -0.19688770774E+03  0.20891364890E+03  0.35585404219E+03  0.17626548815E+03 0.  0.
         24    2    5    5    0    0 -0.88430450143E+02 -0.19723154293E+03  0.11236065882E+03  0.25568395813E+03  0.77647554723E+02 0.  0.
          5    1    5    5  501    0 -0.26255620810E+02  0.34383519142E+00  0.96552990075E+02  0.10017008405E+03  0.47000000000E+01 0. -1.
        -13    1    6    6    0    0 -0.22908843365E+02 -0.14196315106E+03  0.65848970081E+02  0.15815953409E+03  0.00000000000E+00 0.  1.
         14    1    6    6    0    0 -0.65521606778E+02 -0.55268391877E+02  0.46511688742E+02  0.97524424044E+02  0.00000000000E+00 0. -1.
         -5    1    3    3    0  503  0.12674638444E+02  0.14674811658E+02 -0.99091448204E+02  0.10108017444E+03  0.47000000000E+01 0.  1.
         11    1    4    4    0    0  0.52225599215E+02  0.26781409218E+02 -0.36955275338E+02  0.69357403846E+02  0.00000000000E+00 0. -1.
        -12    1    4    4    0    0  0.49785833294E+02  0.15543148687E+03 -0.50559461332E+02  0.17086203627E+03  0.00000000000E+00 0.  1.
</event>
<event>
12    1  0.1597826E-001  0.3174871E+03  0.7818608E-02  0.1076849E+00
         21   -1    0    0  501  502  0.00000000000E+00  0.00000000000E+00  0.68105023253E+03  0.68105023253E+03  0.00000000000E+00 0. -1.
         21   -1    0    0  502  503 -0.00000000000E+00 -0.00000000000E+00 -0.21559456346E+03  0.21559456346E+03  0.00000000000E+00 0.  1.
         -6    2    1    2    0  503  0.40167597585E+02 -0.26382488782E+03 -0.18492587250E+02  0.31802516723E+03  0.17199134827E+03 0.  0.
        -24    2    3    3    0    0  0.57221681244E+02 -0.10314808160E+03 -0.52776300716E+02  0.15278188950E+03  0.81505339085E+02 0.  0.
          6    2    1    2  501    0 -0.40167597585E+02  0.26382488782E+03  0.48394825632E+03  0.57861962877E+03  0.17139939519E+03 0.  0.
         24    2    5    5    0    0 -0.57546026843E+02  0.78668166811E+02  0.24899487879E+03  0.27893612781E+03  0.79414658947E+02 0.  0.
          5    1    5    5  501    0  0.17378429259E+02  0.18515672101E+03  0.23495337753E+03  0.29968350096E+03  0.47000000000E+01 0. -1.
        -13    1    6    6    0    0 -0.32523335691E+02  0.68143889969E+02  0.23792660685E+03  0.24962056676E+03  0.00000000000E+00 0.  1.
         14    1    6    6    0    0 -0.25022691153E+02  0.10524276842E+02  0.11068271948E+02  0.29315561047E+02  0.00000000000E+00 0. -1.
         -5    1    3    3    0  503 -0.17054083659E+02 -0.16067680622E+03  0.34283713466E+02  0.16524327773E+03  0.47000000000E+01 0.  1.
         11    1    4    4    0    0  0.75876220236E+02 -0.98137338504E+02 -0.46345662627E+02  0.13242378355E+03  0.00000000000E+00 0. -1.
        -12    1    4    4    0    0 -0.18654538993E+02 -0.50107430926E+01 -0.64306380893E+01  0.20358105944E+02  0.00000000000E+00 0.  1.
</event>
<event>
12    1  0.1597826E-001  0.1775918E+03  0.7818608E-02  0.1170162E+00
         21   -1    0    0  503  502  0.00000000000E+00  0.00000000000E+00  0.19409383314E+03  0.19409383314E+03  0.00000000000E+00 0. -1.
         21   -1    0    0  501  503 -0.00000000000E+00 -0.00000000000E+00 -0.30278105594E+03  0.30278105594E+03  0.00000000000E+00 0. -1.
          6    2    1    2  501    0  0.93987424356E+01  0.42824580203E+02 -0.22346593072E+03  0.28542040565E+03  0.17206250242E+03 0.  0.
         24    2    3    3    0    0 -0.45122062607E+02 -0.13483248494E+02 -0.87770672997E+02  0.12864546274E+03  0.81413546304E+02 0.  0.
         -6    2    1    2    0  502 -0.93987424356E+01 -0.42824580203E+02  0.11477870791E+03  0.21145448343E+03  0.17209464183E+03 0.  0.
        -24    2    5    5    0    0 -0.55589012227E+02 -0.33073915280E+02  0.33129511226E+02  0.11702303841E+03  0.91721343496E+02 0.  0.
          5    1    3    3  501    0  0.54520805043E+02  0.56307828697E+02 -0.13569525772E+03  0.15677494291E+03  0.47000000000E+01 0. -1.
        -11    1    4    4    0    0 -0.48859811525E+01  0.29699030278E+02 -0.11536818851E+02  0.32233575670E+02  0.00000000000E+00 0.  1.
         12    1    4    4    0    0 -0.40236081455E+02 -0.43182278772E+02 -0.76233854146E+02  0.96411887071E+02  0.00000000000E+00 0. -1.
         -5    1    5    5    0  502  0.46190269791E+02 -0.97506649234E+01  0.81649196684E+02  0.94431445022E+02  0.47000000000E+01 0.  1.
         13    1    6    6    0    0 -0.32213323412E+02  0.24601892708E+02  0.36711602719E+02  0.54687229810E+02  0.00000000000E+00 0. -1.
        -14    1    6    6    0    0 -0.23375688815E+02 -0.57675807988E+02 -0.35820914937E+01  0.62335808602E+02  0.00000000000E+00 0.  1.
</event>
<event>
12    1  0.1597826E-001  0.1905696E+03  0.7818608E-02  0.1158875E+00
         21   -1    0    0  501  502  0.00000000000E+00  0.00000000000E+00  0.65626807376E+03  0.65626807376E+03  0.00000000000E+00 0. -1.
         21   -1    0    0  502  503 -0.00000000000E+00 -0.00000000000E+00 -0.54409824718E+02  0.54409824718E+02  0.00000000000E+00 0. -1.
         -6    2    1    2    0  503  0.94745623294E+01 -0.74020858287E+02  0.32820444901E+03  0.37951934777E+03  0.17535084885E+03 0.  0.
        -24    2    3    3    0    0 -0.17182744762E+02 -0.11124968859E+03  0.28423477673E+03  0.31586386956E+03  0.79428180504E+02 0.  0.
          6    2    1    2  501    0 -0.94745623294E+01  0.74020858287E+02  0.27365380003E+03  0.33115855070E+03  0.17091146433E+03 0.  0.
         24    2    5    5    0    0 -0.59310704723E+02  0.29035891515E+02  0.51573742658E+02  0.99104828030E+02  0.52925167134E+02 0.  0.
          5    1    5    5  501    0  0.49836142394E+02  0.44984966772E+02  0.22208005737E+03  0.23205372267E+03  0.47000000000E+01 0. -1.
        -13    1    6    6    0    0 -0.28838176386E+02  0.50516622986E+01  0.52725436783E+02  0.60308634483E+02  0.00000000000E+00 0.  1.
         14    1    6    6    0    0 -0.30472528337E+02  0.23984229216E+02 -0.11516941247E+01  0.38796193547E+02  0.00000000000E+00 0. -1.
         -5    1    3    3    0  503  0.26657307092E+02  0.37228830301E+02  0.43969672276E+02  0.63655478217E+02  0.47000000000E+01 0.  1.
         13    1    4    4    0    0 -0.25017741565E+02 -0.32260127260E+02  0.18151003544E+03  0.18604433925E+03  0.00000000000E+00 0. -1.
        -14    1    4    4    0    0  0.78349968023E+01 -0.78989561328E+02  0.10272474129E+03  0.12981953030E+03  0.00000000000E+00 0.  1.
</event>
<event>
12    1  0.1597826E-001  0.2076960E+03  0.7818608E-02  0.1143704E+00
         21   -1    0    0  503  502  0.00000000000E+00  0.00000000000E+00  0.79068432118E+02  0.79068432118E+02  0.00000000000E+00 0. -1.
         21   -1    0    0  501  503 -0.00000000000E+00 -0.00000000000E+00 -0.55728988483E+03  0.55728988483E+03  0.00000000000E+00 0.  1.
          6    2    1    2  501    0  0.89580244758E+01 -0.11271010857E+03 -0.18500243953E+03  0.27703253434E+03  0.17244508598E+03 0.  0.
         24    2    3    3    0    0  0.21540369233E+02 -0.14693976180E+03 -0.15459204460E+03  0.22931601017E+03  0.81436178452E+02 0.  0.
         -6    2    1    2    0  502 -0.89580244758E+01  0.11271010857E+03 -0.29321901318E+03  0.35932578261E+03  0.17422345875E+03 0.  0.
        -24    2    5    5    0    0  0.33012546239E+02  0.11426291462E+03 -0.28239162864E+03  0.31569938843E+03  0.75994934448E+02 0.  0.
          5    1    3    3  501    0 -0.12582344757E+02  0.34229653231E+02 -0.30410394928E+02  0.47716524177E+02  0.47000000000E+01 0. -1.
        -13    1    4    4    0    0  0.24899891386E+02 -0.99385586405E+02 -0.49230669532E+02  0.11367127253E+03  0.00000000000E+00 0.  1.
         14    1    4    4    0    0 -0.33595221536E+01 -0.47554175392E+02 -0.10536137507E+03  0.11564473764E+03  0.00000000000E+00 0. -1.
         -5    1    5    5    0  502 -0.41970570715E+02 -0.15528060555E+01 -0.10827384542E+02  0.43626394176E+02  0.47000000000E+01 0.  1.
         11    1    6    6    0    0 -0.15684907632E+02  0.21982851051E+02 -0.20864298036E+02  0.34125957866E+02  0.00000000000E+00 0. -1.
        -12    1    6    6    0    0  0.48697453871E+02  0.92280063571E+02 -0.26152733061E+03  0.28157343057E+03  0.00000000000E+00 0.  1.
</event>
<event>
12    1  0.1597826E-001  0.1951908E+03  0.7818608E-02  0.1154213E+00
         21   -1    0    0  503  502  0.00000000000E+00  0.00000000000E+00  0.48588948163E+02  0.48588948163E+02  0.00000000000E+00 0.  1.
         21   -1    0    0  501  503 -0.00000000000E+00 -0.00000000000E+00 -0.89658915594E+03  0.89658915594E+03  0.00000000000E+00 0.  1.
          6    2    1    2  501    0  0.87858240257E+02 -0.33315802886E+02 -0.59458907545E+03  0.62530837771E+03  0.16924947706E+03 0.  0.
         24    2    3    3    0    0  0.13388692823E+01 -0.46993297502E+02 -0.41109132603E+03  0.42192158007E+03  0.82532289478E+02 0.  0.
         -6    2    1    2    0  502 -0.87858240257E+02  0.33315802886E+02 -0.25341113232E+03  0.31986972639E+03  0.17108602156E+03 0.  0.
        -24    2    5    5    0    0 -0.66906791557E+02  0.15991675378E+02 -0.26867493557E+03  0.28833938725E+03  0.78874132655E+02 0.  0.
          5    1    3    3  501    0  0.86519370975E+02  0.13677494616E+02 -0.18349774942E+03  0.20338679764E+03  0.47000000000E+01 0. -1.
        -13    1    4    4    0    0  0.39151479261E+02 -0.68488433365E+01 -0.18121478141E+03  0.18552234901E+03  0.00000000000E+00 0.  1.
         14    1    4    4    0    0 -0.37812609979E+02 -0.40144454166E+02 -0.22987654463E+03  0.23639923105E+03  0.00000000000E+00 0. -1.
         -5    1    5    5    0  502 -0.20951448700E+02  0.17324127508E+02  0.15263803246E+02  0.31530339137E+02  0.47000000000E+01 0.  1.
         11    1    6    6    0    0 -0.22963134507E+02 -0.31253895989E+02 -0.12412040523E+03  0.13003840416E+03  0.00000000000E+00 0. -1.
        -12    1    6    6    0    0 -0.43943657050E+02  0.47245571368E+02 -0.14455453033E+03  0.15830098309E+03  0.00000000000E+00 0.  1.
</event>
<event>
12    1  0.1597826E-001  0.3022027E+03  0.7818608E-02  0.1084176E+00
         21   -1    0    0  503  502  0.00000000000E+00  0.00000000000E+00  0.18178627391E+03  0.18178627391E+03  0.00000000000E+00 0. -1.
         21   -1    0    0  501  503 -0.00000000000E+00 -0.00000000000E+00 -0.50289504585E+03  0.50289504585E+03  0.00000000000E+00 0.  1.
          6    2    1    2  501    0  0.19972674216E+03  0.14707559824E+03 -0.14579060485E+03  0.33530625887E+03  0.17220157853E+03 0.  0.
         24    2    3    3    0    0  0.73879761731E+02  0.20045943320E+01 -0.66869082542E+02  0.12761958299E+03  0.79705998331E+02 0.  0.
         -6    2    1    2    0  502 -0.19972674216E+03 -0.14707559824E+03 -0.17531816709E+03  0.34937506089E+03  0.17263971248E+03 0.  0.
        -24    2    5    5    0    0 -0.19269743939E+03 -0.11137131076E+03 -0.82310487916E+02  0.24939143409E+03  0.76715050466E+02 0.  0.
          5    1    3    3  501    0  0.12584698042E+03  0.14507100391E+03 -0.78921522311E+02  0.20768667589E+03  0.47000000000E+01 0. -1.
        -13    1    4    4    0    0  0.76657034786E+02  0.16407154179E+02 -0.76928299740E+02  0.10983377892E+03  0.00000000000E+00 0.  1.
         14    1    4    4    0    0 -0.27772730541E+01 -0.14402559847E+02  0.10059217198E+02  0.17785804070E+02  0.00000000000E+00 0. -1.
         -5    1    5    5    0  502 -0.70293027701E+01 -0.35704287479E+02 -0.93007679178E+02  0.99983626799E+02  0.47000000000E+01 0.  1.
         11    1    6    6    0    0 -0.16298583488E+00 -0.79472656649E+01 -0.20918935763E+02  0.22378281199E+02  0.00000000000E+00 0. -1.
        -12    1    6    6    0    0 -0.19253445355E+03 -0.10342404510E+03 -0.61391552153E+02  0.22701315289E+03  0.00000000000E+00 0.  1.
</event>
<event>
12    1  0.1597826E-001  0.1747035E+03  0.7818608E-02  0.1173360E+00
         21   -1    0    0  501  502  0.00000000000E+00  0.00000000000E+00  0.21514573808E+03  0.21514573808E+03  0.00000000000E+00 0.  1.
         21   -1    0    0  502  503 -0.00000000000E+00 -0.00000000000E+00 -0.14156388419E+03  0.14156388419E+03  0.00000000000E+00 0.  1.
         -6    2    1    2    0  503 -0.30167966240E+02 -0.35665076387E+01  0.23593959882E+02  0.17499528287E+03  0.17071569325E+03 0.  0.
        -24    2    3    3    0    0 -0.76919563211E+02  0.96836896051E+01  0.47529667972E+02  0.12062352855E+03  0.79250067843E+02 0.  0.
          6    2    1    2  501    0  0.30167966240E+02  0.35665076387E+01  0.49987894012E+02  0.18171433940E+03  0.17204210366E+03 0.  0.
         24    2    5    5    0    0  0.50989309582E+02  0.47123878370E+01 -0.29571379546E+02  0.99333459406E+02  0.79815746432E+02 0.  0.
          5    1    5    5  501    0 -0.20821343342E+02 -0.11458801983E+01  0.79559273558E+02  0.82380879997E+02  0.47000000000E+01 0. -1.
        -11    1    6    6    0    0  0.79988120315E-02 -0.28122103360E+02  0.63808623106E+01  0.28836923643E+02  0.00000000000E+00 0.  1.
         12    1    6    6    0    0  0.50981310770E+02  0.32834491197E+02 -0.35952241857E+02  0.70496535763E+02  0.00000000000E+00 0. -1.
         -5    1    3    3    0  503  0.46751596971E+02 -0.13250197244E+02 -0.23935708090E+02  0.54371754323E+02  0.47000000000E+01 0.  1.
         11    1    4    4    0    0  0.11298906439E+02  0.88815129344E+01  0.26163654165E+02  0.29851019380E+02  0.00000000000E+00 0. -1.
        -12    1    4    4    0    0 -0.88218469650E+02  0.80217667062E+00  0.21366013807E+02  0.90772509169E+02  0.00000000000E+00 0.  1.
</event>
<event>
12    1  0.1597826E-001  0.1937893E+03  0.7818608E-02  0.1155287E+00
         21   -1    0    0  501  502  0.00000000000E+00  0.00000000000E+00  0.92314051399E+02  0.92314051399E+02  0.00000000000E+00 0.  1.
         21   -1    0    0  502  503 -0.00000000000E+00 -0.00000000000E+00 -0.41557555579E+03  0.41557555579E+03  0.00000000000E+00 0.  1.
         -6    2    1    2    0  503  0.77265926976E+02 -0.42183126165E+02 -0.20267745431E+03  0.28041477176E+03  0.17264082405E+03 0.  0.
        -24    2    3    3    0    0  0.72159061646E+02 -0.42772037612E+02 -0.50153107026E+02  0.12773146093E+03  0.82241197631E+02 0.  0.
          6    2    1    2  501    0 -0.77265926976E+02  0.42183126165E+02 -0.12058405008E+03  0.22747483543E+03  0.17162414753E+03 0.  0.
         24    2    5    5    0    0  0.24846391888E+01  0.28482447096E+02 -0.29382199720E+01  0.84609539604E+02  0.79578375397E+02 0.  0.
          5    1    5    5  501    0 -0.79750566165E+02  0.13700679070E+02 -0.11764583010E+03  0.14286529583E+03  0.47000000000E+01 0. -1.
        -11    1    6    6    0    0 -0.33708297354E+02  0.66930888979E+01 -0.19171571535E+02  0.39352203301E+02  0.00000000000E+00 0.  1.
         12    1    6    6    0    0  0.36192936543E+02  0.21789358198E+02  0.16233351563E+02  0.45257336303E+02  0.00000000000E+00 0. -1.
         -5    1    3    3    0  503  0.51068653298E+01  0.58891144648E+00 -0.15252434728E+03  0.15268331083E+03  0.47000000000E+01 0.  1.
         11    1    4    4    0    0 -0.12377052834E+02  0.90540627527E+01  0.23775890069E+01  0.15518389694E+02  0.00000000000E+00 0. -1.
        -12    1    4    4    0    0  0.84536114481E+02 -0.51826100364E+02 -0.52530696033E+02  0.11221307124E+03  0.00000000000E+00 0.  1.
</event>
<event>
12    1  0.1597826E-001  0.2287113E+03  0.7818608E-02  0.1128199E+00
         21   -1    0    0  501  502  0.00000000000E+00  0.00000000000E+00  0.15908337323E+03  0.15908337323E+03  0.00000000000E+00 0. -1.
         21   -1    0    0  502  503 -0.00000000000E+00 -0.00000000000E+00 -0.33038327027E+03  0.33038327027E+03  0.00000000000E+00 0. -1.
         -6    2    1    2    0  503 -0.64887336914E+02 -0.12982216692E+03 -0.12000506895E+03  0.25507380783E+03  0.17203856937E+03 0.  0.
        -24    2    3    3    0    0  0.24796597533E+02 -0.69382673752E+02 -0.93029518741E+02  0.14351256571E+03  0.80700300462E+02 0.  0.
          6    2    1    2  501    0  0.64887336914E+02  0.12982216692E+03 -0.51294828085E+02  0.23439283567E+03  0.17676164886E+03 0.  0.
         24    2    5    5    0    0 -0.12416390166E+02  0.17910321665E+02  0.13265916703E+02  0.83759814401E+02  0.79779543716E+02 0.  0.
          5    1    5    5  501    0  0.77303727080E+02  0.11191184525E+03 -0.64560744788E+02  0.15063302127E+03  0.47000000000E+01 0. -1.
        -11    1    6    6    0    0  0.56153377277E+01 -0.12621929570E+02 -0.26864179451E+02  0.30208099269E+02  0.00000000000E+00 0.  1.
         12    1    6    6    0    0 -0.18031727893E+02  0.30532251234E+02  0.40130096154E+02  0.53551715132E+02  0.00000000000E+00 0. -1.
         -5    1    3    3    0  503 -0.89683934447E+02 -0.60439493167E+02 -0.26975550210E+02  0.11156124211E+03  0.47000000000E+01 0.  1.
         11    1    4    4    0    0 -0.26410152042E+02 -0.45326328987E+02 -0.49529402075E+02  0.72146613921E+02  0.00000000000E+00 0. -1.
        -12    1    4    4    0    0  0.51206749575E+02 -0.24056344765E+02 -0.43500116666E+02  0.71365951794E+02  0.00000000000E+00 0.  1.
</event>
<event>
12    1  0.1597826E-001  0.2154883E+03  0.7818608E-02  0.1138347E+00
         21   -1    0    0  503  502  0.00000000000E+00  0.00000000000E+00  0.68930087394E+03  0.68930087394E+03  0.00000000000E+00 0.  1.
         21   -1    0    0  501  503 -0.00000000000E+00 -0.00000000000E+00 -0.16445351548E+03  0.16445351548E+03  0.00000000000E+00 0.  1.
          6    2    1    2  501    0  0.60159821893E+02  0.11335789872E+03 -0.67058719242E+02  0.22568136840E+03  0.17310687694E+03 0.  0.
         24    2    3    3    0    0  0.14450204627E+02  0.58467461823E+00  0.14071664467E+02  0.79355026458E+02  0.76746714752E+02 0.  0.
         -6    2    1    2    0  502 -0.60159821893E+02 -0.11335789872E+03  0.59190607770E+03  0.62807302102E+03  0.16629400936E+03 0.  0.
        -24    2    5    5    0    0 -0.70602056570E+01 -0.25763692113E+02  0.14535303160E+03  0.16989835209E+03  0.83811287493E+02 0.  0.
          5    1    3    3  501    0  0.45709617265E+02  0.11277322410E+03 -0.81130383708E+02  0.14632634194E+03  0.47000000000E+01 0. -1.
        -11    1    4    4    0    0 -0.39808527087E+01  0.35844453629E+02  0.16147073041E+02  0.39514554433E+02  0.00000000000E+00 0.  1.
         12    1    4    4    0    0  0.18431057336E+02 -0.35259779011E+02 -0.20754085744E+01  0.39840472025E+02  0.00000000000E+00 0. -1.
         -5    1    5    5    0  502 -0.53099616236E+02 -0.87594206607E+02  0.44655304609E+03  0.45817466893E+03  0.47000000000E+01 0.  1.
         11    1    6    6    0    0 -0.43533681933E+02 -0.20487101582E+02  0.10347388116E+03  0.11411286902E+03  0.00000000000E+00 0. -1.
        -12    1    6    6    0    0  0.36473476276E+02 -0.52765905318E+01  0.41879150444E+02  0.55785483069E+02  0.00000000000E+00 0.  1.
</event>
<event>
12    1  0.1597826E-001  0.1935539E+03  0.7818608E-02  0.1156931E+00
         21   -1    0    0  501  502  0.00000000000E+00  0.00000000000E+00  0.69623184912E+03  0.69623184912E+03  0.00000000000E+00 0.  1.
         21   -1    0    0  502  503 -0.00000000000E+00 -0.00000000000E+00 -0.52109727799E+02  0.52109727799E+02  0.00000000000E+00 0.  1.
         -6    2    1    2    0  503  0.68281056438E+02 -0.25652241944E+02  0.29947246660E+03  0.35657659372E+03  0.17928404489E+03 0.  0.
        -24    2    3    3    0    0  0.11378087175E+03  0.98370872613E+00  0.24203827515E+03  0.27847100232E+03  0.77566217097E+02 0.  0.
          6    2    1    2  501    0 -0.68281056438E+02  0.25652241944E+02  0.34464965472E+03  0.39176498319E+03  0.17139450801E+03 0.  0.
         24    2    5    5    0    0 -0.63648502135E+02  0.77826452672E+02  0.27696588104E+03  0.30605155342E+03  0.82760893735E+02 0.  0.
          5    1    5    5  501    0 -0.46325543029E+01 -0.52174210728E+02  0.67683773674E+02  0.85713429771E+02  0.47000000000E+01 0. -1.
        -11    1    6    6    0    0 -0.72176618337E+01  0.28568217013E+01 -0.47628442015E+01  0.91071816423E+01  0.00000000000E+00 0.  1.
         12    1    6    6    0    0 -0.56430840302E+02  0.74969630971E+02  0.28172872524E+03  0.29694437178E+03  0.00000000000E+00 0. -1.
         -5    1    3    3    0  503 -0.45499815308E+02 -0.26635950671E+02  0.57434191450E+02  0.78105591405E+02  0.47000000000E+01 0.  1.
         11    1    4    4    0    0 -0.50076120659E+01 -0.12999897979E+02  0.52758958325E+02  0.54567217352E+02  0.00000000000E+00 0. -1.
        -12    1    4    4    0    0  0.11878848381E+03  0.13983606705E+02  0.18927931683E+03  0.22390378497E+03  0.00000000000E+00 0.  1.
</event>
<event>
12    1  0.1597826E-001  0.2578484E+03  0.7818608E-02  0.1109006E+00
         21   -1    0    0  503  502  0.00000000000E+00  0.00000000000E+00  0.41150241158E+03  0.41150241158E+03  0.00000000000E+00 0. -1.
         21   -1    0    0  501  503 -0.00000000000E+00 -0.00000000000E+00 -0.22411773924E+03  0.22411773924E+03  0.00000000000E+00 0.  1.
          6    2    1    2  501    0  0.18360479712E+03  0.43682957247E+02 -0.76776988561E+02  0.26903627489E+03  0.17568975199E+03 0.  0.
         24    2    3    3    0    0  0.13772270829E+03 -0.25611131646E+02 -0.91901688944E+02  0.18443318161E+03  0.77111630804E+02 0.  0.
         -6    2    1    2    0  502 -0.18360479712E+03 -0.43682957247E+02  0.26416166090E+03  0.36658387592E+03  0.17024521349E+03 0.  0.
        -24    2    5    5    0    0 -0.11703173898E+03  0.27673061827E+02  0.11797592004E+03  0.19075437226E+03  0.89480090222E+02 0.  0.
          5    1    3    3  501    0  0.45882088835E+02  0.69294088892E+02  0.15124700383E+02  0.84603093283E+02  0.47000000000E+01 0. -1.
        -11    1    4    4    0    0  0.87277597042E+01 -0.80543179585E+01  0.12732434930E+02  0.17411511321E+02  0.00000000000E+00 0.  1.
         12    1    4    4    0    0  0.12899494858E+03 -0.17556813687E+02 -0.10463412387E+03  0.16702167029E+03  0.00000000000E+00 0. -1.
         -5    1    5    5    0  502 -0.66573058145E+02 -0.71356019074E+02  0.14618574086E+03  0.17582950367E+03  0.47000000000E+01 0.  1.
         11    1    6    6    0    0 -0.81809109581E+02 -0.14435373134E+02  0.10581038031E+03  0.13452489357E+03  0.00000000000E+00 0. -1.
        -12    1    6    6    0    0 -0.35222629399E+02  0.42108434961E+02  0.12165539729E+02  0.56229478688E+02  0.00000000000E+00 0.  1.
</event>
<event>
12    1  0.1597826E-001  0.1873097E+03  0.7818608E-02  0.1162152E+00
         21   -1    0    0  501  502  0.00000000000E+00  0.00000000000E+00  0.83319690468E+03  0.83319690468E+03  0.00000000000E+00 0. -1.
         21   -1    0    0  502  503 -0.00000000000E+00 -0.00000000000E+00 -0.56780367854E+02  0.56780367854E+02  0.00000000000E+00 0. -1.
         -6    2    1    2    0  503 -0.39158784482E+02  0.64400113189E+02  0.14901452125E+03  0.23521149850E+03  0.16564521274E+03 0.  0.
        -24    2    3    3    0    0 -0.54311822069E+02  0.10144186164E+03  0.12511698034E+03  0.18836186522E+03  0.81152376390E+02 0.  0.
          6    2    1    2  501    0  0.39158784482E+02 -0.64400113189E+02  0.62740201557E+03  0.65476577403E+03  0.17147636781E+03 0.  0.
         24    2    5    5    0    0  0.88921505281E+02 -0.66707646783E+02  0.46112050394E+03  0.48111876368E+03  0.80536956559E+02 0.  0.
          5    1    5    5  501    0 -0.49762720799E+02  0.23075335948E+01  0.16628151163E+03  0.17364701035E+03  0.47000000000E+01 0. -1.
        -11    1    6    6    0    0  0.63896057955E+02 -0.20042320704E+02  0.13466185026E+03  0.15039353296E+03  0.00000000000E+00 0.  1.
         12    1    6    6    0    0  0.25025447326E+02 -0.46665326080E+02  0.32645865368E+03  0.33072523072E+03  0.00000000000E+00 0. -1.
         -5    1    3    3    0  503  0.15153037587E+02 -0.37041748449E+02  0.23897540917E+02  0.46849633277E+02  0.47000000000E+01 0.  1.
         13    1    4    4    0    0 -0.26138154606E+02  0.35767050415E+02  0.29418924469E-01  0.44299953579E+02  0.00000000000E+00 0. -1.
        -14    1    4    4    0    0 -0.28173667463E+02  0.65674811223E+02  0.12508756141E+03  0.14406191165E+03  0.00000000000E+00 0.  1.
</event>
<event>
12    1  0.1597826E-001  0.1804560E+03  0.7818608E-02  0.1167570E+00
         21   -1    0    0  501  502  0.00000000000E+00  0.00000000000E+00  0.29167025147E+03  0.29167025147E+03  0.00000000000E+00 0. -1.
         21   -1    0    0  502  503 -0.00000000000E+00 -0.00000000000E+00 -0.11254574048E+03  0.11254574048E+03  0.00000000000E+00 0. -1.
         -6    2    1    2    0  503 -0.56131828495E+02  0.97694163985E+01  0.66997458540E+02  0.19249164922E+03  0.17122544175E+03 0.  0.
        -24    2    3    3    0    0 -0.51939999960E+02 -0.20186567151E+02 -0.21786783343E+02  0.98578583129E+02  0.78344189536E+02 0.  0.
          6    2    1    2  501    0  0.56131828495E+02 -0.97694163985E+01  0.11212705245E+03  0.21172434273E+03  0.17031881207E+03 0.  0.
         24    2    5    5    0    0  0.56302517635E+02  0.53569678748E+02  0.47942521104E+02  0.12142697747E+03  0.80039624901E+02 0.  0.
          5    1    5    5  501    0 -0.17068913970E+00 -0.63339095146E+02  0.64184531341E+02  0.90297365256E+02  0.47000000000E+01 0. -1.
        -13    1    6    6    0    0  0.59639250571E+02  0.95198368724E+01  0.63074122143E+01  0.60722738341E+02  0.00000000000E+00 0.  1.
         14    1    6    6    0    0 -0.33367329361E+01  0.44049841875E+02  0.41635108890E+02  0.60704239128E+02  0.00000000000E+00 0. -1.
         -5    1    3    3    0  503 -0.41918285354E+01  0.29955983549E+02  0.88784241882E+02  0.93913066096E+02  0.47000000000E+01 0.  1.
         11    1    4    4    0    0 -0.17950788436E+02 -0.48456956444E+02 -0.81507628432E+01  0.52313883131E+02  0.00000000000E+00 0. -1.
        -12    1    4    4    0    0 -0.33989211523E+02  0.28270389294E+02 -0.13636020499E+02  0.46264699998E+02  0.00000000000E+00 0.  1.
</event>
<event>
12    1  0.1597826E-001  0.2197841E+03  0.7818608E-02  0.1134058E+00
         21   -1    0    0  501  502  0.00000000000E+00  0.00000000000E+00  0.10849720704E+04  0.10849720704E+04  0.00000000000E+00 0. -1.
         21   -1    0    0  502  503 -0.00000000000E+00 -0.00000000000E+00 -0.44763425239E+02  0.44763425239E+02  0.00000000000E+00 0.  1.
         -6    2    1    2    0  503 -0.93323012433E+01 -0.13563805342E+03  0.47721617895E+03  0.52536345811E+03  0.17258826230E+03 0.  0.
        -24    2    3    3    0    0 -0.19109285511E+02 -0.69239466511E+01  0.12084705582E+03  0.14630679662E+03  0.79928480565E+02 0.  0.
          6    2    1    2  501    0  0.93323012433E+01  0.13563805342E+03  0.56299246619E+03  0.60437203751E+03  0.17268546365E+03 0.  0.
         24    2    5    5    0    0  0.41340404502E+02  0.67927582766E+02  0.16860900623E+03  0.20291266222E+03  0.80133426022E+02 0.  0.
          5    1    5    5  501    0 -0.32008103259E+02  0.67710470654E+02  0.39438345997E+03  0.40145937529E+03  0.47000000000E+01 0. -1.
        -13    1    6    6    0    0 -0.17972784473E+02  0.40418609195E+02  0.92802564496E+02  0.10280564638E+03  0.00000000000E+00 0.  1.
         14    1    6    6    0    0  0.59313188975E+02  0.27508973572E+02  0.75806441729E+02  0.10010701584E+03  0.00000000000E+00 0. -1.
         -5    1    3    3    0  503  0.97769842678E+01 -0.12871410677E+03  0.35636912313E+03  0.37905666150E+03  0.47000000000E+01 0.  1.
         11    1    4    4    0    0 -0.46362123283E+02 -0.95675142762E+01  0.10371542316E+03  0.11400821377E+03  0.00000000000E+00 0. -1.
        -12    1    4    4    0    0  0.27252837772E+02  0.26435676251E+01  0.17131632657E+02  0.32298582847E+02  0.00000000000E+00 0.  1.
</event>
<event>
12    1  0.1597826E-001  0.2060544E+03  0.7818608E-02  0.1145040E+00
         21   -1    0    0  503  502  0.00000000000E+00  0.00000000000E+00  0.93715219579E+02  0.93715219579E+02  0.00000000000E+00 0.  1.
         21   -1    0    0  501  503 -0.00000000000E+00 -0.00000000000E+00 -0.45227950644E+03  0.45227950644E+03  0.00000000000E+00 0.  1.
          6    2    1    2  501    0  0.63169840098E+01  0.11576463299E+03 -0.20051587480E+03  0.28751525569E+03  0.17034392173E+03 0.  0.
         24    2    3    3    0    0  0.61684558232E+02  0.37224095069E+02 -0.13726131437E+03  0.17237441243E+03  0.75376731550E+02 0.  0.
         -6    2    1    2    0  502 -0.63169840098E+01 -0.11576463299E+03 -0.15804841206E+03  0.25847947033E+03  0.16849623583E+03 0.  0.
        -24    2    5    5    0    0  0.78942798243E+01 -0.44294971953E+02 -0.16077323398E+03  0.18540836028E+03  0.80646531884E+02 0.  0.
          5    1    3    3  501    0 -0.55367574222E+02  0.78540537921E+02 -0.63254560429E+02  0.11514084326E+03  0.47000000000E+01 0. -1.
        -13    1    4    4    0    0  0.10798690010E+02  0.13667785562E+02  0.60847782409E+01  0.18451140733E+02  0.00000000000E+00 0.  1.
         14    1    4    4    0    0  0.50885868222E+02  0.23556309507E+02 -0.14334609261E+03  0.15392327170E+03  0.00000000000E+00 0. -1.
         -5    1    5    5    0  502 -0.14211263834E+02 -0.71469661037E+02  0.27248219184E+01  0.73071110043E+02  0.47000000000E+01 0.  1.
         13    1    6    6    0    0 -0.25219482600E+02 -0.39170998421E+02 -0.13594035132E+03  0.14370166504E+03  0.00000000000E+00 0. -1.
        -14    1    6    6    0    0  0.33113762425E+02 -0.51239735320E+01 -0.24832882664E+02  0.41706695243E+02  0.00000000000E+00 0.  1.
</event>
<event>
12    1  0.1597826E-001  0.1757761E+03  0.7818608E-02  0.1172135E+00
         21   -1    0    0  503  502  0.00000000000E+00  0.00000000000E+00  0.12468932518E+04  0.12468932518E+04  0.00000000000E+00 0.  1.
         21   -1    0    0  501  503 -0.00000000000E+00 -0.00000000000E+00 -0.26802089269E+02  0.26802089269E+02  0.00000000000E+00 0.  1.
          6    2    1    2  501    0  0.31338767419E+02 -0.12990374814E+02  0.78818773864E+03  0.80739305565E+03  0.17173458241E+03 0.  0.
         24    2    3    3    0    0 -0.78916574891E+01 -0.65688074575E+02  0.57618639874E+03  0.58539591171E+03  0.79500980868E+02 0.  0.
         -6    2    1    2    0  502 -0.31338767419E+02  0.12990374814E+02  0.43190342390E+03  0.46630228542E+03  0.17247140526E+03 0.  0.
        -24    2    5    5    0    0 -0.65942309205E+02 -0.39795922185E+02  0.31371286485E+03  0.33223179462E+03  0.77653719934E+02 0.  0.
          5    1    3    3  501    0  0.39230424908E+02  0.52697699761E+02  0.21200133990E+03  0.22199714394E+03  0.47000000000E+01 0. -1.
        -11    1    4    4    0    0 -0.26354398861E+02 -0.37095639727E+02  0.12671591050E+03  0.13463863784E+03  0.00000000000E+00 0.  1.
         12    1    4    4    0    0  0.18462741372E+02 -0.28592434848E+02  0.44947048824E+03  0.45075727388E+03  0.00000000000E+00 0. -1.
         -5    1    5    5    0  502  0.34603541786E+02  0.52786296999E+02  0.11819055905E+03  0.13407049080E+03  0.47000000000E+01 0.  1.
         13    1    6    6    0    0 -0.63608306022E+01 -0.36794479509E+02  0.53333988761E+02  0.65106130629E+02  0.00000000000E+00 0. -1.
        -14    1    6    6    0    0 -0.59581478602E+02 -0.30014426760E+01  0.26037887609E+03  0.26712566399E+03  0.00000000000E+00 0.  1.
</event>
<event>
12    1  0.1597826E-001  0.2675458E+03  0.7818608E-02  0.1102784E+00
         21   -1    0    0  503  502  0.00000000000E+00  0.00000000000E+00  0.38976117400E+03  0.38976117400E+03  0.00000000000E+00 0. -1.
         21   -1    0    0  501  503 -0.00000000000E+00 -0.00000000000E+00 -0.18338009890E+03  0.18338009890E+03  0.00000000000E+00 0. -1.
          6    2    1    2  501    0 -0.96329640821E+02  0.17672251333E+03  0.94611354889E+02  0.28318743725E+03  0.17530992478E+03 0.  0.
         24    2    3    3    0    0 -0.26836337893E+02  0.43562056513E+02  0.85927519612E+02  0.13265994672E+03  0.87162383153E+02 0.  0.
         -6    2    1    2    0  502  0.96329640821E+02 -0.17672251333E+03  0.11176972022E+03  0.28995383565E+03  0.17626828992E+03 0.  0.
        -24    2    5    5    0    0 -0.21470462432E+02 -0.83253067326E+02  0.48417486186E+02  0.12670862984E+03  0.79490690848E+02 0.  0.
          5    1    3    3  501    0 -0.69493302928E+02  0.13316045682E+03  0.86838352771E+01  0.15052749054E+03  0.47000000000E+01 0. -1.
        -11    1    4    4    0    0 -0.54470759057E+02  0.19014392921E+02  0.28460571807E+02  0.64332067261E+02  0.00000000000E+00 0.  1.
         12    1    4    4    0    0  0.27634421165E+02  0.24547663592E+02  0.57466947805E+02  0.68327879456E+02  0.00000000000E+00 0. -1.
         -5    1    5    5    0  502  0.11780010325E+03 -0.93469446004E+02  0.63352234031E+02  0.16324520581E+03  0.47000000000E+01 0.  1.
         13    1    6    6    0    0 -0.62757646468E+01 -0.86388921820E+02  0.61650711858E+02  0.10631670286E+03  0.00000000000E+00 0. -1.
        -14    1    6    6    0    0 -0.15194697785E+02  0.31358544939E+01 -0.13233225672E+02  0.20391926978E+02  0.00000000000E+00 0.  1.
</event>
<event>
12    1  0.1597826E-001  0.1752441E+03  0.7818608E-02  0.1172515E+00
         21   -1    0    0  503  502  0.00000000000E+00  0.00000000000E+00  0.28709789193E+03  0.28709789193E+03  0.00000000000E+00 0.  1.
         21   -1    0    0  501  503 -0.00000000000E+00 -0.00000000000E+00 -0.73211148016E+03  0.73211148016E+03  0.00000000000E+00 0.  1.
          6    2    1    2  501    0 -0.29924317057E+02 -0.14421719266E+02 -0.69342824620E+03  0.71520222292E+03  0.17195358763E+03 0.  0.
         24    2    3    3    0    0 -0.60137339145E+01 -0.89216046314E+01 -0.68384461016E+03  0.68844585308E+03  0.78730437259E+02 0.  0.
         -6    2    1    2    0  502  0.29924317057E+02  0.14421719266E+02  0.24841465797E+03  0.30400714917E+03  0.17206700356E+03 0.  0.
        -24    2    5    5    0    0  0.52768970049E+02 -0.40827538462E+02  0.20411347156E+03  0.22944815396E+03  0.80825082649E+02 0.  0.
          5    1    3    3  501    0 -0.23910583142E+02 -0.55001146350E+01 -0.95836360393E+01  0.26756369838E+02  0.47000000000E+01 0.  1.
        -11    1    4    4    0    0  0.34744792022E+02 -0.85607563089E+01 -0.22904894526E+03  0.23182732032E+03  0.00000000000E+00 0.  1.
         12    1    4    4    0    0 -0.40758525936E+02 -0.36084832256E+00 -0.45479566490E+03  0.45661853276E+03  0.00000000000E+00 0. -1.
         -5    1    5    5    0  502 -0.22844652993E+02  0.55249257728E+02  0.44301186412E+02  0.74558995215E+02  0.47000000000E+01 0.  1.
         11    1    6    6    0    0  0.20308090221E+02 -0.27662063075E+02  0.15578831797E+02  0.37686977355E+02  0.00000000000E+00 0. -1.
        -12    1    6    6    0    0  0.32460879828E+02 -0.13165475387E+02  0.18853463976E+03  0.19176117660E+03  0.00000000000E+00 0.  1.
</event>
<event>
12    1  0.1597826E-001  0.1881915E+03  0.7818608E-02  0.1162591E+00
         21   -1    0    0  503  502  0.00000000000E+00  0.00000000000E+00  0.82149140877E+03  0.82149140877E+03  0.00000000000E+00 0. -1.
         21   -1    0    0  501  503 -0.00000000000E+00 -0.00000000000E+00 -0.51996686631E+02  0.51996686631E+02  0.00000000000E+00 0. -1.
          6    2    1    2  501    0 -0.48131582145E+02 -0.62536235020E+01  0.17276201378E+03  0.24778371408E+03  0.17086339148E+03 0.  0.
         24    2    3    3    0    0  0.26042572416E+02  0.46739869227E+01  0.39983204838E+02  0.95227101702E+02  0.82276864899E+02 0.  0.
         -6    2    1    2    0  502  0.48131582145E+02  0.62536235020E+01  0.59673270836E+03  0.62570438132E+03  0.18182488988E+03 0.  0.
        -24    2    5    5    0    0  0.45556214455E+02  0.35011890632E+02  0.15559646581E+03  0.18359925250E+03  0.78722450317E+02 0.  0.
          5    1    3    3  501    0 -0.74174154562E+02 -0.10927610425E+02  0.13277880894E+03  0.15255661237E+03  0.47000000000E+01 0. -1.
        -13    1    4    4    0    0  0.39830579844E+01  0.23758200721E+02  0.56701555384E+02  0.61606681743E+02  0.00000000000E+00 0.  1.
         14    1    4    4    0    0  0.22059514432E+02 -0.19084213798E+02 -0.16718350546E+02  0.33620419959E+02  0.00000000000E+00 0. -1.
         -5    1    5    5    0  502  0.25753676906E+01 -0.28758267131E+02  0.44113624255E+03  0.44210512883E+03  0.47000000000E+01 0.  1.
         11    1    6    6    0    0  0.40846280620E+02  0.35615054159E+02  0.16467008505E+03  0.17335826382E+03  0.00000000000E+00 0. -1.
        -12    1    6    6    0    0  0.47099338351E+01 -0.60316352692E+00 -0.90736192419E+01  0.10240988679E+02  0.00000000000E+00 0.  1.
</event>
<event>
12    1  0.1597826E-001  0.1742618E+03  0.7818608E-02  0.1174026E+00
         21   -1    0    0  501  502  0.00000000000E+00  0.00000000000E+00  0.30285617738E+02  0.30285617738E+02  0.00000000000E+00 0. -1.
         21   -1    0    0  502  503 -0.00000000000E+00 -0.00000000000E+00 -0.10580627381E+04  0.10580627381E+04  0.00000000000E+00 0. -1.
         -6    2    1    2    0  503  0.20443036692E+02 -0.22357480504E+01 -0.37310533151E+03  0.41088076638E+03  0.17085812671E+03 0.  0.
        -24    2    3    3    0    0  0.17493375799E+02 -0.19757328857E+02 -0.74536065602E+02  0.11174634369E+03  0.78963599287E+02 0.  0.
          6    2    1    2  501    0 -0.20443036692E+02  0.22357480504E+01 -0.65467178885E+03  0.67746758945E+03  0.17304411960E+03 0.  0.
         24    2    5    5    0    0 -0.13035144144E+02 -0.40452846260E+02 -0.60436208322E+03  0.61090671929E+03  0.78403726250E+02 0.  0.
          5    1    5    5  501    0 -0.74078925475E+01  0.42688594310E+02 -0.50309705630E+02  0.66560870162E+02  0.47000000000E+01 0. -1.
        -13    1    6    6    0    0 -0.69965694683E+01 -0.56034369416E+02 -0.25645291406E+03  0.26259645784E+03  0.00000000000E+00 0.  1.
         14    1    6    6    0    0 -0.60385746758E+01  0.15581523156E+02 -0.34790916915E+03  0.34831026145E+03  0.00000000000E+00 0. -1.
         -5    1    3    3    0  503  0.29496608924E+01  0.17521580806E+02 -0.29856926591E+03  0.29913442269E+03  0.47000000000E+01 0.  1.
         13    1    4    4    0    0  0.35112728775E+02 -0.35166927120E+02 -0.72972406298E+02  0.88286967136E+02  0.00000000000E+00 0. -1.
        -14    1    4    4    0    0 -0.17619352976E+02  0.15409598264E+02 -0.15636593045E+01  0.23459376555E+02  0.00000000000E+00 0.  1.
</event>
<event>
12    1  0.1597826E-001  0.2610033E+03  0.7818608E-02  0.1106578E+00
         21   -1    0    0  501  502  0.00000000000E+00  0.00000000000E+00  0.28560781236E+03  0.28560781236E+03  0.00000000000E+00 0.  1.
         21   -1    0    0  502  503 -0.00000000000E+00 -0.00000000000E+00 -0.35526853586E+03  0.35526853586E+03  0.00000000000E+00 0. -1.
         -6    2    1    2    0  503  0.15271148347E+03 -0.12258346651E+03 -0.21868832797E+03  0.34032357590E+03  0.17218608562E+03 0.  0.
        -24    2    3    3    0    0  0.45161922399E+02 -0.49716827764E+02 -0.28576157733E+02  0.11001686215E+03  0.82314949847E+02 0.  0.
          6    2    1    2  501    0 -0.15271148347E+03  0.12258346651E+03  0.14902760448E+03  0.30055277232E+03  0.17255503067E+03 0.  0.
         24    2    5    5    0    0 -0.10653430587E+03  0.10190978078E+02  0.11012444669E+03  0.17288151920E+03  0.79417954912E+02 0.  0.
          5    1    5    5  501    0 -0.46177177601E+02  0.11239248843E+03  0.38903157786E+02  0.12767125312E+03  0.47000000000E+01 0. -1.
        -11    1    6    6    0    0 -0.11273269635E+03  0.25495968049E+02  0.10329832852E+03  0.15501370871E+03  0.00000000000E+00 0.  1.
         12    1    6    6    0    0  0.61983904806E+01 -0.15304989971E+02  0.68261181682E+01  0.17867810493E+02  0.00000000000E+00 0. -1.
         -5    1    3    3    0  503  0.10754956107E+03 -0.72866638743E+02 -0.19011217024E+03  0.23030671375E+03  0.47000000000E+01 0.  1.
         13    1    4    4    0    0 -0.20954320937E+02 -0.27728724209E+02 -0.12693836642E+00  0.34756032937E+02  0.00000000000E+00 0. -1.
        -14    1    4    4    0    0  0.66116243336E+02 -0.21988103555E+02 -0.28449219366E+02  0.75260829210E+02  0.00000000000E+00 0.  1.
</event>
<event>
12    1  0.1597826E-001  0.2734377E+03  0.7818608E-02  0.1099443E+00
         21   -1    0    0  501  502  0.00000000000E+00  0.00000000000E+00  0.56457114731E+03  0.56457114731E+03  0.00000000000E+00 0.  1.
         21   -1    0    0  502  503 -0.00000000000E+00 -0.00000000000E+00 -0.20395535361E+03  0.20395535361E+03  0.00000000000E+00 0.  1.
         -6    2    1    2    0  503 -0.16239041733E+03 -0.13693606448E+03 -0.48044147996E+02  0.27682424894E+03  0.17088385309E+03 0.  0.
        -24    2    3    3    0    0 -0.15917843374E+03 -0.75271801002E+02 -0.80281549826E+02  0.20700921972E+03  0.73512393594E+02 0.  0.
          6    2    1    2  501    0  0.16239041733E+03  0.13693606448E+03  0.40865994169E+03  0.49170225198E+03  0.17218020577E+03 0.  0.
         24    2    5    5    0    0  0.71577340031E+02  0.14178375555E+03  0.22344181979E+03  0.28530855586E+03  0.79049201584E+02 0.  0.
          5    1    5    5  501    0  0.90813077304E+02 -0.48476910693E+01  0.18521812190E+03  0.20639369612E+03  0.47000000000E+01 0. -1.
        -11    1    6    6    0    0  0.31152740612E+01  0.93635242389E+02  0.12046057294E+03  0.15260410605E+03  0.00000000000E+00 0.  1.
         12    1    6    6    0    0  0.68462065969E+02  0.48148513156E+02  0.10298124686E+03  0.13270444981E+03  0.00000000000E+00 0. -1.
         -5    1    3    3    0  503 -0.32119835984E+01 -0.61664263474E+02  0.32237401830E+02  0.69815029221E+02  0.47000000000E+01 0.  1.
         13    1    4    4    0    0 -0.77535721833E+02 -0.63819654013E+01 -0.60070236369E+02  0.98290136535E+02  0.00000000000E+00 0. -1.
        -14    1    4    4    0    0 -0.81642711903E+02 -0.68889835601E+02 -0.20211313457E+02  0.10871908318E+03  0.00000000000E+00 0.  1.
</event>
<event>
12    1  0.1597826E-001  0.1941033E+03  0.7818608E-02  0.1156455E+00
         21   -1    0    0  503  502  0.00000000000E+00  0.00000000000E+00  0.24554192603E+02  0.24554192603E+02  0.00000000000E+00 0. -1.
         21   -1    0    0  501  503 -0.00000000000E+00 -0.00000000000E+00 -0.15297294159E+04  0.15297294159E+04  0.00000000000E+00 0. -1.
          6    2    1    2  501    0 -0.80484463219E+02 -0.33854711491E+02 -0.91095878660E+03  0.93140860155E+03  0.17335565135E+03 0.  0.
         24    2    3    3    0    0 -0.52549933543E+01 -0.14387132363E+02 -0.72847689151E+03  0.73301456987E+03  0.79982333302E+02 0.  0.
         -6    2    1    2    0  502  0.80484463219E+02  0.33854711491E+02 -0.59421643668E+03  0.62287500694E+03  0.16509454967E+03 0.  0.
        -24    2    5    5    0    0  0.21060059135E+02  0.75532749558E+02 -0.32182380852E+03  0.34093857344E+03  0.80745431936E+02 0.  0.
          5    1    3    3  501    0 -0.75229469865E+02 -0.19467579128E+02 -0.18248189509E+03  0.19839403168E+03  0.47000000000E+01 0. -1.
        -11    1    4    4    0    0  0.74653119403E+01  0.29527404811E+02 -0.42766229300E+03  0.42874542024E+03  0.00000000000E+00 0.  1.
         12    1    4    4    0    0 -0.12720305295E+02 -0.43914537173E+02 -0.30081459851E+03  0.30426914963E+03  0.00000000000E+00 0. -1.
         -5    1    5    5    0  502  0.59424404084E+02 -0.41678038068E+02 -0.27239262816E+03  0.28193643350E+03  0.47000000000E+01 0.  1.
         13    1    6    6    0    0  0.40039801556E+02  0.52853532502E+02 -0.29004624563E+03  0.29752900062E+03  0.00000000000E+00 0. -1.
        -14    1    6    6    0    0 -0.18979742421E+02  0.22679217057E+02 -0.31777562893E+02  0.43409572816E+02  0.00000000000E+00 0.  1.
</event>
<event>
12    1  0.1597826E-001  0.1915797E+03  0.7818608E-02  0.1157305E+00
         21   -1    0    0  501  502  0.00000000000E+00  0.00000000000E+00  0.26779177321E+03  0.26779177321E+03  0.00000000000E+00 0. -1.
         21   -1    0    0  502  503 -0.00000000000E+00 -0.00000000000E+00 -0.15909320024E+03  0.15909320024E+03  0.00000000000E+00 0. -1.
         -6    2    1    2    0  503 -0.33173019125E+02 -0.76006191181E+02 -0.26717724353E+02  0.19227817322E+03  0.17140498477E+03 0.  0.
        -24    2    3    3    0    0 -0.68094878861E+01  0.26789740214E+01 -0.62453719223E+02  0.10180418617E+03  0.80062970534E+02 0.  0.
          6    2    1    2  501    0  0.33173019125E+02  0.76006191181E+02  0.13541629733E+03  0.23460680023E+03  0.17270028036E+03 0.  0.
         24    2    5    5    0    0  0.46711996214E+02  0.94341045354E+02  0.41713889790E+02  0.13805783878E+03  0.78978951751E+02 0.  0.
          5    1    5    5  501    0 -0.13538977088E+02 -0.18334854173E+02  0.93702407541E+02  0.96548961450E+02  0.47000000000E+01 0. -1.
        -11    1    6    6    0    0  0.18822901115E+02  0.10201593518E+01 -0.16102018780E+02  0.24791477170E+02  0.00000000000E+00 0.  1.
         12    1    6    6    0    0  0.27889095098E+02  0.93320886002E+02  0.57815908570E+02  0.11326636161E+03  0.00000000000E+00 0. -1.
         -5    1    3    3    0  503 -0.26363531239E+02 -0.78685165203E+02  0.35735994869E+02  0.90473987044E+02  0.47000000000E+01 0.  1.
         13    1    4    4    0    0  0.18311426053E+02 -0.30233149132E+02 -0.44094399727E+02  0.56512544782E+02  0.00000000000E+00 0. -1.
        -14    1    4    4    0    0 -0.25120913939E+02  0.32912123153E+02 -0.18359319496E+02  0.45291641392E+02  0.00000000000E+00 0.  1.
</event>
<event>
12    1  0.1597826E-001  0.2064393E+03  0.7818608E-02  0.1144589E+00
         21   -1    0    0  501  502  0.00000000000E+00  0.00000000000E+00  0.34273453066E+02  0.34273453066E+02  0.00000000000E+00 0.  1.
         21   -1    0    0  502  503 -0.00000000000E+00 -0.00000000000E+00 -0.12544713662E+04  0.12544713662E+04  0.00000000000E+00 0. -1.
         -6    2    1    2    0  503 -0.11182727948E+03  0.24012236952E+02 -0.68437872156E+03  0.71483662378E+03  0.17185818634E+03 0.  0.
        -24    2    3    3    0    0 -0.66194350034E+02  0.52062614342E+02 -0.62131248558E+03  0.63195943728E+03  0.79065275814E+02 0.  0.
          6    2    1    2  501    0  0.11182727948E+03 -0.24012236952E+02 -0.53581919153E+03  0.57390819544E+03  0.17084051868E+03 0.  0.
         24    2    5    5    0    0  0.12282305577E+03 -0.40265362298E+02 -0.53197002112E+03  0.55336610956E+03  0.80716450681E+02 0.  0.
          5    1    5    5  501    0 -0.10995776287E+02  0.16253125346E+02 -0.38491704144E+01  0.20542085886E+02  0.47000000000E+01 0. -1.
        -11    1    6    6    0    0  0.17276591597E+02 -0.14249073423E+02 -0.20136993424E+02  0.30116693291E+02  0.00000000000E+00 0.  1.
         12    1    6    6    0    0  0.10554646417E+03 -0.26016288875E+02 -0.51183302769E+03  0.52324941627E+03  0.00000000000E+00 0. -1.
         -5    1    3    3    0  503 -0.45632929446E+02 -0.28050377390E+02 -0.63066235977E+02  0.82877186498E+02  0.47000000000E+01 0.  1.
         11    1    4    4    0    0 -0.74026048084E+02  0.62827644737E+02 -0.46203453514E+03  0.47212612764E+03  0.00000000000E+00 0. -1.
        -12    1    4    4    0    0  0.78316980505E+01 -0.10765030395E+02 -0.15927795044E+03  0.15983330964E+03  0.00000000000E+00 0.  1.
</event>
<event>
12    1  0.1597826E-001  0.1852369E+03  0.7818608E-02  0.1163205E+00
         21   -1    0    0  501  502  0.00000000000E+00  0.00000000000E+00  0.10134835864E+03  0.10134835864E+03  0.00000000000E+00 0.  1.
         21   -1    0    0  502  503 -0.00000000000E+00 -0.00000000000E+00 -0.89665714872E+03  0.89665714872E+03  0.00000000000E+00 0. -1.
         -6    2    1    2    0  503 -0.27602496889E+01 -0.67622951371E+02 -0.79301468800E+03  0.81436171354E+03  0.17243034122E+03 0.  0.
        -24    2    3    3    0    0 -0.20943861590E+02 -0.15002716185E+02 -0.18023102020E+03  0.19903623348E+03  0.80426828635E+02 0.  0.
          6    2    1    2  501    0  0.27602496889E+01  0.67622951371E+02 -0.22941020886E+01  0.18364379382E+03  0.17070236546E+03 0.  0.
         24    2    5    5    0    0 -0.42394096351E+02  0.80877066462E+02  0.35006347950E+02  0.12341091155E+03  0.75275822208E+02 0.  0.
          5    1    5    5  501    0  0.45154346040E+02 -0.13254115091E+02 -0.37300450038E+02  0.60232882267E+02  0.47000000000E+01 0. -1.
        -13    1    6    6    0    0  0.40504743242E+01 -0.12939256536E+02  0.56563405102E+01  0.14690979883E+02  0.00000000000E+00 0.  1.
         14    1    6    6    0    0 -0.46444570675E+02  0.93816322998E+02  0.29350007439E+02  0.10871993167E+03  0.00000000000E+00 0. -1.
         -5    1    3    3    0  503  0.18183611902E+02 -0.52620235186E+02 -0.61278366780E+03  0.61532548006E+03  0.47000000000E+01 0.  1.
         13    1    4    4    0    0  0.22031868442E+02  0.19293187229E+02 -0.69010725394E+02  0.74967396379E+02  0.00000000000E+00 0. -1.
        -14    1    4    4    0    0 -0.42975730032E+02 -0.34295903414E+02 -0.11122029480E+03  0.12406883710E+03  0.00000000000E+00 0.  1.
</event>
<event>
12    1  0.1597826E-001  0.1965554E+03  0.7818608E-02  0.1152980E+00
         21   -1    0    0  501  502  0.00000000000E+00  0.00000000000E+00  0.46081838246E+03  0.46081838246E+03  0.00000000000E+00 0. -1.
         21   -1    0    0  502  503 -0.00000000000E+00 -0.00000000000E+00 -0.83258400079E+02  0.83258400079E+02  0.00000000000E+00 0. -1.
         -6    2    1    2    0  503 -0.92408699093E+02  0.96540274112E+01  0.19165924451E+03  0.27353450602E+03  0.17162544118E+03 0.  0.
        -24    2    3    3    0    0 -0.76349851614E+02 -0.26095316303E+02  0.44237678936E+02  0.12092025322E+03  0.78450430387E+02 0.  0.
          6    2    1    2  501    0  0.92408699093E+02 -0.96540274112E+01  0.18590073787E+03  0.27054227653E+03  0.17320932750E+03 0.  0.
         24    2    5    5    0    0  0.31500405871E+01  0.42414505479E+02  0.10859742940E+03  0.14140617880E+03  0.79958693706E+02 0.  0.
          5    1    5    5  501    0  0.89258658506E+02 -0.52068532890E+02  0.77303308469E+02  0.12913609773E+03  0.47000000000E+01 0. -1.
        -11    1    6    6    0    0  0.28368227438E+02  0.28567540407E+02  0.10494883937E+03  0.11240604778E+03  0.00000000000E+00 0.  1.
         12    1    6    6    0    0 -0.25218186851E+02  0.13846965072E+02  0.36485900315E+01  0.29000131016E+02  0.00000000000E+00 0. -1.
         -5    1    3    3    0  503 -0.16058847479E+02  0.35749343714E+02  0.14742156558E+03  0.15261425279E+03  0.47000000000E+01 0.  1.
         11    1    4    4    0    0  0.13478982303E+02 -0.62247488521E+01  0.21540520473E+02  0.26161507687E+02  0.00000000000E+00 0. -1.
        -12    1    4    4    0    0 -0.89828833917E+02 -0.19870567451E+02  0.22697158463E+02  0.94758745538E+02  0.00000000000E+00 0.  1.
</event>
<event>
12    1  0.1597826E-001  0.2053805E+03  0.7818608E-02  0.1145499E+00
         21   -1    0    0  501  502  0.00000000000E+00  0.00000000000E+00  0.65518721860E+02  0.65518721860E+02  0.00000000000E+00 0.  1.
         21   -1    0    0  502  503 -0.00000000000E+00 -0.00000000000E+00 -0.75790221953E+03  0.75790221953E+03  0.00000000000E+00 0.  1.
         -6    2    1    2    0  503 -0.49338959164E+02 -0.98128707485E+02 -0.50906602613E+03  0.54893474655E+03  0.17354411800E+03 0.  0.
        -24    2    3    3    0    0 -0.61549998480E+02 -0.75715321114E+02 -0.18265432697E+03  0.22149290940E+03  0.78583036280E+02 0.  0.
          6    2    1    2  501    0  0.49338959164E+02  0.98128707485E+02 -0.18331747155E+03  0.27448619484E+03  0.17226084772E+03 0.  0.
         24    2    5    5    0    0  0.70921374624E+02  0.15112657570E+02 -0.14449069925E+03  0.18021491900E+03  0.79634295779E+02 0.  0.
          5    1    5    5  501    0 -0.21582415460E+02  0.83016049915E+02 -0.38826772294E+02  0.94271275834E+02  0.47000000000E+01 0. -1.
        -11    1    6    6    0    0  0.18179978393E+02  0.27529834284E+02 -0.88573260222E+01  0.34159268352E+02  0.00000000000E+00 0.  1.
         12    1    6    6    0    0  0.52741396231E+02 -0.12417176714E+02 -0.13563337323E+03  0.14605565065E+03  0.00000000000E+00 0. -1.
         -5    1    3    3    0  503  0.12211039316E+02 -0.22413386371E+02 -0.32641169916E+03  0.32744183715E+03  0.47000000000E+01 0.  1.
         13    1    4    4    0    0  0.15532630084E+02 -0.12180365109E+01 -0.40912505043E+02  0.43778753742E+02  0.00000000000E+00 0. -1.
        -14    1    4    4    0    0 -0.77082628564E+02 -0.74497284603E+02 -0.14174182193E+03  0.17771415566E+03  0.00000000000E+00 0.  1.
</event>
<event>
12    1  0.1597826E-001  0.2602949E+03  0.7818608E-02  0.1107015E+00
         21   -1    0    0  501  502  0.00000000000E+00  0.00000000000E+00  0.23072572170E+03  0.23072572170E+03  0.00000000000E+00 0. -1.
         21   -1    0    0  502  503 -0.00000000000E+00 -0.00000000000E+00 -0.57616828786E+03  0.57616828786E+03  0.00000000000E+00 0. -1.
         -6    2    1    2    0  503 -0.85448905686E+02 -0.17504664121E+03 -0.45535984590E+03  0.52434274299E+03  0.17216236750E+03 0.  0.
        -24    2    3    3    0    0 -0.12663896189E+03 -0.14103837082E+03 -0.34893036709E+03  0.40516847083E+03  0.80497453160E+02 0.  0.
          6    2    1    2  501    0  0.85448905686E+02  0.17504664121E+03  0.10991727973E+03  0.28255126657E+03  0.17265737105E+03 0.  0.
         24    2    5    5    0    0  0.11246383742E+03  0.14119844617E+03  0.42042436026E+02  0.20190022038E+03  0.80068824364E+02 0.  0.
          5    1    5    5  501    0 -0.27014931733E+02  0.33848195043E+02  0.67874843705E+02  0.80651046194E+02  0.47000000000E+01 0. -1.
        -11    1    6    6    0    0  0.90437510472E+02  0.14454729306E+03  0.50872070257E+02  0.17793490597E+03  0.00000000000E+00 0.  1.
         12    1    6    6    0    0  0.22026326946E+02 -0.33488468847E+01 -0.88296342310E+01  0.23965314412E+02  0.00000000000E+00 0. -1.
         -5    1    3    3    0  503  0.41190056201E+02 -0.34008270390E+02 -0.10642947881E+03  0.11917427215E+03  0.47000000000E+01 0.  1.
         13    1    4    4    0    0 -0.51640110651E+02 -0.15323961149E+02 -0.56022239933E+02  0.77717541009E+02  0.00000000000E+00 0. -1.
        -14    1    4    4    0    0 -0.74998851236E+02 -0.12571440967E+03 -0.29290812716E+03  0.32745092982E+03  0.00000000000E+00 0.  1.
</event>
<event>
12    1  0.1597826E-001  0.1999044E+03  0.7818608E-02  0.1149962E+00
         21   -1    0    0  501  502  0.00000000000E+00  0.00000000000E+00  0.50636118679E+02  0.50636118679E+02  0.00000000000E+00 0. -1.
         21   -1    0    0  502  503 -0.00000000000E+00 -0.00000000000E+00 -0.26872696685E+04  0.26872696685E+04  0.00000000000E+00 0. -1.
         -6    2    1    2    0  503  0.18873243084E+02  0.98025118219E+02 -0.24689780988E+04  0.24770032565E+04  0.17241565250E+03 0.  0.
        -24    2    3    3    0    0  0.31783689213E+02  0.13537713667E+03 -0.18852984494E+04  0.18919683208E+04  0.76529154132E+02 0.  0.
          6    2    1    2  501    0 -0.18873243084E+02 -0.98025118219E+02 -0.16765545104E+03  0.26090253070E+03  0.17319543053E+03 0.  0.
         24    2    5    5    0    0  0.30976032042E+02 -0.76886394313E+01 -0.10682225397E+03  0.14103428013E+03  0.86377337823E+02 0.  0.
          5    1    5    5  501    0 -0.49849275127E+02 -0.90336478787E+02 -0.60833197063E+02  0.11986825057E+03  0.47000000000E+01 0. -1.
        -11    1    6    6    0    0  0.21652022092E+02 -0.43427078725E+02 -0.85704863696E+02  0.98488805904E+02  0.00000000000E+00 0.  1.
         12    1    6    6    0    0  0.93240099502E+01  0.35738439293E+02 -0.21117390278E+02  0.42545474222E+02  0.00000000000E+00 0. -1.
         -5    1    3    3    0  503 -0.12910446129E+02 -0.37352018454E+02 -0.58367964940E+03  0.58503493573E+03  0.47000000000E+01 0.  1.
         11    1    4    4    0    0  0.39425049234E+02  0.13542001533E+03 -0.18642140296E+04  0.18695418859E+04  0.00000000000E+00 0. -1.
        -12    1    4    4    0    0 -0.76413600208E+01 -0.42878656111E-01 -0.21084419841E+02  0.22426434883E+02  0.00000000000E+00 0.  1.
</event>
<event>
12    1  0.1597826E-001  0.2769265E+03  0.7818608E-02  0.1097943E+00
         21   -1    0    0  503  502  0.00000000000E+00  0.00000000000E+00  0.39629822885E+03  0.39629822885E+03  0.00000000000E+00 0. -1.
         21   -1    0    0  501  503 -0.00000000000E+00 -0.00000000000E+00 -0.33175252257E+03  0.33175252257E+03  0.00000000000E+00 0. -1.
          6    2    1    2  501    0  0.31730053814E+02 -0.21498954556E+03 -0.20494979490E+03  0.34451807343E+03  0.17164202131E+03 0.  0.
         24    2    3    3    0    0  0.63436420176E+02 -0.83806748322E+02 -0.10909752316E+03  0.17891623783E+03  0.95189285795E+02 0.  0.
         -6    2    1    2    0  502 -0.31730053814E+02  0.21498954556E+03  0.26949550118E+03  0.38353267798E+03  0.16505207939E+03 0.  0.
        -24    2    5    5    0    0  0.29509199953E+02  0.18394320958E+03  0.17935901762E+03  0.27012722464E+03  0.78058715439E+02 0.  0.
          5    1    3    3  501    0 -0.31706366362E+02 -0.13118279723E+03 -0.95852271742E+02  0.16560183561E+03  0.47000000000E+01 0. -1.
        -13    1    4    4    0    0  0.39199285827E+02 -0.33031998109E+02  0.51972830511E+01  0.51523864951E+02  0.00000000000E+00 0.  1.
         14    1    4    4    0    0  0.24237134349E+02 -0.50774750214E+02 -0.11429480621E+03  0.12739237288E+03  0.00000000000E+00 0. -1.
         -5    1    5    5    0  502 -0.61239253768E+02  0.31046335974E+02  0.90136483561E+02  0.11340545334E+03  0.47000000000E+01 0.  1.
         11    1    6    6    0    0  0.20140744787E+02  0.66533936763E+02  0.20707592106E+02  0.72534258889E+02  0.00000000000E+00 0. -1.
        -12    1    6    6    0    0  0.93684551664E+01  0.11740927282E+03  0.15865142551E+03  0.19759296575E+03  0.00000000000E+00 0.  1.
</event>
<event>
12    1  0.1597826E-001  0.1755299E+03  0.7818608E-02  0.1172586E+00
         21   -1    0    0  501  502  0.00000000000E+00  0.00000000000E+00  0.11842415537E+04  0.11842415537E+04  0.00000000000E+00 0. -1.
         21   -1    0    0  502  503 -0.00000000000E+00 -0.00000000000E+00 -0.35791979848E+02  0.35791979848E+02  0.00000000000E+00 0. -1.
         -6    2    1    2    0  503 -0.33230345395E+02  0.18182990500E+02  0.24994654562E+03  0.30454545585E+03  0.16982279593E+03 0.  0.
        -24    2    3    3    0    0 -0.84812532633E+02  0.17004420393E+02  0.15342198866E+03  0.19499550759E+03  0.83681690787E+02 0.  0.
          6    2    1    2  501    0  0.33230345395E+02 -0.18182990500E+02  0.89850302821E+03  0.91548807767E+03  0.17139384953E+03 0.  0.
         24    2    5    5    0    0  0.77553287373E+02 -0.32950870037E+02  0.76969135329E+03  0.77838537512E+03  0.79741712100E+02 0.  0.
          5    1    5    5  501    0 -0.44322941978E+02  0.14767879537E+02  0.12881167492E+03  0.13710270255E+03  0.47000000000E+01 0. -1.
        -13    1    6    6    0    0  0.42458747992E+02 -0.58475935126E+02  0.50970440935E+03  0.51480167558E+03  0.00000000000E+00 0.  1.
         14    1    6    6    0    0  0.35094539382E+02  0.25525065089E+02  0.25998694395E+03  0.26358369954E+03  0.00000000000E+00 0. -1.
         -5    1    3    3    0  503  0.51582187238E+02  0.11785701073E+01  0.96524556963E+02  0.10954994826E+03  0.47000000000E+01 0.  1.
         11    1    4    4    0    0 -0.90389752679E+02  0.25394389635E+02  0.87607478845E+02  0.12841437912E+03  0.00000000000E+00 0. -1.
        -12    1    4    4    0    0  0.55772200456E+01 -0.83899692422E+01  0.65814509810E+02  0.66581128474E+02  0.00000000000E+00 0.  1.
</event>
<event>
12    1  0.1597826E-001  0.3090909E+03  0.7818608E-02  0.1081397E+00
         21   -1    0    0  501  502  0.00000000000E+00  0.00000000000E+00  0.24778770681E+03  0.24778770681E+03  0.00000000000E+00 0. -1.
         21   -1    0    0  502  503 -0.00000000000E+00 -0.00000000000E+00 -0.11935224103E+04  0.11935224103E+04  0.00000000000E+00 0. -1.
         -6    2    1    2    0  503 -0.10872063364E+03 -0.23193929326E+03 -0.10668599847E+04  0.11093334592E+04  0.16375128935E+03 0.  0.
        -24    2    3    3    0    0 -0.13512302639E+03 -0.15383228870E+03 -0.82496616417E+03  0.85373122735E+03  0.79782399198E+02 0.  0.
          6    2    1    2  501    0  0.10872063364E+03  0.23193929326E+03  0.12112528119E+03  0.33197665795E+03  0.17297732726E+03 0.  0.
         24    2    5    5    0    0  0.19995180473E+02  0.16294190726E+03  0.20055834871E+02  0.18074845855E+03  0.72923908106E+02 0.  0.
          5    1    5    5  501    0  0.88725453163E+02  0.68997386005E+02  0.10106944632E+03  0.15122819940E+03  0.47000000000E+01 0. -1.
        -11    1    6    6    0    0 -0.17087987744E+02  0.14190447116E+02  0.16028813656E+02  0.27391439935E+02  0.00000000000E+00 0.  1.
         12    1    6    6    0    0  0.37083168217E+02  0.14875146014E+03  0.40270212150E+01  0.15335701862E+03  0.00000000000E+00 0. -1.
         -5    1    3    3    0  503  0.26402392757E+02 -0.78107004563E+02 -0.24189382054E+03  0.25560223184E+03  0.47000000000E+01 0.  1.
         11    1    4    4    0    0 -0.78680046567E+02 -0.13788452563E+03 -0.65367540501E+03  0.67267691149E+03  0.00000000000E+00 0. -1.
        -12    1    4    4    0    0 -0.56442979826E+02 -0.15947763067E+02 -0.17129075916E+03  0.18105431586E+03  0.00000000000E+00 0.  1.
</event>
<event>
12    1  0.1597826E-001  0.3187387E+03  0.7818608E-02  0.1076444E+00
         21   -1    0    0  503  502  0.00000000000E+00  0.00000000000E+00  0.47341924118E+03  0.47341924118E+03  0.00000000000E+00 0. -1.
         21   -1    0    0  501  503 -0.00000000000E+00 -0.00000000000E+00 -0.21401862567E+03  0.21401862567E+03  0.00000000000E+00 0.  1.
          6    2    1    2  501    0  0.10892971556E+03  0.24307403199E+03  0.14905806521E+03  0.35187024741E+03  0.17505340972E+03 0.  0.
         24    2    3    3    0    0  0.12982334284E+03  0.12812184657E+03  0.76992729952E+02  0.21451650287E+03  0.82584148760E+02 0.  0.
         -6    2    1    2    0  502 -0.10892971556E+03 -0.24307403199E+03  0.11034255031E+03  0.33556761943E+03  0.17169589641E+03 0.  0.
        -24    2    5    5    0    0  0.29013219955E+02 -0.67264100941E+02  0.16029150328E+02  0.92968170282E+02  0.54953806217E+02 0.  0.
          5    1    3    3  501    0 -0.20893627282E+02  0.11495218542E+03  0.72065335255E+02  0.13735374454E+03  0.47000000000E+01 0. -1.
        -13    1    4    4    0    0  0.11994182385E+03  0.13471535407E+03  0.85789112246E+02  0.19973492311E+03  0.00000000000E+00 0.  1.
         14    1    4    4    0    0  0.98815189891E+01 -0.65935075050E+01 -0.87963822945E+01  0.14781579761E+02  0.00000000000E+00 0. -1.
         -5    1    5    5    0  502 -0.13794293551E+03 -0.17580993105E+03  0.94313399978E+02  0.24259944915E+03  0.47000000000E+01 0.  1.
         13    1    6    6    0    0  0.19865754775E+02 -0.75309715918E+02  0.19521815867E+02  0.80295098351E+02  0.00000000000E+00 0. -1.
        -14    1    6    6    0    0  0.91474651804E+01  0.80456149770E+01 -0.34926655395E+01  0.12673071931E+02  0.00000000000E+00 0.  1.
</event>
<event>
12    1  0.1597826E-001  0.1885751E+03  0.7818608E-02  0.1159896E+00
         21   -1    0    0  503  502  0.00000000000E+00  0.00000000000E+00  0.11479146583E+04  0.11479146583E+04  0.00000000000E+00 0. -1.
         21   -1    0    0  501  503 -0.00000000000E+00 -0.00000000000E+00 -0.31962401501E+02  0.31962401501E+02  0.00000000000E+00 0.  1.
          6    2    1    2  501    0 -0.76006080056E+02  0.29972510272E+01  0.66585753626E+03  0.69187518509E+03  0.17186944297E+03 0.  0.
         24    2    3    3    0    0 -0.44709952213E+02  0.65988522850E+02  0.46034336209E+03  0.47460688614E+03  0.83559681515E+02 0.  0.
         -6    2    1    2    0  502  0.76006080056E+02 -0.29972510272E+01  0.45009472054E+03  0.48800187471E+03  0.17255336724E+03 0.  0.
        -24    2    5    5    0    0  0.33692795469E+01 -0.36059928865E+01  0.36937726617E+03  0.37931023384E+03  0.86094909872E+02 0.  0.
          5    1    3    3  501    0 -0.31296127843E+02 -0.62991271823E+02  0.20551417417E+03  0.21726829895E+03  0.47000000000E+01 0. -1.
        -13    1    4    4    0    0 -0.57024160489E+02  0.15619331725E+02  0.17861027190E+03  0.18814182850E+03  0.00000000000E+00 0.  1.
         14    1    4    4    0    0  0.12314208275E+02  0.50369191125E+02  0.28173309019E+03  0.28646505764E+03  0.00000000000E+00 0. -1.
         -5    1    5    5    0  502  0.72636800509E+02  0.60874185933E+00  0.80717454370E+02  0.10869164087E+03  0.47000000000E+01 0.  1.
         13    1    6    6    0    0  0.25439997143E+02  0.33928618466E+02  0.19771450132E+03  0.20221119810E+03  0.00000000000E+00 0. -1.
        -14    1    6    6    0    0 -0.22070717597E+02 -0.37534611352E+02  0.17166276485E+03  0.17709903574E+03  0.00000000000E+00 0.  1.
</event>
<event>
12    1  0.1597826E-001  0.1797167E+03  0.7818608E-02  0.1168456E+00
         21   -1    0    0  501  502  0.00000000000E+00  0.00000000000E+00  0.60669028542E+03  0.60669028542E+03  0.00000000000E+00 0.  1.
         21   -1    0    0  502  503 -0.00000000000E+00 -0.00000000000E+00 -0.59919883199E+02  0.59919883199E+02  0.00000000000E+00 0.  1.
         -6    2    1    2    0  503  0.48360886365E+02 -0.82636953168E+01  0.38741606551E+03  0.42641876668E+03  0.17127373638E+03 0.  0.
        -24    2    3    3    0    0  0.15346354873E+01 -0.65337329663E+02  0.21026966730E+03  0.23444732634E+03  0.80504000447E+02 0.  0.
          6    2    1    2  501    0 -0.48360886365E+02  0.82636953168E+01  0.15935433672E+03  0.24019140194E+03  0.17289025694E+03 0.  0.
         24    2    5    5    0    0  0.53612403701E+01 -0.28881308788E+02  0.15200553597E+03  0.17429820728E+03  0.80070651283E+02 0.  0.
          5    1    5    5  501    0 -0.53722126735E+02  0.37145004105E+02  0.73488007419E+01  0.65893194665E+02  0.47000000000E+01 0. -1.
        -13    1    6    6    0    0  0.24379721636E+02 -0.28437928031E+02  0.23124604318E+02  0.44020834870E+02  0.00000000000E+00 0.  1.
         14    1    6    6    0    0 -0.19018481266E+02 -0.44338075640E+00  0.12888093166E+03  0.13027737241E+03  0.00000000000E+00 0. -1.
         -5    1    3    3    0  503  0.46826250878E+02  0.57073634346E+02  0.17714639821E+03  0.19197144034E+03  0.47000000000E+01 0.  1.
         11    1    4    4    0    0  0.22639286269E+02  0.87060983789E+01  0.74713323408E+02  0.78551983593E+02  0.00000000000E+00 0. -1.
        -12    1    4    4    0    0 -0.21104650782E+02 -0.74043428042E+02  0.13555634389E+03  0.15589534275E+03  0.00000000000E+00 0.  1.
</event>
<event>
12    1  0.1597826E-001  0.2164587E+03  0.7818608E-02  0.1136744E+00
         21   -1    0    0  501  502  0.00000000000E+00  0.00000000000E+00  0.45079273845E+03  0.45079273845E+03  0.00000000000E+00 0. -1.
         21   -1    0    0  502  503 -0.00000000000E+00 -0.00000000000E+00 -0.10488833710E+03  0.10488833710E+03  0.00000000000E+00 0.  1.
         -6    2    1    2    0  503  0.13011210209E+03  0.95214110672E+01  0.14084413567E+03  0.25824685749E+03  0.17272681456E+03 0.  0.
        -24    2    3    3    0    0  0.10005546471E+03 -0.37927576418E+02  0.14942906934E+03  0.20123283333E+03  0.81951262184E+02 0.  0.
          6    2    1    2  501    0 -0.13011210209E+03 -0.95214110672E+01  0.20506026568E+03  0.29743421806E+03  0.17145723996E+03 0.  0.
         24    2    5    5    0    0 -0.16219596830E+03 -0.20494037551E+02  0.17515702414E+03  0.25198020991E+03  0.78016058446E+02 0.  0.
          5    1    5    5  501    0  0.32083866202E+02  0.10972626484E+02  0.29903241533E+02  0.45454008147E+02  0.47000000000E+01 0. -1.
        -11    1    6    6    0    0 -0.73762590191E+02  0.22758976651E+02  0.46996733688E+02  0.90374685102E+02  0.00000000000E+00 0.  1.
         12    1    6    6    0    0 -0.88433378104E+02 -0.43253014202E+02  0.12816029045E+03  0.16160552481E+03  0.00000000000E+00 0. -1.
         -5    1    3    3    0  503  0.30056637386E+02  0.47448987485E+02 -0.85849336737E+01  0.57014024157E+02  0.47000000000E+01 0.  1.
         13    1    4    4    0    0  0.65089845431E+02 -0.58604687807E+02  0.70387104575E+02  0.11236343668E+03  0.00000000000E+00 0. -1.
        -14    1    4    4    0    0  0.34965619277E+02  0.20677111389E+02  0.79041964770E+02  0.88869396653E+02  0.00000000000E+00 0.  1.
</event>
<event>
12    1  0.1597826E-001  0.2120330E+03  0.7818608E-02  0.1140036E+00
         21   -1    0    0  501  502  0.00000000000E+00  0.00000000000E+00  0.15322993634E+03  0.15322993634E+03  0.00000000000E+00 0. -1.
         21   -1    0    0  502  503 -0.00000000000E+00 -0.00000000000E+00 -0.32204819596E+03  0.32204819596E+03  0.00000000000E+00 0. -1.
         -6    2    1    2    0  503 -0.79121269918E+02 -0.94548969182E+02 -0.15582390626E+03  0.26284735269E+03  0.17206963162E+03 0.  0.
        -24    2    3    3    0    0  0.27484067684E+00 -0.42926882630E+02 -0.13100706104E+02  0.91498048457E+02  0.79733754341E+02 0.  0.
          6    2    1    2  501    0  0.79121269918E+02  0.94548969182E+02 -0.12994353357E+02  0.21243077961E+03  0.17250594186E+03 0.  0.
         24    2    5    5    0    0 -0.66155702552E+01  0.10374290874E+01 -0.27985024912E+02  0.84594853016E+02  0.79550521736E+02 0.  0.
          5    1    5    5  501    0  0.85736840174E+02  0.93511540095E+02  0.14990671555E+02  0.12783592659E+03  0.47000000000E+01 0. -1.
        -13    1    6    6    0    0  0.19543230322E+02  0.21355480308E+02 -0.39986413510E+02  0.49365044880E+02  0.00000000000E+00 0.  1.
         14    1    6    6    0    0 -0.26158800577E+02 -0.20318051220E+02  0.12001388598E+02  0.35229808136E+02  0.00000000000E+00 0. -1.
         -5    1    3    3    0  503 -0.79396110595E+02 -0.51622086552E+02 -0.14272320016E+03  0.17134930423E+03  0.47000000000E+01 0.  1.
         11    1    4    4    0    0  0.35633248902E+02 -0.27487344050E+02 -0.24535441483E+02  0.51256905867E+02  0.00000000000E+00 0. -1.
        -12    1    4    4    0    0 -0.35358408226E+02 -0.15439538580E+02  0.11434735379E+02  0.40241142591E+02  0.00000000000E+00 0.  1.
</event>
<event>
12    1  0.1597826E-001  0.1833175E+03  0.7818608E-02  0.1164818E+00
         21   -1    0    0  503  502  0.00000000000E+00  0.00000000000E+00  0.14208347761E+04  0.14208347761E+04  0.00000000000E+00 0.  1.
         21   -1    0    0  501  503 -0.00000000000E+00 -0.00000000000E+00 -0.23745978710E+02  0.23745978710E+02  0.00000000000E+00 0.  1.
          6    2    1    2  501    0 -0.64219929270E+02 -0.75281337677E+01  0.76266897543E+03  0.78420675116E+03  0.17069092056E+03 0.  0.
         24    2    3    3    0    0 -0.10762236304E+03  0.70873315471E+00  0.47958593830E+03  0.49765882647E+03  0.77965120496E+02 0.  0.
         -6    2    1    2    0  502  0.64219929270E+02  0.75281337677E+01  0.63441982200E+03  0.66037400369E+03  0.17153554178E+03 0.  0.
        -24    2    5    5    0    0  0.20757132967E+02  0.63468835863E+02  0.27110994841E+03  0.29019224961E+03  0.79068235773E+02 0.  0.
          5    1    3    3  501    0  0.43402433773E+02 -0.82368669224E+01  0.28308303713E+03  0.28654792469E+03  0.47000000000E+01 0. -1.
        -13    1    4    4    0    0 -0.77227740567E+02 -0.30149953179E+02  0.38199168260E+03  0.39088462385E+03  0.00000000000E+00 0.  1.
         14    1    4    4    0    0 -0.30394622475E+02  0.30858686334E+02  0.97594255702E+02  0.10677420261E+03  0.00000000000E+00 0. -1.
         -5    1    5    5    0  502  0.43462796303E+02 -0.55940702095E+02  0.36330987358E+03  0.37018175408E+03  0.47000000000E+01 0.  1.
         11    1    6    6    0    0 -0.71529733682E+01  0.13856578908E+01  0.15808716730E+03  0.15825497635E+03  0.00000000000E+00 0. -1.
        -12    1    6    6    0    0  0.27910106335E+02  0.62083177972E+02  0.11302278111E+03  0.13193727325E+03  0.00000000000E+00 0.  1.
</event>
<event>
12    1  0.1597826E-001  0.2208669E+03  0.7818608E-02  0.1133268E+00
         21   -1    0    0  501  502  0.00000000000E+00  0.00000000000E+00  0.23140373611E+04  0.23140373611E+04  0.00000000000E+00 0.  1.
         21   -1    0    0  502  503 -0.00000000000E+00 -0.00000000000E+00 -0.25933705214E+02  0.25933705214E+02  0.00000000000E+00 0. -1.
         -6    2    1    2    0  503  0.13926867202E+03 -0.20155752637E+01  0.16506124964E+04  0.16653028620E+04  0.17120801142E+03 0.  0.
        -24    2    3    3    0    0  0.14922956080E+03  0.37816341277E+02  0.14599259135E+04  0.14701893981E+04  0.79835179277E+02 0.  0.
          6    2    1    2  501    0 -0.13926867202E+03  0.20155752637E+01  0.63749115951E+03  0.67466820439E+03  0.17141289922E+03 0.  0.
         24    2    5    5    0    0 -0.95427697394E+02  0.87213023969E+01  0.60971078967E+03  0.62212453893E+03  0.78161297024E+02 0.  0.
          5    1    5    5  501    0 -0.43840974622E+02 -0.67057271332E+01  0.27780369840E+02  0.52543665466E+02  0.47000000000E+01 0. -1.
        -11    1    6    6    0    0 -0.93015880018E+02  0.12734014547E+01  0.60661461357E+03  0.61370584556E+03  0.00000000000E+00 0.  1.
         12    1    6    6    0    0 -0.24118173761E+01  0.74479009421E+01  0.30961761018E+01  0.84186933637E+01  0.00000000000E+00 0. -1.
         -5    1    3    3    0  503 -0.99608887823E+01 -0.39831916541E+02  0.19068658294E+03  0.19511346390E+03  0.47000000000E+01 0.  1.
         13    1    4    4    0    0  0.54675697801E+01 -0.29110172171E+01  0.60604570627E+01  0.86658802408E+01  0.00000000000E+00 0. -1.
        -14    1    4    4    0    0  0.14376199102E+03  0.40727358494E+02  0.14538654564E+04  0.14615235178E+04  0.00000000000E+00 0.  1.
</event>
<event>
12    1  0.1597826E-001  0.1830763E+03  0.7818608E-02  0.1165180E+00
         21   -1    0    0  503  502  0.00000000000E+00  0.00000000000E+00  0.14228713441E+03  0.14228713441E+03  0.00000000000E+00 0.  1.
         21   -1    0    0  501  503 -0.00000000000E+00 -0.00000000000E+00 -0.40641027749E+03  0.40641027749E+03  0.00000000000E+00 0.  1.
          6    2    1    2  501    0  0.59987604673E+02 -0.82944796891E-01  0.46439127205E+02  0.18887431901E+03  0.17296935062E+03 0.  0.
         24    2    3    3    0    0  0.34872049469E+02  0.49729419619E+02  0.75349232610E+02  0.12586680393E+03  0.80472793337E+02 0.  0.
         -6    2    1    2    0  502 -0.59987604673E+02  0.82944796891E-01 -0.31056227028E+03  0.35982309288E+03  0.17153779424E+03 0.  0.
        -24    2    5    5    0    0 -0.53298099828E+02 -0.10112626054E+02 -0.71086590152E+02  0.11999108811E+03  0.80010032339E+02 0.  0.
          5    1    3    3  501    0  0.25115555204E+02 -0.49812364416E+02 -0.28910105405E+02  0.63007515079E+02  0.47000000000E+01 0. -1.
        -11    1    4    4    0    0 -0.18697368789E+02  0.23827064410E+02  0.55720679740E+00  0.30292426074E+02  0.00000000000E+00 0.  1.
         12    1    4    4    0    0  0.53569418258E+02  0.25902355209E+02  0.74792025813E+02  0.95574377858E+02  0.00000000000E+00 0. -1.
         -5    1    5    5    0  502 -0.66895048449E+01  0.10195570851E+02 -0.23947568013E+03  0.23983200478E+03  0.47000000000E+01 0.  1.
         13    1    6    6    0    0 -0.69904196634E+02 -0.15249576450E+00 -0.72326993635E+02  0.10058734498E+03  0.00000000000E+00 0. -1.
        -14    1    6    6    0    0  0.16606096806E+02 -0.99601302899E+01  0.12404034832E+01  0.19403743127E+02  0.00000000000E+00 0.  1.
</event>
<event>
12    1  0.1597826E-001  0.2057095E+03  0.7818608E-02  0.1145018E+00
         21   -1    0    0  503  502  0.00000000000E+00  0.00000000000E+00  0.94094929196E+02  0.94094929196E+02  0.00000000000E+00 0.  1.
         21   -1    0    0  501  503 -0.00000000000E+00 -0.00000000000E+00 -0.53434281354E+03  0.53434281354E+03  0.00000000000E+00 0.  1.
          6    2    1    2  501    0 -0.11254230723E+03  0.13751529069E+02 -0.34521692093E+03  0.40183834340E+03  0.17159387012E+03 0.  0.
         24    2    3    3    0    0  0.15373149857E+02  0.13900593492E+02 -0.12749294117E+03  0.14927506867E+03  0.74826705400E+02 0.  0.
         -6    2    1    2    0  502  0.11254230723E+03 -0.13751529069E+02 -0.95030963413E+02  0.22659939934E+03  0.17164360840E+03 0.  0.
        -24    2    5    5    0    0  0.84288236335E+02 -0.70920717136E+02 -0.85013518847E+02  0.16187654571E+03  0.82719180120E+02 0.  0.
          5    1    3    3  501    0 -0.12791545709E+03 -0.14906442237E+00 -0.21772397976E+03  0.25256327474E+03  0.47000000000E+01 0. -1.
        -11    1    4    4    0    0 -0.23610508463E+02  0.24184369743E+02 -0.80802909666E+02  0.87586814420E+02  0.00000000000E+00 0.  1.
         12    1    4    4    0    0  0.38983658320E+02 -0.10283776252E+02 -0.46690031503E+02  0.61688254245E+02  0.00000000000E+00 0. -1.
         -5    1    5    5    0  502  0.28254070894E+02  0.57169188066E+02 -0.10017444566E+02  0.64722853629E+02  0.47000000000E+01 0.  1.
         13    1    6    6    0    0 -0.13844707415E+02  0.38238608899E+01 -0.10022366094E+02  0.17514155922E+02  0.00000000000E+00 0. -1.
        -14    1    6    6    0    0  0.98132943750E+02 -0.74744578025E+02 -0.74991152753E+02  0.14436238979E+03  0.00000000000E+00 0.  1.
</event>
<event>
12    1  0.1597826E-001  0.3206459E+03  0.7818608E-02  0.1075494E+00
         21   -1    0    0  501  502  0.00000000000E+00  0.00000000000E+00  0.44510524071E+03  0.44510524071E+03  0.00000000000E+00 0.  1.
         21   -1    0    0  502  503 -0.00000000000E+00 -0.00000000000E+00 -0.23041324005E+03  0.23041324005E+03  0.00000000000E+00 0. -1.
         -6    2    1    2    0  503  0.41190090636E+02 -0.26769890215E+03  0.94669385414E+02  0.33314558308E+03  0.16930552622E+03 0.  0.
        -24    2    3    3    0    0 -0.39260787548E+02 -0.10578621181E+03  0.34190984193E+02  0.14244217433E+03  0.79928828208E+02 0.  0.
          6    2    1    2  501    0 -0.41190090636E+02  0.26769890215E+03  0.12002261525E+03  0.34237289768E+03  0.17162297957E+03 0.  0.
         24    2    5    5    0    0 -0.51069026203E+02  0.60815139412E+02  0.29821108770E+02  0.11641518831E+03  0.79728733353E+02 0.  0.
          5    1    5    5  501    0  0.98789355666E+01  0.20688376274E+03  0.90201506482E+02  0.22595770937E+03  0.47000000000E+01 0. -1.
        -11    1    6    6    0    0 -0.60179506312E+02  0.24252835297E+02 -0.50449505801E+01  0.65078602676E+02  0.00000000000E+00 0.  1.
         12    1    6    6    0    0  0.91104801087E+01  0.36562304115E+02  0.34866059350E+02  0.51336585635E+02  0.00000000000E+00 0. -1.
         -5    1    3    3    0  503  0.80450878184E+02 -0.16191269034E+03  0.60478401221E+02  0.19070340875E+03  0.47000000000E+01 0.  1.
         11    1    4    4    0    0 -0.25135098426E+02 -0.10006740806E+03 -0.19769062661E+01  0.10319480359E+03  0.00000000000E+00 0. -1.
        -12    1    4    4    0    0 -0.14125689122E+02 -0.57188037458E+01  0.36167890459E+02  0.39247370736E+02  0.00000000000E+00 0.  1.
</event>
<event>
12    1  0.1597826E-001  0.2148907E+03  0.7818608E-02  0.1137897E+00
         21   -1    0    0  503  502  0.00000000000E+00  0.00000000000E+00  0.35532974455E+03  0.35532974455E+03  0.00000000000E+00 0.  1.
         21   -1    0    0  501  503 -0.00000000000E+00 -0.00000000000E+00 -0.19023557883E+03  0.19023557883E+03  0.00000000000E+00 0.  1.
          6    2    1    2  501    0  0.11667485719E+03  0.55027212776E+02 -0.71488004141E+02  0.22646973822E+03  0.17186329203E+03 0.  0.
         24    2    3    3    0    0  0.21431342250E+02 -0.11003697027E+02  0.16267999534E+02  0.81023478838E+02  0.75629177804E+02 0.  0.
         -6    2    1    2    0  502 -0.11667485719E+03 -0.55027212776E+02  0.23658216986E+03  0.31909558516E+03  0.17090890243E+03 0.  0.
        -24    2    5    5    0    0 -0.15612583838E+01 -0.52909336174E+02  0.78235577002E+02  0.12326055382E+03  0.79186635473E+02 0.  0.
          5    1    3    3  501    0  0.95243514940E+02  0.66030909803E+02 -0.87756003675E+02  0.14544625938E+03  0.47000000000E+01 0. -1.
        -13    1    4    4    0    0  0.86876449831E+01 -0.10812113263E+02 -0.29989868984E+02  0.33041931091E+02  0.00000000000E+00 0.  1.
         14    1    4    4    0    0  0.12743697267E+02 -0.19158376358E+00  0.46257868518E+02  0.47981547747E+02  0.00000000000E+00 0. -1.
         -5    1    5    5    0  502 -0.11511359881E+03 -0.21178766013E+01  0.15834659286E+03  0.19583503134E+03  0.47000000000E+01 0.  1.
         13    1    6    6    0    0 -0.31632827593E+02  0.13178361247E+01  0.37462967159E+02  0.49049427947E+02  0.00000000000E+00 0. -1.
        -14    1    6    6    0    0  0.30071569209E+02 -0.54227172299E+02  0.40772609843E+02  0.74211125875E+02  0.00000000000E+00 0.  1.
</event>
<event>
12    1  0.1597826E-001  0.2497552E+03  0.7818608E-02  0.1113523E+00
         21   -1    0    0  501  502  0.00000000000E+00  0.00000000000E+00  0.43356798620E+03  0.43356798620E+03  0.00000000000E+00 0.  1.
         21   -1    0    0  502  503 -0.00000000000E+00 -0.00000000000E+00 -0.14414684759E+03  0.14414684759E+03  0.00000000000E+00 0.  1.
         -6    2    1    2    0  503  0.17879122955E+03 -0.28685188883E+02  0.12769796868E+03  0.28050748209E+03  0.17201317530E+03 0.  0.
        -24    2    3    3    0    0  0.57189562418E+02  0.45117839423E+02  0.36085589110E+02  0.11124800517E+03  0.75945266004E+02 0.  0.
          6    2    1    2  501    0 -0.17879122955E+03  0.28685188883E+02  0.16172316993E+03  0.29720735170E+03  0.17143127599E+03 0.  0.
         24    2    5    5    0    0 -0.27240567910E+02  0.39960927126E+02  0.81951522846E+02  0.12550892132E+03  0.81838334526E+02 0.  0.
          5    1    5    5  501    0 -0.15155066164E+03 -0.11275738243E+02  0.79771647088E+02  0.17169843038E+03  0.47000000000E+01 0. -1.
        -11    1    6    6    0    0 -0.51817626719E+02  0.37650514119E+02  0.77300421319E+02  0.10038915673E+03  0.00000000000E+00 0.  1.
         12    1    6    6    0    0  0.24577058809E+02  0.23104130074E+01  0.46511015263E+01  0.25119764596E+02  0.00000000000E+00 0. -1.
         -5    1    3    3    0  503  0.12160166713E+03 -0.73803028307E+02  0.91612379573E+02  0.16925947692E+03  0.47000000000E+01 0.  1.
         13    1    4    4    0    0  0.96968304669E+01  0.92835443482E+01  0.48626591315E+02  0.50445595444E+02  0.00000000000E+00 0. -1.
        -14    1    4    4    0    0  0.47492731952E+02  0.35834295075E+02 -0.12541002206E+02  0.60802409723E+02  0.00000000000E+00 0.  1.
</event>
<event>
12    1  0.1597826E-001  0.3009156E+03  0.7818608E-02  0.1085153E+00
         21   -1    0    0  501  502  0.00000000000E+00  0.00000000000E+00  0.11080018857E+03  0.11080018857E+03  0.00000000000E+00 0.  1.
         21   -1    0    0  502  503 -0.00000000000E+00 -0.00000000000E+00 -0.15241502049E+04  0.15241502049E+04  0.00000000000E+00 0. -1.
         -6    2    1    2    0  503  0.24390312554E+03 -0.31313708154E+02 -0.12683850052E+04  0.13035914732E+04  0.17343853299E+03 0.  0.
        -24    2    3    3    0    0  0.99052645025E+02  0.22323936110E+02 -0.38295178566E+03  0.40477406417E+03  0.82946900330E+02 0.  0.
          6    2    1    2  501    0 -0.24390312554E+03  0.31313708154E+02 -0.14496501114E+03  0.33135892025E+03  0.16826941672E+03 0.  0.
         24    2    5    5    0    0 -0.24365713349E+03  0.57324784822E+02 -0.10374551291E+03  0.28239185319E+03  0.79543055278E+02 0.  0.
          5    1    5    5  501    0 -0.24599205074E+00 -0.26011076669E+02 -0.41219498236E+02  0.48967067059E+02  0.47000000000E+01 0. -1.
        -11    1    6    6    0    0 -0.17284041498E+03  0.13103355417E+02 -0.96996164200E+02  0.19862971289E+03  0.00000000000E+00 0.  1.
         12    1    6    6    0    0 -0.70816718513E+02  0.44221429406E+02 -0.67493487087E+01  0.83762140300E+02  0.00000000000E+00 0. -1.
         -5    1    3    3    0  503  0.14485048051E+03 -0.53637644263E+02 -0.88543321952E+03  0.89881740905E+03  0.47000000000E+01 0.  1.
         13    1    4    4    0    0  0.99100411733E+02  0.40116401915E+02 -0.36110120346E+03  0.37659566706E+03  0.00000000000E+00 0. -1.
        -14    1    4    4    0    0 -0.47766708098E-01 -0.17792465805E+02 -0.21850582192E+02  0.28178397102E+02  0.00000000000E+00 0.  1.
</event>
<event>
12    1  0.1597826E-001  0.3009048E+03  0.7818608E-02  0.1084842E+00
         21   -1    0    0  503  502  0.00000000000E+00  0.00000000000E+00  0.51209662807E+02  0.51209662807E+02  0.00000000000E+00 0.  1.
         21   -1    0    0  501  503 -0.00000000000E+00 -0.00000000000E+00 -0.17866767086E+04  0.17866767086E+04  0.00000000000E+00 0.  1.
          6    2    1    2  501    0  0.24347237442E+03 -0.38875965819E+02 -0.96814975990E+03  0.10138331641E+04  0.17249228759E+03 0.  0.
         24    2    3    3    0    0  0.24742856528E+03 -0.35186704794E+02 -0.73443345807E+03  0.78000702822E+03  0.80990497215E+02 0.  0.
         -6    2    1    2    0  502 -0.24347237442E+03  0.38875965819E+02 -0.76731728593E+03  0.82405320732E+03  0.17174904183E+03 0.  0.
        -24    2    5    5    0    0 -0.43538567064E+02  0.39217577716E+02 -0.20347844379E+03  0.22579743097E+03  0.78405213606E+02 0.  0.
          5    1    3    3  501    0 -0.39561908563E+01 -0.36892610250E+01 -0.23371630183E+03  0.23382613591E+03  0.47000000000E+01 0. -1.
        -11    1    4    4    0    0  0.17380732570E+03 -0.61700727264E+02 -0.51028996869E+03  0.54259728930E+03  0.00000000000E+00 0.  1.
         12    1    4    4    0    0  0.73621239576E+02  0.26514022470E+02 -0.22414348938E+03  0.23740973892E+03  0.00000000000E+00 0. -1.
         -5    1    5    5    0  502 -0.19993380736E+03 -0.34161189672E+00 -0.56383884214E+03  0.59825577635E+03  0.47000000000E+01 0.  1.
         13    1    6    6    0    0 -0.40657660570E+01  0.10160266351E+02 -0.15971192530E+03  0.16008641588E+03  0.00000000000E+00 0. -1.
        -14    1    6    6    0    0 -0.39472801007E+02  0.29057311365E+02 -0.43766518485E+02  0.65711015084E+02  0.00000000000E+00 0.  1.
</event>
<event>
12    1  0.1597826E-001  0.3178176E+03  0.7818608E-02  0.1076700E+00
         21   -1    0    0  503  502  0.00000000000E+00  0.00000000000E+00  0.15800826097E+04  0.15800826097E+04  0.00000000000E+00 0.  1.
         21   -1    0    0  501  503 -0.00000000000E+00 -0.00000000000E+00 -0.73103158491E+02  0.73103158491E+02  0.00000000000E+00 0. -1.
          6    2    1    2  501    0  0.19626418054E+03  0.18094355933E+03  0.45906883413E+03  0.55814025017E+03  0.17180263140E+03 0.  0.
         24    2    3    3    0    0  0.37202571719E+02  0.91401467006E+02  0.25115654277E+03  0.28143102986E+03  0.79909674527E+02 0.  0.
         -6    2    1    2    0  502 -0.19626418054E+03 -0.18094355933E+03  0.10479106171E+04  0.10950455180E+04  0.17247557780E+03 0.  0.
        -24    2    5    5    0    0 -0.26519883675E+02 -0.60573381902E+02  0.25621531904E+03  0.27644571295E+03  0.80021894964E+02 0.  0.
          5    1    3    3  501    0  0.15906160882E+03  0.89542092326E+02  0.20791229137E+03  0.27670922030E+03  0.47000000000E+01 0. -1.
        -13    1    4    4    0    0  0.52547936845E+02  0.24316282705E+02  0.10583160638E+03  0.12063538528E+03  0.00000000000E+00 0.  1.
         14    1    4    4    0    0 -0.15345365127E+02  0.67085184302E+02  0.14532493638E+03  0.16079564459E+03  0.00000000000E+00 0. -1.
         -5    1    5    5    0  502 -0.16974429686E+03 -0.12037017743E+03  0.79169529803E+03  0.81859980507E+03  0.47000000000E+01 0.  1.
         11    1    6    6    0    0 -0.30350270481E+02 -0.48252638645E+02  0.72257035163E+02  0.92035510456E+02  0.00000000000E+00 0. -1.
        -12    1    6    6    0    0  0.38303868055E+01 -0.12320743257E+02  0.18395828388E+03  0.18441020250E+03  0.00000000000E+00 0.  1.
</event>
<event>
12    1  0.1597826E-001  0.2417840E+03  0.7818608E-02  0.1119049E+00
         21   -1    0    0  501  502  0.00000000000E+00  0.00000000000E+00  0.18246244736E+03  0.18246244736E+03  0.00000000000E+00 0. -1.
         21   -1    0    0  502  503 -0.00000000000E+00 -0.00000000000E+00 -0.45284857805E+03  0.45284857805E+03  0.00000000000E+00 0. -1.
         -6    2    1    2    0  503  0.11507647168E+03  0.12250039974E+03 -0.30976075143E+03  0.39295191916E+03  0.17381181021E+03 0.  0.
        -24    2    3    3    0    0  0.33199482191E+02  0.97583535406E+02 -0.11258937187E+03  0.17795579255E+03  0.91472101998E+02 0.  0.
          6    2    1    2  501    0 -0.11507647168E+03 -0.12250039974E+03  0.39374620744E+02  0.24235910626E+03  0.17011358957E+03 0.  0.
         24    2    5    5    0    0 -0.43227453148E+02 -0.24118609338E+01  0.45622689558E+02  0.10219967211E+03  0.80553791951E+02 0.  0.
          5    1    5    5  501    0 -0.71849018534E+02 -0.12008853881E+03 -0.62480688143E+01  0.14015943415E+03  0.47000000000E+01 0. -1.
        -13    1    6    6    0    0 -0.70301591306E+01  0.28989679051E+02 -0.73973102263E+01  0.30733448025E+02  0.00000000000E+00 0.  1.
         14    1    6    6    0    0 -0.36197294018E+02 -0.31401539985E+02  0.53019999785E+02  0.71466224084E+02  0.00000000000E+00 0. -1.
         -5    1    3    3    0  503  0.81876989491E+02  0.24916864334E+02 -0.19717137956E+03  0.21499612661E+03  0.47000000000E+01 0.  1.
         11    1    4    4    0    0  0.10295130823E+02  0.10674228775E+03 -0.10920970002E+03  0.15305771556E+03  0.00000000000E+00 0. -1.
        -12    1    4    4    0    0  0.22904351367E+02 -0.91587523434E+01 -0.33796718452E+01  0.24898076991E+02  0.00000000000E+00 0.  1.
</event>
<event>
12    1  0.1597826E-001  0.1733210E+03  0.7818608E-02  0.1174536E+00
         21   -1    0    0  503  502  0.00000000000E+00  0.00000000000E+00  0.61644188324E+03  0.61644188324E+03  0.00000000000E+00 0. -1.
         21   -1    0    0  501  503 -0.00000000000E+00 -0.00000000000E+00 -0.52626417763E+02  0.52626417763E+02  0.00000000000E+00 0. -1.
          6    2    1    2  501    0 -0.16317670543E+02  0.27597319597E+01  0.18920408611E+03  0.25630461986E+03  0.17210458874E+03 0.  0.
         24    2    3    3    0    0  0.54026841591E+02  0.21831726805E+02  0.87879181406E+02  0.13140098625E+03  0.78408830853E+02 0.  0.
         -6    2    1    2    0  502  0.16317670543E+02 -0.27597319597E+01  0.37461137937E+03  0.41276368115E+03  0.17252909444E+03 0.  0.
        -24    2    5    5    0    0  0.71786077447E+02  0.20145479786E+02  0.19665655808E+03  0.22490362336E+03  0.79679085688E+02 0.  0.
          5    1    3    3  501    0 -0.70344512133E+02 -0.19071994845E+02  0.10132490470E+03  0.12490363361E+03  0.47000000000E+01 0. -1.
        -11    1    4    4    0    0  0.37484906031E+02 -0.41365139984E+01  0.92846700873E+02  0.10021346612E+03  0.00000000000E+00 0.  1.
         12    1    4    4    0    0  0.16541935559E+02  0.25968240803E+02 -0.49675194671E+01  0.31187520134E+02  0.00000000000E+00 0. -1.
         -5    1    5    5    0  502 -0.55468406904E+02 -0.22905211746E+02  0.17795482130E+03  0.18786005779E+03  0.47000000000E+01 0.  1.
         11    1    6    6    0    0  0.51296933910E+02  0.48913460693E+02  0.15396231072E+03  0.16949423349E+03  0.00000000000E+00 0. -1.
        -12    1    6    6    0    0  0.20489143537E+02 -0.28767980907E+02  0.42694247360E+02  0.55409389872E+02  0.00000000000E+00 0.  1.
</event>
<event>
12    1  0.1597826E-001  0.1975810E+03  0.7818608E-02  0.1152047E+00
         21   -1    0    0  501  502  0.00000000000E+00  0.00000000000E+00  0.97162422109E+02  0.97162422109E+02  0.00000000000E+00 0. -1.
         21   -1    0    0  502  503 -0.00000000000E+00 -0.00000000000E+00 -0.54959776991E+03  0.54959776991E+03  0.00000000000E+00 0. -1.
         -6    2    1    2    0  503  0.92280897612E+02  0.20262646447E+02 -0.39477648357E+03  0.44093797172E+03  0.17219606274E+03 0.  0.
        -24    2    3    3    0    0  0.34466193949E+02  0.33104384860E+02 -0.36364814585E+03  0.37386701218E+03  0.72475857980E+02 0.  0.
          6    2    1    2  501    0 -0.92280897612E+02 -0.20262646447E+02 -0.57658864232E+02  0.20582222030E+03  0.17352781575E+03 0.  0.
         24    2    5    5    0    0 -0.30081175622E+02  0.27206251925E+02  0.23131414642E+02  0.93255525005E+02  0.80724676091E+02 0.  0.
          5    1    5    5  501    0 -0.62199721990E+02 -0.47468898373E+02 -0.80790278873E+02  0.11256669529E+03  0.47000000000E+01 0. -1.
        -13    1    6    6    0    0 -0.41445712525E+01  0.10014335557E+02 -0.29880723438E+02  0.31785563086E+02  0.00000000000E+00 0.  1.
         14    1    6    6    0    0 -0.25936604369E+02  0.17191916369E+02  0.53012138079E+02  0.61469961920E+02  0.00000000000E+00 0. -1.
         -5    1    3    3    0  503  0.57814703663E+02 -0.12841738413E+02 -0.31128337712E+02  0.67070959541E+02  0.47000000000E+01 0.  1.
         13    1    4    4    0    0  0.42261995932E+02  0.12100316447E+02 -0.33307615989E+03  0.33596461457E+03  0.00000000000E+00 0. -1.
        -14    1    4    4    0    0 -0.77958019826E+01  0.21004068414E+02 -0.30571985966E+02  0.37902397607E+02  0.00000000000E+00 0.  1.
</event>
<event>
12    1  0.1597826E-001  0.1818919E+03  0.7818608E-02  0.1166138E+00
         21   -1    0    0  503  502  0.00000000000E+00  0.00000000000E+00  0.34492702686E+03  0.34492702686E+03  0.00000000000E+00 0. -1.
         21   -1    0    0  501  503 -0.00000000000E+00 -0.00000000000E+00 -0.98429922356E+02  0.98429922356E+02  0.00000000000E+00 0. -1.
          6    2    1    2  501    0  0.56493944595E+02  0.18604142407E+02  0.85308445477E+02  0.20032103954E+03  0.17121129671E+03 0.  0.
         24    2    3    3    0    0  0.70869110159E+02 -0.37110559873E+02  0.87984638432E+02  0.14252808630E+03  0.78570569275E+02 0.  0.
         -6    2    1    2    0  502 -0.56493944595E+02 -0.18604142407E+02  0.16118865903E+03  0.24303590968E+03  0.17189237826E+03 0.  0.
        -24    2    5    5    0    0 -0.10119269857E+03  0.76422652215E+01  0.10522633358E+03  0.16661127759E+03  0.79927279949E+02 0.  0.
          5    1    3    3  501    0 -0.14375165564E+02  0.55714702280E+02 -0.26761929552E+01  0.57792953237E+02  0.47000000000E+01 0. -1.
        -13    1    4    4    0    0  0.39587271249E+02 -0.57015589889E+02  0.34670691176E+02  0.77588571078E+02  0.00000000000E+00 0.  1.
         14    1    4    4    0    0  0.31281838909E+02  0.19905030016E+02  0.53313947257E+02  0.64939515224E+02  0.00000000000E+00 0. -1.
         -5    1    5    5    0  502  0.44698753974E+02 -0.26246407628E+02  0.55962325451E+02  0.76424632090E+02  0.47000000000E+01 0.  1.
         13    1    6    6    0    0  0.59767279593E+01 -0.51929617198E+01 -0.72415212364E+01  0.10729760405E+02  0.00000000000E+00 0. -1.
        -14    1    6    6    0    0 -0.10716942653E+03  0.12835226941E+02  0.11246785481E+03  0.15588151718E+03  0.00000000000E+00 0.  1.
</event>
<event>
12    1  0.1597826E-001  0.1885787E+03  0.7818608E-02  0.1159923E+00
         21   -1    0    0  503  502  0.00000000000E+00  0.00000000000E+00  0.15304164246E+04  0.15304164246E+04  0.00000000000E+00 0. -1.
         21   -1    0    0  501  503 -0.00000000000E+00 -0.00000000000E+00 -0.35779923959E+02  0.35779923959E+02  0.00000000000E+00 0. -1.
          6    2    1    2  501    0 -0.46158799267E+01 -0.76270462590E+02  0.28290634055E+03  0.33999693430E+03  0.17240483751E+03 0.  0.
         24    2    3    3    0    0 -0.31873189446E+02 -0.10750590993E+03  0.18685217217E+03  0.23527297641E+03  0.88691703716E+02 0.  0.
         -6    2    1    2    0  502  0.46158799267E+01  0.76270462590E+02  0.12117301601E+04  0.12261994142E+04  0.17157078088E+03 0.  0.
        -24    2    5    5    0    0 -0.33396909106E+02 -0.59011733340E+01  0.31352457971E+03  0.32343006138E+03  0.71827328617E+02 0.  0.
          5    1    3    3  501    0  0.27257309520E+02  0.31235447339E+02  0.96054168381E+02  0.10472395789E+03  0.47000000000E+01 0. -1.
        -11    1    4    4    0    0 -0.62994687040E+02 -0.75193175010E+02  0.12685224975E+03  0.16035534737E+03  0.00000000000E+00 0.  1.
         12    1    4    4    0    0  0.31121497593E+02 -0.32312734920E+02  0.59999922425E+02  0.74917629043E+02  0.00000000000E+00 0. -1.
         -5    1    5    5    0  502  0.38012789032E+02  0.82171635924E+02  0.89820558035E+03  0.90276935285E+03  0.47000000000E+01 0.  1.
         11    1    6    6    0    0 -0.38013351191E+02 -0.15032567590E+02  0.30988576273E+03  0.31257027834E+03  0.00000000000E+00 0. -1.
        -12    1    6    6    0    0  0.46164420852E+01  0.91313942564E+01  0.36388169737E+01  0.10859783035E+02  0.00000000000E+00 0.  1.
</event>
<event>
12    1  0.1597826E-001  0.1869782E+03  0.7818608E-02  0.1161628E+00
         21   -1    0    0  501  502  0.00000000000E+00  0.00000000000E+00  0.93509485283E+03  0.93509485283E+03  0.00000000000E+00 0.  1.
         21   -1    0    0  502  503 -0.00000000000E+00 -0.00000000000E+00 -0.64809738009E+02  0.64809738009E+02  0.00000000000E+00 0.  1.
         -6    2    1    2    0  503 -0.36502134487E+02  0.63159808098E+02  0.10902646428E+03  0.21644313071E+03  0.17216065676E+03 0.  0.
        -24    2    3    3    0    0 -0.86538863414E+02  0.17223881795E+02  0.55272517587E+02  0.12969429583E+03  0.77329956588E+02 0.  0.
          6    2    1    2  501    0  0.36502134487E+02 -0.63159808098E+02  0.76125865054E+03  0.78346146013E+03  0.17022208818E+03 0.  0.
         24    2    5    5    0    0  0.66879730561E+02  0.25303553623E+00  0.54703336275E+03  0.55794305509E+03  0.87074625346E+02 0.  0.
          5    1    5    5  501    0 -0.30377596074E+02 -0.63412843635E+02  0.21422528780E+03  0.22551840504E+03  0.47000000000E+01 0. -1.
        -11    1    6    6    0    0 -0.37190276864E+01 -0.28427505749E+02  0.23487475834E+03  0.23661806008E+03  0.00000000000E+00 0.  1.
         12    1    6    6    0    0  0.70598758247E+02  0.28680541285E+02  0.31215860441E+03  0.32132499501E+03  0.00000000000E+00 0. -1.
         -5    1    3    3    0  503  0.50036728927E+02  0.45935926304E+02  0.53753946690E+02  0.86748834873E+02  0.47000000000E+01 0.  1.
         13    1    4    4    0    0 -0.20387800094E+02 -0.27359414402E+02  0.31544486515E+02  0.46467780006E+02  0.00000000000E+00 0. -1.
        -14    1    4    4    0    0 -0.66151063319E+02  0.44583296197E+02  0.23728031072E+02  0.83226515826E+02  0.00000000000E+00 0.  1.
</event>
<event>
12    1  0.1597826E-001  0.2212938E+03  0.7818608E-02  0.1133589E+00
         21   -1    0    0  501  502  0.00000000000E+00  0.00000000000E+00  0.17305307152E+04  0.17305307152E+04  0.00000000000E+00 0. -1.
         21   -1    0    0  502  503 -0.00000000000E+00 -0.00000000000E+00 -0.81209429589E+02  0.81209429589E+02  0.00000000000E+00 0. -1.
         -6    2    1    2    0  503  0.94158889540E+02  0.96679344783E+02  0.92631987873E+02  0.23989921376E+03  0.17538003136E+03 0.  0.
        -24    2    3    3    0    0  0.82453053260E+02  0.13687087509E+03  0.58844005982E+02  0.18589825607E+03  0.74588217108E+02 0.  0.
          6    2    1    2  501    0 -0.94158889540E+02 -0.96679344783E+02  0.15566892977E+04  0.15718409310E+04  0.17084949683E+03 0.  0.
         24    2    5    5    0    0 -0.10195167536E+03 -0.87106972147E+02  0.15487352622E+04  0.15564229380E+04  0.76744255285E+02 0.  0.
          5    1    5    5  501    0  0.77927858228E+01 -0.95723726367E+01  0.79540355335E+01  0.15417993061E+02  0.47000000000E+01 0. -1.
        -11    1    6    6    0    0 -0.61478184625E+00  0.76972489754E+01  0.28264691909E+03  0.28275237660E+03  0.00000000000E+00 0.  1.
         12    1    6    6    0    0 -0.10133689352E+03 -0.94804221122E+02  0.12660883431E+04  0.12736705614E+04  0.00000000000E+00 0. -1.
         -5    1    3    3    0  503  0.11705836280E+02 -0.40191530306E+02  0.33787981892E+02  0.54000957692E+02  0.47000000000E+01 0.  1.
         13    1    4    4    0    0  0.10959331083E+02  0.81691966732E+02  0.94542919964E+01  0.82964257386E+02  0.00000000000E+00 0. -1.
        -14    1    4    4    0    0  0.71493722177E+02  0.55178908356E+02  0.49389713985E+02  0.10293399869E+03  0.00000000000E+00 0.  1.
</event>
<event>
12    1  0.1597826E-001  0.1836705E+03  0.7818608E-02  0.1164666E+00
         21   -1    0    0  503  502  0.00000000000E+00  0.00000000000E+00  0.53765849633E+03  0.53765849633E+03  0.00000000000E+00 0. -1.
         21   -1    0    0  501  503 -0.00000000000E+00 -0.00000000000E+00 -0.40148083779E+03  0.40148083779E+03  0.00000000000E+00 0.  1.
          6    2    1    2  501    0 -0.15846940983E+02 -0.56807164498E+02 -0.36361292839E+03  0.40666821311E+03  0.17229769118E+03 0.  0.
         24    2    3    3    0    0 -0.41036573976E+02 -0.21273246876E+02 -0.88908518150E+02  0.12849240554E+03  0.80430232161E+02 0.  0.
         -6    2    1    2    0  502  0.15846940983E+02  0.56807164498E+02  0.49979058694E+03  0.53247112101E+03  0.17394448666E+03 0.  0.
        -24    2    5    5    0    0 -0.59898210038E+01 -0.15081385985E+02  0.39210587995E+03  0.40108278825E+03  0.82807341359E+02 0.  0.
          5    1    3    3  501    0  0.25189632994E+02 -0.35533917623E+02 -0.27470441024E+03  0.27817580757E+03  0.47000000000E+01 0. -1.
        -11    1    4    4    0    0 -0.25667325212E+02 -0.12830773116E+02 -0.10241451170E+03  0.10635869748E+03  0.00000000000E+00 0.  1.
         12    1    4    4    0    0 -0.15369248764E+02 -0.84424737598E+01  0.13505993551E+02  0.22133708062E+02  0.00000000000E+00 0. -1.
         -5    1    5    5    0  502  0.21836761986E+02  0.71888550483E+02  0.10768470699E+03  0.13138833275E+03  0.47000000000E+01 0.  1.
         13    1    6    6    0    0  0.78427755000E+01  0.27014110745E+02  0.26472304493E+03  0.26621337649E+03  0.00000000000E+00 0. -1.
        -14    1    6    6    0    0 -0.13832596504E+02 -0.42095496729E+02  0.12738283502E+03  0.13486941176E+03  0.00000000000E+00 0.  1.
</event>
<event>
12    1  0.1597826E-001  0.1762637E+03  0.7818608E-02  0.1171766E+00
         21   -1    0    0  501  502  0.00000000000E+00  0.00000000000E+00  0.78404712212E+02  0.78404712212E+02  0.00000000000E+00 0.  1.
         21   -1    0    0  502  503 -0.00000000000E+00 -0.00000000000E+00 -0.48593356903E+03  0.48593356903E+03  0.00000000000E+00 0.  1.
         -6    2    1    2    0  503 -0.33833032097E+02  0.34337674408E+01 -0.32621003806E+03  0.37022068735E+03  0.17173789212E+03 0.  0.
        -24    2    3    3    0    0  0.18624126900E+02  0.15309033514E+02 -0.70383648185E+02  0.10875939532E+03  0.79331730905E+02 0.  0.
          6    2    1    2  501    0  0.33833032097E+02 -0.34337674408E+01 -0.81318818763E+02  0.19411759390E+03  0.17295208919E+03 0.  0.
         24    2    5    5    0    0  0.47028586360E+02  0.32113574535E+02  0.62333141181E+01  0.98591669949E+02  0.80240224165E+02 0.  0.
          5    1    5    5  501    0 -0.13195554262E+02 -0.35547341976E+02 -0.87552132881E+02  0.95525923947E+02  0.47000000000E+01 0. -1.
        -13    1    6    6    0    0 -0.15500865949E+02 -0.88994986933E+01  0.14954894130E+02  0.23305080575E+02  0.00000000000E+00 0.  1.
         14    1    6    6    0    0  0.62529452309E+02  0.41013073228E+02 -0.87215800119E+01  0.75286589374E+02  0.00000000000E+00 0. -1.
         -5    1    3    3    0  503 -0.52457158998E+02 -0.11875266073E+02 -0.25582638987E+03  0.26146129203E+03  0.47000000000E+01 0.  1.
         13    1    4    4    0    0  0.16512266444E+02 -0.31455512041E+02 -0.36772858153E+02  0.51130688218E+02  0.00000000000E+00 0. -1.
        -14    1    4    4    0    0  0.21118604561E+01  0.46764545555E+02 -0.33610790033E+02  0.57628707102E+02  0.00000000000E+00 0.  1.
</event>
<event>
12    1  0.1597826E-001  0.1808631E+03  0.7818608E-02  0.1168400E+00
         21   -1    0    0  503  502  0.00000000000E+00  0.00000000000E+00  0.16353193114E+03  0.16353193114E+03  0.00000000000E+00 0.  1.
         21   -1    0    0  501  503 -0.00000000000E+00 -0.00000000000E+00 -0.19600734573E+03  0.19600734573E+03  0.00000000000E+00 0. -1.
          6    2    1    2  501    0 -0.53573323305E+02  0.13227617673E+02 -0.36330425084E+02  0.18447591084E+03  0.17223934236E+03 0.  0.
         24    2    3    3    0    0  0.33258751193E+02 -0.12692973094E+02 -0.32926585320E+02  0.93671933439E+02  0.80143714641E+02 0.  0.
         -6    2    1    2    0  502  0.53573323305E+02 -0.13227617673E+02  0.38550104931E+01  0.17506336603E+03  0.16609410038E+03 0.  0.
        -24    2    5    5    0    0  0.40129681864E+02  0.48945515148E+02 -0.21079138912E+02  0.10657955958E+03  0.83119297415E+02 0.  0.
          5    1    3    3  501    0 -0.86832074498E+02  0.25920590768E+02 -0.34038397641E+01  0.90803977405E+02  0.47000000000E+01 0. -1.
        -13    1    4    4    0    0  0.44590632254E+02  0.11832706016E+02  0.57528656084E+01  0.46491212924E+02  0.00000000000E+00 0.  1.
         14    1    4    4    0    0 -0.11331881061E+02 -0.24525679110E+02 -0.38679450928E+02  0.47180720515E+02  0.00000000000E+00 0. -1.
         -5    1    5    5    0  502  0.13443641442E+02 -0.62173132821E+02  0.24934149405E+02  0.68483806455E+02  0.47000000000E+01 0.  1.
         11    1    6    6    0    0  0.55334966467E+01  0.62854087375E+02 -0.27347973873E+02  0.68768943280E+02  0.00000000000E+00 0. -1.
        -12    1    6    6    0    0  0.34596185217E+02 -0.13908572228E+02  0.62688349608E+01  0.37810616297E+02  0.00000000000E+00 0.  1.
</event>
<event>
12    1  0.1597826E-001  0.2256963E+03  0.7818608E-02  0.1133021E+00
         21   -1    0    0  503  502  0.00000000000E+00  0.00000000000E+00  0.22330825185E+03  0.22330825185E+03  0.00000000000E+00 0.  1.
         21   -1    0    0  501  503 -0.00000000000E+00 -0.00000000000E+00 -0.21157299757E+03  0.21157299757E+03  0.00000000000E+00 0.  1.
          6    2    1    2  501    0  0.43962964313E+02 -0.10998977012E+03 -0.86199116735E+01  0.20826888779E+03  0.17108809128E+03 0.  0.
         24    2    3    3    0    0  0.76227692608E+02 -0.78818008667E+02 -0.52596548351E+02  0.14527106260E+03  0.79462853718E+02 0.  0.
         -6    2    1    2    0  502 -0.43962964313E+02  0.10998977012E+03  0.20355165959E+02  0.22661236163E+03  0.19211542859E+03 0.  0.
        -24    2    5    5    0    0  0.18190311362E+02  0.22383791059E+02  0.69334951917E+02  0.10846437529E+03  0.78264063399E+02 0.  0.
          5    1    3    3  501    0 -0.32264728295E+02 -0.31171761456E+02  0.43976636678E+02  0.62997825182E+02  0.47000000000E+01 0. -1.
        -11    1    4    4    0    0  0.13198498381E+02 -0.37557762698E+02  0.16457779169E+02  0.43077191106E+02  0.00000000000E+00 0.  1.
         12    1    4    4    0    0  0.63029194226E+02 -0.41260245968E+02 -0.69054327521E+02  0.10219387150E+03  0.00000000000E+00 0. -1.
         -5    1    5    5    0  502 -0.62153275675E+02  0.87605979063E+02 -0.48979785958E+02  0.11814798634E+03  0.47000000000E+01 0.  1.
         13    1    6    6    0    0  0.40473286949E+02  0.99144486207E+01  0.85557398246E+01  0.42539204645E+02  0.00000000000E+00 0. -1.
        -14    1    6    6    0    0 -0.22282975587E+02  0.12469342439E+02  0.60779212092E+02  0.65925170644E+02  0.00000000000E+00 0.  1.
</event>
<event>
12    1  0.1597826E-001  0.1834978E+03  0.7818608E-02  0.1168120E+00
         21   -1    0    0  503  502  0.00000000000E+00  0.00000000000E+00  0.75888819284E+02  0.75888819284E+02  0.00000000000E+00 0.  1.
         21   -1    0    0  501  503 -0.00000000000E+00 -0.00000000000E+00 -0.50656361590E+03  0.50656361590E+03  0.00000000000E+00 0.  1.
          6    2    1    2  501    0  0.43911256824E+02  0.46779937564E+02 -0.94650385612E+02  0.20647063277E+03  0.17191528631E+03 0.  0.
         24    2    3    3    0    0  0.69397243876E+02  0.86277007567E+02 -0.68182118465E+02  0.15232071827E+03  0.79329064309E+02 0.  0.
         -6    2    1    2    0  502 -0.43911256824E+02 -0.46779937564E+02 -0.33602441100E+03  0.37598180241E+03  0.15599150592E+03 0.  0.
        -24    2    5    5    0    0 -0.34141049138E+02 -0.62945840696E+02 -0.13249871925E+03  0.17152742954E+03  0.82085067974E+02 0.  0.
          5    1    3    3  501    0 -0.25485987052E+02 -0.39497070003E+02 -0.26468267147E+02  0.54149914502E+02  0.47000000000E+01 0. -1.
        -11    1    4    4    0    0  0.30383010491E+02  0.80854709378E+02 -0.17496239397E+02  0.88129051670E+02  0.00000000000E+00 0.  1.
         12    1    4    4    0    0  0.39014233384E+02  0.54222981886E+01 -0.50685879068E+02  0.64191666602E+02  0.00000000000E+00 0. -1.
         -5    1    5    5    0  502 -0.97702076860E+01  0.16165903132E+02 -0.20352569175E+03  0.20445437287E+03  0.47000000000E+01 0.  1.
         13    1    6    6    0    0 -0.18601594214E+02 -0.81724739897E+02 -0.93788872373E+02  0.12578276909E+03  0.00000000000E+00 0. -1.
        -14    1    6    6    0    0 -0.15539454924E+02  0.18778899201E+02 -0.38709846877E+02  0.45744660450E+02  0.00000000000E+00 0.  1.
</event>
<event>
12    1  0.1597826E-001  0.1968201E+03  0.7818608E-02  0.1152649E+00
         21   -1    0    0  501  502  0.00000000000E+00  0.00000000000E+00  0.61046969052E+03  0.61046969052E+03  0.00000000000E+00 0. -1.
         21   -1    0    0  502  503 -0.00000000000E+00 -0.00000000000E+00 -0.77757246697E+02  0.77757246697E+02  0.00000000000E+00 0. -1.
         -6    2    1    2    0  503  0.93370248092E+02  0.20426928269E+02  0.11674616940E+03  0.22804642455E+03  0.17099778084E+03 0.  0.
        -24    2    3    3    0    0  0.35866300470E+02 -0.17675153182E+02  0.12997410307E+03  0.15765082218E+03  0.79760339244E+02 0.  0.
          6    2    1    2  501    0 -0.93370248092E+02 -0.20426928269E+02  0.41596627443E+03  0.46018051267E+03  0.17205493355E+03 0.  0.
         24    2    5    5    0    0  0.14074271118E+02  0.30879037316E+01  0.23542663442E+03  0.24872384183E+03  0.78931799937E+02 0.  0.
          5    1    5    5  501    0 -0.10744451921E+03 -0.23514832000E+02  0.18053964000E+03  0.21145667084E+03  0.47000000000E+01 0. -1.
        -13    1    6    6    0    0  0.19311313585E+02  0.26777345627E+02  0.21345195831E+03  0.21599002657E+03  0.00000000000E+00 0.  1.
         14    1    6    6    0    0 -0.52370424662E+01 -0.23689441896E+02  0.21974676113E+02  0.32733815259E+02  0.00000000000E+00 0. -1.
         -5    1    3    3    0  503  0.57503947622E+02  0.38102081451E+02 -0.13227933671E+02  0.70395602364E+02  0.47000000000E+01 0.  1.
         13    1    4    4    0    0  0.21560403885E+02 -0.49625414370E+02  0.75091031575E+02  0.92553745414E+02  0.00000000000E+00 0. -1.
        -14    1    4    4    0    0  0.14305896586E+02  0.31950261187E+02  0.54883071494E+02  0.65097076768E+02  0.00000000000E+00 0.  1.
</event>
<event>
12    1  0.1597826E-001  0.2091166E+03  0.7818608E-02  0.1142830E+00
         21   -1    0    0  503  502  0.00000000000E+00  0.00000000000E+00  0.15531012116E+03  0.15531012116E+03  0.00000000000E+00 0. -1.
         21   -1    0    0  501  503 -0.00000000000E+00 -0.00000000000E+00 -0.54391014814E+03  0.54391014814E+03  0.00000000000E+00 0. -1.
          6    2    1    2  501    0 -0.10918412619E+03 -0.41511110153E+02 -0.43816781037E+03  0.48430935938E+03  0.17005934217E+03 0.  0.
         24    2    3    3    0    0 -0.54927517416E+02 -0.60565994063E+02 -0.39811428875E+03  0.41407231224E+03  0.79218817552E+02 0.  0.
         -6    2    1    2    0  502  0.10918412619E+03  0.41511110153E+02  0.49567783388E+02  0.21491090992E+03  0.17345140062E+03 0.  0.
        -24    2    5    5    0    0  0.14570490288E+03  0.41389657206E+02  0.45475900893E+02  0.17786208560E+03  0.81386985976E+02 0.  0.
          5    1    3    3  501    0 -0.54256608770E+02  0.19054883909E+02 -0.40053521621E+02  0.70237047136E+02  0.47000000000E+01 0. -1.
        -11    1    4    4    0    0 -0.76076456601E+00  0.64218871321E+01 -0.17171588242E+03  0.17183760844E+03  0.00000000000E+00 0.  1.
         12    1    4    4    0    0 -0.54166752850E+02 -0.66987881195E+02 -0.22639840632E+03  0.24223470380E+03  0.00000000000E+00 0. -1.
         -5    1    5    5    0  502 -0.36520776692E+02  0.12145294755E+00  0.40918824948E+01  0.37048824318E+02  0.47000000000E+01 0.  1.
         13    1    6    6    0    0  0.92775231080E+02 -0.12210471297E+02  0.85387947955E+01  0.93964089565E+02  0.00000000000E+00 0. -1.
        -14    1    6    6    0    0  0.52929671799E+02  0.53600128502E+02  0.36937106097E+02  0.83897996037E+02  0.00000000000E+00 0.  1.
</event>
<event>
12    1  0.1597826E-001  0.2571991E+03  0.7818608E-02  0.1109316E+00
         21   -1    0    0  503  502  0.00000000000E+00  0.00000000000E+00  0.35954404798E+03  0.35954404798E+03  0.00000000000E+00 0. -1.
         21   -1    0    0  501  503 -0.00000000000E+00 -0.00000000000E+00 -0.18264208412E+03  0.18264208412E+03  0.00000000000E+00 0. -1.
          6    2    1    2  501    0 -0.45973268311E+02 -0.18180015974E+03  0.69091513750E+02  0.26330540699E+03  0.17143879549E+03 0.  0.
         24    2    3    3    0    0 -0.79304834275E+02 -0.14338976298E+03  0.94021269774E+02  0.20647289337E+03  0.83313718320E+02 0.  0.
         -6    2    1    2    0  502  0.45973268311E+02  0.18180015974E+03  0.10781045010E+03  0.27888072511E+03  0.17602990145E+03 0.  0.
        -24    2    5    5    0    0  0.78033163007E+02  0.16650767231E+03  0.46348005022E+02  0.20773707342E+03  0.84809048098E+02 0.  0.
          5    1    3    3  501    0  0.33331565964E+02 -0.38410396757E+02 -0.24929756024E+02  0.56832513617E+02  0.47000000000E+01 0. -1.
        -11    1    4    4    0    0 -0.63447184594E+02 -0.70673425233E+02  0.91687623112E+02  0.13201097871E+03  0.00000000000E+00 0.  1.
         12    1    4    4    0    0 -0.15857649681E+02 -0.72716337750E+02  0.23336466620E+01  0.74461914667E+02  0.00000000000E+00 0. -1.
         -5    1    5    5    0  502 -0.32059894697E+02  0.15292487433E+02  0.61462445081E+02  0.71143651686E+02  0.47000000000E+01 0.  1.
         13    1    6    6    0    0 -0.36626216844E+01  0.53611983969E+02  0.42190766898E+02  0.68320717460E+02  0.00000000000E+00 0. -1.
        -14    1    6    6    0    0  0.81695784692E+02  0.11289568834E+03  0.41572381242E+01  0.13941635597E+03  0.00000000000E+00 0.  1.
</event>
<event>
12    1  0.1597826E-001  0.2161857E+03  0.7818608E-02  0.1136921E+00
         21   -1    0    0  501  502  0.00000000000E+00  0.00000000000E+00  0.91895464001E+03  0.91895464001E+03  0.00000000000E+00 0.  1.
         21   -1    0    0  502  503 -0.00000000000E+00 -0.00000000000E+00 -0.51578252249E+02  0.51578252249E+02  0.00000000000E+00 0.  1.
         -6    2    1    2    0  503 -0.99476587416E+02  0.84655809964E+02  0.36974630398E+03  0.42830900795E+03  0.17226165963E+03 0.  0.
        -24    2    3    3    0    0 -0.46417024040E+02  0.11518381189E+03  0.30590749242E+03  0.33973835802E+03  0.80130564383E+02 0.  0.
          6    2    1    2  501    0  0.99476587416E+02 -0.84655809964E+02  0.49763008378E+03  0.54222388431E+03  0.17119825592E+03 0.  0.
         24    2    5    5    0    0  0.15927610413E+02 -0.98013600809E+02  0.33383720600E+03  0.35780843229E+03  0.81970966730E+02 0.  0.
          5    1    5    5  501    0  0.83548977003E+02  0.13357790845E+02  0.16379287777E+03  0.18441545202E+03  0.47000000000E+01 0. -1.
        -13    1    6    6    0    0  0.43123565941E+02 -0.78553874858E+02  0.28390917842E+03  0.29771592968E+03  0.00000000000E+00 0.  1.
         14    1    6    6    0    0 -0.27195955528E+02 -0.19459725951E+02  0.49928027586E+02  0.60092502609E+02  0.00000000000E+00 0. -1.
         -5    1    3    3    0  503 -0.53059563377E+02 -0.30528001926E+02  0.63838811558E+02  0.88570649927E+02  0.47000000000E+01 0.  1.
         13    1    4    4    0    0 -0.16179818849E+02 -0.59603465783E+01  0.77859072117E+02  0.79745516365E+02  0.00000000000E+00 0. -1.
        -14    1    4    4    0    0 -0.30237205191E+02  0.12114415847E+03  0.22804842031E+03  0.25999284166E+03  0.00000000000E+00 0.  1.
</event>
<event>
12    1  0.1597826E-001  0.3782366E+03  0.7818608E-02  0.1051595E+00
         21   -1    0    0  501  502  0.00000000000E+00  0.00000000000E+00  0.47399109517E+03  0.47399109517E+03  0.00000000000E+00 0.  1.
         21   -1    0    0  502  503 -0.00000000000E+00 -0.00000000000E+00 -0.30646316718E+03  0.30646316718E+03  0.00000000000E+00 0. -1.
         -6    2    1    2    0  503 -0.28475502214E+03  0.17848855615E+03  0.35449627014E+02  0.37989421513E+03  0.17354927635E+03 0.  0.
        -24    2    3    3    0    0 -0.16137539015E+03  0.16480219813E+03 -0.16648586469E+02  0.24518651737E+03  0.81470680710E+02 0.  0.
          6    2    1    2  501    0  0.28475502214E+03 -0.17848855615E+03  0.13207830097E+03  0.40056004723E+03  0.17337844888E+03 0.  0.
         24    2    5    5    0    0  0.16678386561E+03 -0.11840189198E+03  0.15146636337E+03  0.26667357312E+03  0.79604456637E+02 0.  0.
          5    1    5    5  501    0  0.11797115653E+03 -0.60086664165E+02 -0.19388062399E+02  0.13388647410E+03  0.47000000000E+01 0. -1.
        -11    1    6    6    0    0  0.75310827821E+02 -0.95675524456E+02  0.10850012897E+03  0.16308833420E+03  0.00000000000E+00 0.  1.
         12    1    6    6    0    0  0.91473037789E+02 -0.22726367527E+02  0.42966234403E+02  0.10358523892E+03  0.00000000000E+00 0. -1.
         -5    1    3    3    0  503 -0.12337963199E+03  0.13686358019E+02  0.52098213483E+02  0.13470769775E+03  0.47000000000E+01 0.  1.
         11    1    4    4    0    0 -0.94257639273E+02  0.91627805763E+02 -0.49700999028E+02  0.14053592656E+03  0.00000000000E+00 0. -1.
        -12    1    4    4    0    0 -0.67117750878E+02  0.73174392366E+02  0.33052412559E+02  0.10465059081E+03  0.00000000000E+00 0.  1.
</event>
<event>
12    1  0.1597826E-001  0.2192546E+03  0.7818608E-02  0.1134516E+00
         21   -1    0    0  501  502  0.00000000000E+00  0.00000000000E+00  0.17805415710E+03  0.17805415710E+03  0.00000000000E+00 0.  1.
         21   -1    0    0  502  503 -0.00000000000E+00 -0.00000000000E+00 -0.27369424839E+03  0.27369424839E+03  0.00000000000E+00 0. -1.
         -6    2    1    2    0  503  0.97800589234E+02  0.93279780531E+02 -0.75776505333E+02  0.23159584896E+03  0.17212927056E+03 0.  0.
        -24    2    3    3    0    0  0.11773802426E+01  0.33754714022E+02 -0.76483417008E+02  0.11800945989E+03  0.83281165953E+02 0.  0.
          6    2    1    2  501    0 -0.97800589234E+02 -0.93279780531E+02 -0.19863585950E+02  0.22015255653E+03  0.17264562951E+03 0.  0.
         24    2    5    5    0    0 -0.12025909595E+03 -0.31643284198E+02  0.11755684373E+02  0.14717783173E+03  0.77843242762E+02 0.  0.
          5    1    5    5  501    0  0.22458506715E+02 -0.61636496333E+02 -0.31619270323E+02  0.72974724801E+02  0.47000000000E+01 0. -1.
        -11    1    6    6    0    0 -0.86872513169E+02  0.12002609320E+02  0.23909606382E+02  0.90898654842E+02  0.00000000000E+00 0.  1.
         12    1    6    6    0    0 -0.33386582780E+02 -0.43645893518E+02 -0.12153922009E+02  0.56279176885E+02  0.00000000000E+00 0. -1.
         -5    1    3    3    0  503  0.96623208991E+02  0.59525066509E+02  0.70691167435E+00  0.11358638907E+03  0.47000000000E+01 0.  1.
         11    1    4    4    0    0 -0.19917992929E+02  0.49011404510E+02 -0.75198183042E+02  0.91943520420E+02  0.00000000000E+00 0. -1.
        -12    1    4    4    0    0  0.21095373172E+02 -0.15256690488E+02 -0.12852339656E+01  0.26065939466E+02  0.00000000000E+00 0.  1.
</event>
<event>
12    1  0.1597826E-001  0.2140855E+03  0.7818608E-02  0.1139256E+00
         21   -1    0    0  501  502  0.00000000000E+00  0.00000000000E+00  0.20465536361E+03  0.20465536361E+03  0.00000000000E+00 0.  1.
         21   -1    0    0  502  503 -0.00000000000E+00 -0.00000000000E+00 -0.29809702555E+03  0.29809702555E+03  0.00000000000E+00 0.  1.
         -6    2    1    2    0  503  0.11777348114E+03 -0.18148621705E+02 -0.17564184324E+03  0.27342846537E+03  0.17237489159E+03 0.  0.
        -24    2    3    3    0    0  0.68016146300E+02  0.28795379215E+02 -0.29961126354E+02  0.11241761833E+03  0.79275984997E+02 0.  0.
          6    2    1    2  501    0 -0.11777348114E+03  0.18148621705E+02  0.82200181301E+02  0.22932392379E+03  0.17785563496E+03 0.  0.
         24    2    5    5    0    0 -0.12024447067E+03 -0.43830146213E+02  0.66486590609E+02  0.16516412022E+03  0.80491648207E+02 0.  0.
          5    1    5    5  501    0  0.24709895334E+01  0.61978767918E+02  0.15713590692E+02  0.64159803571E+02  0.47000000000E+01 0. -1.
        -11    1    6    6    0    0 -0.11303739243E+03 -0.12352260471E+02  0.32458090832E+02  0.11825209548E+03  0.00000000000E+00 0.  1.
         12    1    6    6    0    0 -0.72070782481E+01 -0.31477885742E+02  0.34028499777E+02  0.46912024735E+02  0.00000000000E+00 0. -1.
         -5    1    3    3    0  503  0.49757334840E+02 -0.46944000920E+02 -0.14568071688E+03  0.16101084704E+03  0.47000000000E+01 0.  1.
         11    1    4    4    0    0  0.33408163070E+02 -0.92121749192E-01  0.24713011865E+02  0.41555346245E+02  0.00000000000E+00 0. -1.
        -12    1    4    4    0    0  0.34607983230E+02  0.28887500965E+02 -0.54674138219E+02  0.70862272086E+02  0.00000000000E+00 0.  1.
</event>
<event>
12    1  0.1597826E-001  0.1885580E+03  0.7818608E-02  0.1160333E+00
         21   -1    0    0  501  502  0.00000000000E+00  0.00000000000E+00  0.44230523062E+03  0.44230523062E+03  0.00000000000E+00 0.  1.
         21   -1    0    0  502  503 -0.00000000000E+00 -0.00000000000E+00 -0.18990829823E+03  0.18990829823E+03  0.00000000000E+00 0.  1.
         -6    2    1    2    0  503 -0.69070051480E+02 -0.77243676585E+01 -0.11465603338E+03  0.22068103593E+03  0.17528198927E+03 0.  0.
        -24    2    3    3    0    0 -0.61076253132E+02 -0.48051689747E+02 -0.14054083862E+02  0.11190127694E+03  0.79278653645E+02 0.  0.
          6    2    1    2  501    0  0.69070051480E+02  0.77243676585E+01  0.36705296577E+03  0.41153249292E+03  0.17262901025E+03 0.  0.
         24    2    5    5    0    0 -0.10408044521E+02  0.24727904157E+01  0.78362748818E+02  0.11201875672E+03  0.79328679380E+02 0.  0.
          5    1    5    5  501    0  0.79478096000E+02  0.52515772429E+01  0.28869021695E+03  0.29951373620E+03  0.47000000000E+01 0. -1.
        -11    1    6    6    0    0 -0.36590113318E+02  0.24517546791E+02  0.55522037657E+02  0.70870608568E+02  0.00000000000E+00 0.  1.
         12    1    6    6    0    0  0.26182068797E+02 -0.22044756376E+02  0.22840711162E+02  0.41148148154E+02  0.00000000000E+00 0. -1.
         -5    1    3    3    0  503 -0.79937983478E+01  0.40327322089E+02 -0.10060194952E+03  0.10877975899E+03  0.47000000000E+01 0.  1.
         13    1    4    4    0    0 -0.36734015004E+02  0.15524136397E+02  0.73245207140E+01  0.40546704834E+02  0.00000000000E+00 0. -1.
        -14    1    4    4    0    0 -0.24342238128E+02 -0.63575826145E+02 -0.21378604576E+02  0.71354572107E+02  0.00000000000E+00 0.  1.
</event>
<event>
12    1  0.1597826E-001  0.1979421E+03  0.7818608E-02  0.1153077E+00
         21   -1    0    0  503  502  0.00000000000E+00  0.00000000000E+00  0.42119893847E+02  0.42119893847E+02  0.00000000000E+00 0. -1.
         21   -1    0    0  501  503 -0.00000000000E+00 -0.00000000000E+00 -0.10615185946E+04  0.10615185946E+04  0.00000000000E+00 0. -1.
          6    2    1    2  501    0 -0.76007262198E+02 -0.52689785010E+02 -0.71930161865E+03  0.74413978941E+03  0.16672099522E+03 0.  0.
         24    2    3    3    0    0 -0.33849733410E+02  0.31603150617E+02 -0.31593205590E+03  0.32987942397E+03  0.82842059539E+02 0.  0.
         -6    2    1    2    0  502  0.76007262198E+02  0.52689785010E+02 -0.30009708207E+03  0.35949869900E+03  0.17500782429E+03 0.  0.
        -24    2    5    5    0    0  0.55717141864E+02  0.51040355375E+02 -0.31283819192E+03  0.33502758375E+03  0.93092587119E+02 0.  0.
          5    1    3    3  501    0 -0.42157528788E+02 -0.84292935627E+02 -0.40336956274E+03  0.41426036545E+03  0.47000000000E+01 0. -1.
        -11    1    4    4    0    0  0.20944270767E+02 -0.11322268151E+02 -0.10845908552E+03  0.11104156639E+03  0.00000000000E+00 0.  1.
         12    1    4    4    0    0 -0.54794004177E+02  0.42925418768E+02 -0.20747297038E+03  0.21883785758E+03  0.00000000000E+00 0. -1.
         -5    1    5    5    0  502  0.20290120334E+02  0.16494296355E+01  0.12741109850E+02  0.24471115248E+02  0.47000000000E+01 0.  1.
         11    1    6    6    0    0  0.35987234770E+02  0.69145793140E+02 -0.14097369706E+03  0.16108943181E+03  0.00000000000E+00 0. -1.
        -12    1    6    6    0    0  0.19729907094E+02 -0.18105437765E+02 -0.17186449486E+03  0.17393815195E+03  0.00000000000E+00 0.  1.
</event>
<event>
12    1  0.1597826E-001  0.2500180E+03  0.7818608E-02  0.1113543E+00
         21   -1    0    0  503  502  0.00000000000E+00  0.00000000000E+00  0.38947070982E+03  0.38947070982E+03  0.00000000000E+00 0.  1.
         21   -1    0    0  501  503 -0.00000000000E+00 -0.00000000000E+00 -0.16334811204E+03  0.16334811204E+03  0.00000000000E+00 0.  1.
          6    2    1    2  501    0  0.12427835638E+03 -0.13190626075E+03  0.70924180772E+02  0.25988311552E+03  0.17223420922E+03 0.  0.
         24    2    3    3    0    0  0.73749283163E+02 -0.15432784180E+03  0.29319322962E+02  0.19053638719E+03  0.78666718643E+02 0.  0.
         -6    2    1    2    0  502 -0.12427835638E+03  0.13190626075E+03  0.15519841700E+03  0.29293570634E+03  0.16994236647E+03 0.  0.
        -24    2    5    5    0    0 -0.27823759824E+02  0.37443333133E+02  0.12383500958E+03  0.15425446314E+03  0.79266417817E+02 0.  0.
          5    1    3    3  501    0  0.50529073217E+02  0.22421581055E+02  0.41604857810E+02  0.69346728334E+02  0.47000000000E+01 0. -1.
        -11    1    4    4    0    0  0.77144967397E+02 -0.70920279733E+02  0.16309668201E+02  0.10605205019E+03  0.00000000000E+00 0.  1.
         12    1    4    4    0    0 -0.33956842344E+01 -0.83407562068E+02  0.13009654762E+02  0.84484337002E+02  0.00000000000E+00 0. -1.
         -5    1    5    5    0  502 -0.96454596555E+02  0.94462927613E+02  0.31363407417E+02  0.13868124320E+03  0.47000000000E+01 0.  1.
         11    1    6    6    0    0  0.24183740036E+02 -0.55449121601E+00  0.54451833351E+02  0.59583243433E+02  0.00000000000E+00 0. -1.
        -12    1    6    6    0    0 -0.52007499861E+02  0.37997824349E+02  0.69383176231E+02  0.94671219708E+02  0.00000000000E+00 0.  1.
</event>
<event>
12    1  0.1597826E-001  0.1866363E+03  0.7818608E-02  0.1161664E+00
         21   -1    0    0  503  502  0.00000000000E+00  0.00000000000E+00  0.38354562364E+03  0.38354562364E+03  0.00000000000E+00 0.  1.
         21   -1    0    0  501  503 -0.00000000000E+00 -0.00000000000E+00 -0.94734870787E+02  0.94734870787E+02  0.00000000000E+00 0.  1.
          6    2    1    2  501    0 -0.50948008340E+02  0.48505544118E+02  0.19494548073E+03  0.26988302900E+03  0.17287169092E+03 0.  0.
         24    2    3    3    0    0 -0.45509682772E+02  0.27196973614E+02  0.21763652697E+03  0.23793613335E+03  0.80231783486E+02 0.  0.
         -6    2    1    2    0  502  0.50948008340E+02 -0.48505544118E+02  0.93865272128E+02  0.20839746543E+03  0.17225076755E+03 0.  0.
        -24    2    5    5    0    0  0.43401845001E+02 -0.12299235181E+02  0.12861994487E+03  0.15742866453E+03  0.78776283623E+02 0.  0.
          5    1    3    3  501    0 -0.54383255681E+01  0.21308570504E+02 -0.22691046244E+02  0.31946895648E+02  0.47000000000E+01 0. -1.
        -11    1    4    4    0    0  0.14769088313E+02 -0.12114374874E+02  0.84106028194E+02  0.86247945058E+02  0.00000000000E+00 0.  1.
         12    1    4    4    0    0 -0.60278771084E+02  0.39311348488E+02  0.13353049878E+03  0.15168818829E+03  0.00000000000E+00 0. -1.
         -5    1    5    5    0  502  0.75461633385E+01 -0.36206308937E+02 -0.34754672743E+02  0.50968800902E+02  0.47000000000E+01 0.  1.
         11    1    6    6    0    0  0.34926301146E+02 -0.28676699006E+02  0.23946517413E+02  0.51143281806E+02  0.00000000000E+00 0. -1.
        -12    1    6    6    0    0  0.84755438548E+01  0.16377463825E+02  0.10467342746E+03  0.10628538272E+03  0.00000000000E+00 0.  1.
</event>
<event>
12    1  0.1597826E-001  0.1857503E+03  0.7818608E-02  0.1164298E+00
         21   -1    0    0  501  502  0.00000000000E+00  0.00000000000E+00  0.77949059132E+02  0.77949059132E+02  0.00000000000E+00 0. -1.
         21   -1    0    0  502  503 -0.00000000000E+00 -0.00000000000E+00 -0.56290009669E+03  0.56290009669E+03  0.00000000000E+00 0. -1.
         -6    2    1    2    0  503 -0.11247366597E+02 -0.44062349076E+02 -0.39787743027E+03  0.43570289605E+03  0.17164664357E+03 0.  0.
        -24    2    3    3    0    0 -0.12332508787E+02  0.38058827081E+02 -0.16194522681E+03  0.18584061451E+03  0.81914055108E+02 0.  0.
          6    2    1    2  501    0  0.11247366597E+02  0.44062349076E+02 -0.87073607293E+02  0.20514625977E+03  0.18009769835E+03 0.  0.
         24    2    5    5    0    0  0.65197065820E+01  0.95831456734E+02 -0.88593107917E+02  0.15292758343E+03  0.79447670386E+02 0.  0.
          5    1    5    5  501    0  0.47276600148E+01 -0.51769107658E+02  0.15195006241E+01  0.52218676343E+02  0.47000000000E+01 0. -1.
        -13    1    6    6    0    0  0.21716298292E+02  0.92536788559E+02 -0.96527733676E+02  0.13547050682E+03  0.00000000000E+00 0.  1.
         14    1    6    6    0    0 -0.15196591710E+02  0.32946681749E+01  0.79346257591E+01  0.17457076614E+02  0.00000000000E+00 0. -1.
         -5    1    3    3    0  503  0.10851421899E+01 -0.82121176157E+02 -0.23593220346E+03  0.24986228154E+03  0.47000000000E+01 0.  1.
         11    1    4    4    0    0  0.29538253290E+02  0.39430511879E+02 -0.88002981685E+02  0.10085533432E+03  0.00000000000E+00 0. -1.
        -12    1    4    4    0    0 -0.41870762077E+02 -0.13716847988E+01 -0.73942245122E+02  0.84985280194E+02  0.00000000000E+00 0.  1.
</event>
<event>
12    1  0.1597826E-001  0.2027106E+03  0.7818608E-02  0.1147545E+00
         21   -1    0    0  501  502  0.00000000000E+00  0.00000000000E+00  0.68609008346E+03  0.68609008346E+03  0.00000000000E+00 0.  1.
         21   -1    0    0  502  503 -0.00000000000E+00 -0.00000000000E+00 -0.19158020772E+03  0.19158020772E+03  0.00000000000E+00 0.  1.
         -6    2    1    2    0  503  0.10642637700E+03 -0.88754402958E+01 -0.11678685692E+03  0.23363978907E+03  0.17188087132E+03 0.  0.
        -24    2    3    3    0    0  0.62913234143E+02 -0.70792418078E+02 -0.45640280115E+02  0.12966368061E+03  0.75894620446E+02 0.  0.
          6    2    1    2  501    0 -0.10642637700E+03  0.88754402958E+01  0.61129673265E+03  0.64403050212E+03  0.17229696789E+03 0.  0.
         24    2    5    5    0    0 -0.86212336176E+02 -0.11608856067E+02  0.20789541047E+03  0.23957663505E+03  0.81296555408E+02 0.  0.
          5    1    5    5  501    0 -0.20214040828E+02  0.20484296363E+02  0.40340132219E+03  0.40445386707E+03  0.47000000000E+01 0. -1.
        -13    1    6    6    0    0 -0.73611916365E+02 -0.24559671492E+02  0.20746420159E+03  0.22150234003E+03  0.00000000000E+00 0.  1.
         14    1    6    6    0    0 -0.12600419811E+02  0.12950815426E+02  0.43120887587E+00  0.18074295026E+02  0.00000000000E+00 0. -1.
         -5    1    3    3    0  503  0.43513142860E+02  0.61916977783E+02 -0.71146576802E+02  0.10397610846E+03  0.47000000000E+01 0.  1.
         13    1    4    4    0    0  0.24594144821E+01 -0.18823810589E+02  0.19127683015E+02  0.26949078318E+02  0.00000000000E+00 0. -1.
        -14    1    4    4    0    0  0.60453819661E+02 -0.51968607490E+02 -0.64767963129E+02  0.10271460229E+03  0.00000000000E+00 0.  1.
</event>
<event>
12    1  0.1597826E-001  0.2681213E+03  0.7818608E-02  0.1103088E+00
         21   -1    0    0  503  502  0.00000000000E+00  0.00000000000E+00  0.79113191419E+02  0.79113191419E+02  0.00000000000E+00 0.  1.
         21   -1    0    0  501  503 -0.00000000000E+00 -0.00000000000E+00 -0.11122055615E+04  0.11122055615E+04  0.00000000000E+00 0.  1.
          6    2    1    2  501    0 -0.19304045331E+03 -0.39569235212E+02 -0.78557316685E+03  0.83006879966E+03  0.18182043531E+03 0.  0.
         24    2    3    3    0    0 -0.13768832527E+03  0.38633969853E+02 -0.38837729616E+03  0.42145376193E+03  0.79597052276E+02 0.  0.
         -6    2    1    2    0  502  0.19304045331E+03  0.39569235212E+02 -0.24751920325E+03  0.36124995329E+03  0.17437153374E+03 0.  0.
        -24    2    5    5    0    0  0.32060475678E+02  0.50720280516E+02 -0.78547507196E+02  0.12755694295E+03  0.80626557980E+02 0.  0.
          5    1    3    3  501    0 -0.55352128043E+02 -0.78203205065E+02 -0.39719587069E+03  0.40861503773E+03  0.47000000000E+01 0. -1.
        -13    1    4    4    0    0 -0.88540052472E+02  0.55386984230E+02 -0.31266956976E+03  0.32965029769E+03  0.00000000000E+00 0.  1.
         14    1    4    4    0    0 -0.49148272800E+02 -0.16753014377E+02 -0.75707726400E+02  0.91803464240E+02  0.00000000000E+00 0. -1.
         -5    1    5    5    0  502  0.16097997764E+03 -0.11151045304E+02 -0.16897169606E+03  0.23369301034E+03  0.47000000000E+01 0.  1.
         13    1    6    6    0    0 -0.21049092362E+02  0.14179985963E+02  0.71340681992E+00  0.25389864916E+02  0.00000000000E+00 0. -1.
        -14    1    6    6    0    0  0.53109568039E+02  0.36540294553E+02 -0.79260914016E+02  0.10216707803E+03  0.00000000000E+00 0.  1.
</event>
<event>
12    1  0.1597826E-001  0.2305717E+03  0.7818608E-02  0.1126338E+00
         21   -1    0    0  501  502  0.00000000000E+00  0.00000000000E+00  0.15341323275E+03  0.15341323275E+03  0.00000000000E+00 0.  1.
         21   -1    0    0  502  503 -0.00000000000E+00 -0.00000000000E+00 -0.35291980278E+03  0.35291980278E+03  0.00000000000E+00 0. -1.
         -6    2    1    2    0  503 -0.61503736629E+02 -0.14162964567E+03 -0.13588192608E+03  0.26714395090E+03  0.17047089638E+03 0.  0.
        -24    2    3    3    0    0  0.53626786469E+01 -0.96822810729E+02 -0.13810489216E+03  0.18648540189E+03  0.79375240985E+02 0.  0.
          6    2    1    2  501    0  0.61503736629E+02  0.14162964567E+03 -0.63624643949E+02  0.23918908464E+03  0.17123567602E+03 0.  0.
         24    2    5    5    0    0  0.63149672368E+02  0.15317898947E+03 -0.10047090241E+02  0.18415508871E+03  0.79752546917E+02 0.  0.
          5    1    5    5  501    0 -0.16459357394E+01 -0.11549343801E+02 -0.53577553708E+02  0.55033995930E+02  0.47000000000E+01 0. -1.
        -13    1    6    6    0    0 -0.11871822292E+02  0.35020446008E+01 -0.11248071942E+02  0.16724939562E+02  0.00000000000E+00 0.  1.
         14    1    6    6    0    0  0.75021494660E+02  0.14967694487E+03  0.12009817012E+01  0.16743014915E+03  0.00000000000E+00 0. -1.
         -5    1    3    3    0  503 -0.66866415276E+02 -0.44806834941E+02  0.22229660784E+01  0.80658549004E+02  0.47000000000E+01 0.  1.
         11    1    4    4    0    0 -0.25498335656E+02 -0.75734469662E+02 -0.12187134864E+03  0.14573434954E+03  0.00000000000E+00 0. -1.
        -12    1    4    4    0    0  0.30861014303E+02 -0.21088341067E+02 -0.16233543517E+02  0.40751052353E+02  0.00000000000E+00 0.  1.
</event>
<event>
12    1  0.1597826E-001  0.2064870E+03  0.7818608E-02  0.1144426E+00
         21   -1    0    0  503  502  0.00000000000E+00  0.00000000000E+00  0.14008905168E+03  0.14008905168E+03  0.00000000000E+00 0. -1.
         21   -1    0    0  501  503 -0.00000000000E+00 -0.00000000000E+00 -0.44978900369E+03  0.44978900369E+03  0.00000000000E+00 0. -1.
          6    2    1    2  501    0 -0.68469821767E+02 -0.88932470346E+02 -0.32281631233E+03  0.38320651680E+03  0.17331982644E+03 0.  0.
         24    2    3    3    0    0 -0.47025045175E+02 -0.43663490488E+01 -0.25883699440E+03  0.27491639520E+03  0.79699528217E+02 0.  0.
         -6    2    1    2    0  502  0.68469821767E+02  0.88932470346E+02  0.13116360319E+02  0.20667153858E+03  0.17304330434E+03 0.  0.
        -24    2    5    5    0    0  0.89154590064E+02  0.22951158617E+02  0.46762989047E+02  0.12962883119E+03  0.78368106525E+02 0.  0.
          5    1    3    3  501    0 -0.21444776592E+02 -0.84566121297E+02 -0.63979317922E+02  0.10829012160E+03  0.47000000000E+01 0. -1.
        -11    1    4    4    0    0 -0.55903394215E+02 -0.98660628444E+01 -0.25829399841E+03  0.26445853795E+03  0.00000000000E+00 0.  1.
         12    1    4    4    0    0  0.88783490404E+01  0.54997137956E+01 -0.54299599450E+00  0.10457857245E+02  0.00000000000E+00 0. -1.
         -5    1    5    5    0  502 -0.20684768297E+02  0.65981311728E+02 -0.33646628727E+02  0.77042707388E+02  0.47000000000E+01 0.  1.
         11    1    6    6    0    0  0.61505008331E+01  0.89246299908E+01  0.44092988140E+02  0.45405608509E+02  0.00000000000E+00 0. -1.
        -12    1    6    6    0    0  0.83004089231E+02  0.14026528626E+02  0.26700009068E+01  0.84223222683E+02  0.00000000000E+00 0.  1.
</event>
<event>
12    1  0.1597826E-001  0.1990141E+03  0.7818608E-02  0.1150794E+00
         21   -1    0    0  503  502  0.00000000000E+00  0.00000000000E+00  0.58175185850E+02  0.58175185850E+02  0.00000000000E+00 0.  1.
         21   -1    0    0  501  503 -0.00000000000E+00 -0.00000000000E+00 -0.77785813429E+03  0.77785813429E+03  0.00000000000E+00 0. -1.
          6    2    1    2  501    0 -0.71589181779E+02 -0.69624663033E+02 -0.20870457021E+03  0.28766708991E+03  0.17094488100E+03 0.  0.
         24    2    3    3    0    0  0.25856874163E+01 -0.45574090335E+02 -0.36891326272E+02  0.98928588113E+02  0.79638006647E+02 0.  0.
         -6    2    1    2    0  502  0.71589181779E+02  0.69624663033E+02 -0.51097837823E+03  0.54836623023E+03  0.17214533043E+03 0.  0.
        -24    2    5    5    0    0  0.18951341986E+01  0.38224303422E+02 -0.42067957039E+03  0.42996349568E+03  0.80203601965E+02 0.  0.
          5    1    3    3  501    0 -0.74174869195E+02 -0.24050572698E+02 -0.17181324394E+03  0.18873850180E+03  0.47000000000E+01 0. -1.
        -11    1    4    4    0    0 -0.24796019328E+02 -0.28956104331E+02 -0.51211765983E+02  0.63843116525E+02  0.00000000000E+00 0.  1.
         12    1    4    4    0    0  0.27381706744E+02 -0.16617986004E+02  0.14320439711E+02  0.35085471588E+02  0.00000000000E+00 0. -1.
         -5    1    5    5    0  502  0.69694047580E+02  0.31400359611E+02 -0.90298807834E+02  0.11840273455E+03  0.47000000000E+01 0.  1.
         11    1    6    6    0    0 -0.12625745149E+02 -0.67726725201E+01 -0.30014817164E+03  0.30048993905E+03  0.00000000000E+00 0. -1.
        -12    1    6    6    0    0  0.14520879347E+02  0.44996975942E+02 -0.12053139876E+03  0.12947355663E+03  0.00000000000E+00 0.  1.
</event>
<event>
12    1  0.1597826E-001  0.2307221E+03  0.7818608E-02  0.1126142E+00
         21   -1    0    0  503  502  0.00000000000E+00  0.00000000000E+00  0.29738354972E+03  0.29738354972E+03  0.00000000000E+00 0. -1.
         21   -1    0    0  501  503 -0.00000000000E+00 -0.00000000000E+00 -0.20948637004E+03  0.20948637004E+03  0.00000000000E+00 0. -1.
          6    2    1    2  501    0 -0.15341034466E+03 -0.31049544464E+02 -0.52789449412E+02  0.23668417553E+03  0.16951066314E+03 0.  0.
         24    2    3    3    0    0 -0.12867971533E+03 -0.21018491919E+02  0.24392778148E+02  0.15488312240E+03  0.79959538761E+02 0.  0.
         -6    2    1    2    0  502  0.15341034466E+03  0.31049544464E+02  0.14068662910E+03  0.27018574423E+03  0.16943671596E+03 0.  0.
        -24    2    5    5    0    0  0.88950216303E+02  0.75267970978E+02  0.12775852043E+03  0.19081570337E+03  0.80690672795E+02 0.  0.
          5    1    3    3  501    0 -0.24730629330E+02 -0.10031052544E+02 -0.77182227560E+02  0.81801053131E+02  0.47000000000E+01 0. -1.
        -11    1    4    4    0    0 -0.36808609517E+02  0.19161961888E+02  0.34683120253E+02  0.54083022738E+02  0.00000000000E+00 0.  1.
         12    1    4    4    0    0 -0.91871105812E+02 -0.40180453807E+02 -0.10290342105E+02  0.10080009966E+03  0.00000000000E+00 0. -1.
         -5    1    5    5    0  502  0.64460128356E+02 -0.44218426514E+02  0.12928108669E+02  0.79370040852E+02  0.47000000000E+01 0.  1.
         13    1    6    6    0    0  0.65397076383E+02  0.49278799075E+01  0.75890973746E+02  0.10030205130E+03  0.00000000000E+00 0. -1.
        -14    1    6    6    0    0  0.23553139920E+02  0.70340091070E+02  0.51867546685E+02  0.90513652070E+02  0.00000000000E+00 0.  1.
</event>
<event>
12    1  0.1597826E-001  0.2379301E+03  0.7818608E-02  0.1121698E+00
         21   -1    0    0  501  502  0.00000000000E+00  0.00000000000E+00  0.41355887802E+03  0.41355887802E+03  0.00000000000E+00 0.  1.
         21   -1    0    0  502  503 -0.00000000000E+00 -0.00000000000E+00 -0.14668415633E+03  0.14668415633E+03  0.00000000000E+00 0.  1.
         -6    2    1    2    0  503  0.13898715993E+03 -0.83193823274E+02  0.21124861857E+03  0.31589701978E+03  0.17007735124E+03 0.  0.
        -24    2    3    3    0    0  0.13524092515E+03 -0.90146252669E+02  0.10455927754E+03  0.20881258563E+03  0.79079698355E+02 0.  0.
          6    2    1    2  501    0 -0.13898715993E+03  0.83193823274E+02  0.55626103127E+02  0.24434601457E+03  0.17427584064E+03 0.  0.
         24    2    5    5    0    0 -0.89210324352E+01 -0.59562995405E+01  0.23768103136E+02  0.83405143184E+02  0.79223941198E+02 0.  0.
          5    1    5    5  501    0 -0.13006612750E+03  0.89150122814E+02  0.31857999991E+02  0.16094087139E+03  0.47000000000E+01 0. -1.
        -13    1    6    6    0    0  0.84723080399E+01  0.33038418470E+02 -0.85102015734E+00  0.34118049971E+02  0.00000000000E+00 0.  1.
         14    1    6    6    0    0 -0.17393340475E+02 -0.38994718010E+02  0.24619123294E+02  0.49287093213E+02  0.00000000000E+00 0. -1.
         -5    1    3    3    0  503  0.37462347786E+01  0.69524293951E+01  0.10668934102E+03  0.10708443415E+03  0.47000000000E+01 0.  1.
         11    1    4    4    0    0  0.41945971594E+02 -0.58596000759E+02  0.10860928124E+02  0.72876028964E+02  0.00000000000E+00 0. -1.
        -12    1    4    4    0    0  0.93294953561E+02 -0.31550251910E+02  0.93698349418E+02  0.13593655667E+03  0.00000000000E+00 0.  1.
</event>
<event>
12    1  0.1597826E-001  0.1799248E+03  0.7818608E-02  0.1168068E+00
         21   -1    0    0  501  502  0.00000000000E+00  0.00000000000E+00  0.35509874715E+03  0.35509874715E+03  0.00000000000E+00 0.  1.
         21   -1    0    0  502  503 -0.00000000000E+00 -0.00000000000E+00 -0.43128044792E+03  0.43128044792E+03  0.00000000000E+00 0.  1.
         -6    2    1    2    0  503  0.52401730516E+02 -0.45055331147E+01 -0.38748263591E+03  0.42721861046E+03  0.17206599548E+03 0.  0.
        -24    2    3    3    0    0 -0.39630587231E+00  0.52241542398E+02 -0.26976948470E+03  0.28619967842E+03  0.80033400786E+02 0.  0.
          6    2    1    2  501    0 -0.52401730516E+02  0.45055331147E+01  0.31130093515E+03  0.35916058461E+03  0.17123612973E+03 0.  0.
         24    2    5    5    0    0 -0.90773709312E+02  0.36309600315E+02  0.24635707140E+03  0.27716239631E+03  0.81048960007E+02 0.  0.
          5    1    5    5  501    0  0.38371978796E+02 -0.31804067200E+02  0.64943863743E+02  0.81998188303E+02  0.47000000000E+01 0. -1.
        -11    1    6    6    0    0 -0.58062396876E+02  0.95392949156E+01  0.21910823778E+03  0.22687146127E+03  0.00000000000E+00 0.  1.
         12    1    6    6    0    0 -0.32711312436E+02  0.26770305400E+02  0.27248833627E+02  0.50290935033E+02  0.00000000000E+00 0. -1.
         -5    1    3    3    0  503  0.52798036388E+02 -0.56747075512E+02 -0.11771315121E+03  0.14101893204E+03  0.47000000000E+01 0.  1.
         13    1    4    4    0    0  0.12978289506E+02  0.35997874148E+02 -0.39589843352E+02  0.55060318182E+02  0.00000000000E+00 0. -1.
        -14    1    4    4    0    0 -0.13374595378E+02  0.16243668250E+02 -0.23017964135E+03  0.23113936024E+03  0.00000000000E+00 0.  1.
</event>
<event>
12    1  0.1597826E-001  0.1816108E+03  0.7818608E-02  0.1166591E+00
         21   -1    0    0  503  502  0.00000000000E+00  0.00000000000E+00  0.11354010044E+04  0.11354010044E+04  0.00000000000E+00 0.  1.
         21   -1    0    0  501  503 -0.00000000000E+00 -0.00000000000E+00 -0.36577912007E+02  0.36577912007E+02  0.00000000000E+00 0.  1.
          6    2    1    2  501    0  0.54448891569E+02  0.64757111993E+01  0.27793528104E+03  0.33124158201E+03  0.17165764935E+03 0.  0.
         24    2    3    3    0    0 -0.70352991383E+01 -0.81994139831E+01  0.24968386988E+03  0.26184491611E+03  0.78128096037E+02 0.  0.
         -6    2    1    2    0  502 -0.54448891569E+02 -0.64757111993E+01  0.82088781136E+03  0.84073733440E+03  0.17313535163E+03 0.  0.
        -24    2    5    5    0    0 -0.26701073895E+02  0.10224336514E+01  0.19682181965E+03  0.21599209386E+03  0.84851418393E+02 0.  0.
          5    1    3    3  501    0  0.61484190707E+02  0.14675125182E+02  0.28251411155E+02  0.69396665902E+02  0.47000000000E+01 0. -1.
        -11    1    4    4    0    0 -0.36731837060E+02 -0.24991687399E+02  0.15293083101E+03  0.15925341869E+03  0.00000000000E+00 0.  1.
         12    1    4    4    0    0  0.29696537921E+02  0.16792273416E+02  0.96753038877E+02  0.10259149742E+03  0.00000000000E+00 0. -1.
         -5    1    5    5    0  502 -0.27747817674E+02 -0.74981448508E+01  0.62406599171E+03  0.62474524054E+03  0.47000000000E+01 0.  1.
         13    1    6    6    0    0 -0.33070947288E+01  0.41777354363E+02  0.96727284019E+02  0.10541561406E+03  0.00000000000E+00 0. -1.
        -14    1    6    6    0    0 -0.23393979166E+02 -0.40754920711E+02  0.10009453563E+03  0.11057647981E+03  0.00000000000E+00 0.  1.
</event>
<event>
12    1  0.1597826E-001  0.1739402E+03  0.7818608E-02  0.1173879E+00
         21   -1    0    0  501  502  0.00000000000E+00  0.00000000000E+00  0.26642816196E+03  0.26642816196E+03  0.00000000000E+00 0.  1.
         21   -1    0    0  502  503 -0.00000000000E+00 -0.00000000000E+00 -0.12486483227E+03  0.12486483227E+03  0.00000000000E+00 0.  1.
         -6    2    1    2    0  503 -0.16071609120E+02 -0.18814480892E+02  0.11441716752E+02  0.17431611095E+03  0.17217117164E+03 0.  0.
        -24    2    3    3    0    0 -0.32959212509E+02  0.34975114368E+02  0.50268646871E+02  0.10570028035E+03  0.79599271942E+02 0.  0.
          6    2    1    2  501    0  0.16071609120E+02  0.18814480892E+02  0.13012161293E+03  0.21697688328E+03  0.17185765160E+03 0.  0.
         24    2    5    5    0    0  0.98927508048E+01 -0.55819164072E+02  0.80262735071E+02  0.12688605715E+03  0.80276517503E+02 0.  0.
          5    1    5    5  501    0  0.61788583157E+01  0.74633644964E+02  0.49858877860E+02  0.90090826126E+02  0.47000000000E+01 0. -1.
        -13    1    6    6    0    0  0.83759377243E+01  0.90190579929E+01  0.56482196408E+02  0.57807769814E+02  0.00000000000E+00 0.  1.
         14    1    6    6    0    0  0.15168130805E+01 -0.64838222065E+02  0.23780538663E+02  0.69078287338E+02  0.00000000000E+00 0. -1.
         -5    1    3    3    0  503  0.16887603389E+02 -0.53789595260E+02 -0.38826930119E+02  0.68615830600E+02  0.47000000000E+01 0.  1.
         13    1    4    4    0    0  0.62738480525E+01  0.13530537506E+02  0.58383639658E+02  0.60258493130E+02  0.00000000000E+00 0. -1.
        -14    1    4    4    0    0 -0.39233060562E+02  0.21444576862E+02 -0.81149927874E+01  0.45441787220E+02  0.00000000000E+00 0.  1.
</event>
<event>
12    1  0.1597826E-001  0.1878447E+03  0.7818608E-02  0.1160626E+00
         21   -1    0    0  503  502  0.00000000000E+00  0.00000000000E+00  0.20991236621E+03  0.20991236621E+03  0.00000000000E+00 0.  1.
         21   -1    0    0  501  503 -0.00000000000E+00 -0.00000000000E+00 -0.21897334224E+03  0.21897334224E+03  0.00000000000E+00 0.  1.
          6    2    1    2  501    0 -0.28705863429E+02  0.68162386907E+02 -0.10871529176E+03  0.21703602193E+03  0.17267160325E+03 0.  0.
         24    2    3    3    0    0  0.37098119515E+02  0.76675972024E+01 -0.19469027088E+02  0.90636775449E+02  0.80005746854E+02 0.  0.
         -6    2    1    2    0  502  0.28705863429E+02 -0.68162386907E+02  0.99654315735E+02  0.21184968653E+03  0.17169498960E+03 0.  0.
        -24    2    5    5    0    0  0.66188248111E+01 -0.10635682813E+03  0.43056896153E+02  0.13993299501E+03  0.79823324003E+02 0.  0.
          5    1    3    3  501    0 -0.65803982945E+02  0.60494789704E+02 -0.89246264674E+02  0.12639924648E+03  0.47000000000E+01 0. -1.
        -11    1    4    4    0    0 -0.75339003272E+01 -0.27978278772E+02 -0.16715802685E+02  0.33450886335E+02  0.00000000000E+00 0.  1.
         12    1    4    4    0    0  0.44632019842E+02  0.35645875974E+02 -0.27532244033E+01  0.57185889114E+02  0.00000000000E+00 0. -1.
         -5    1    5    5    0  502  0.22087038618E+02  0.38194441221E+02  0.56597419582E+02  0.71916691515E+02  0.47000000000E+01 0.  1.
         11    1    6    6    0    0 -0.14135433929E+02 -0.87294685046E+02 -0.50797754846E-01  0.88431753969E+02  0.00000000000E+00 0. -1.
        -12    1    6    6    0    0  0.20754258740E+02 -0.19062143082E+02  0.43107693908E+02  0.51501241042E+02  0.00000000000E+00 0.  1.
</event>
<event>
12    1  0.1597826E-001  0.2257994E+03  0.7818608E-02  0.1130274E+00
         21   -1    0    0  503  502  0.00000000000E+00  0.00000000000E+00  0.46321875469E+02  0.46321875469E+02  0.00000000000E+00 0. -1.
         21   -1    0    0  501  503 -0.00000000000E+00 -0.00000000000E+00 -0.10930068585E+04  0.10930068585E+04  0.00000000000E+00 0. -1.
          6    2    1    2  501    0 -0.99319387324E+02  0.91556014352E+02 -0.57233128496E+03  0.61397477892E+03  0.17650803081E+03 0.  0.
         24    2    3    3    0    0 -0.85954217946E+02  0.10170681877E+03 -0.27509012480E+03  0.31622309735E+03  0.81179221277E+02 0.  0.
         -6    2    1    2    0  502  0.99319387324E+02 -0.91556014352E+02 -0.47435369809E+03  0.52535395508E+03  0.18093784224E+03 0.  0.
        -24    2    5    5    0    0  0.45866629866E+02  0.23261756300E+02 -0.15464555711E+03  0.18144160702E+03  0.79755572727E+02 0.  0.
          5    1    3    3  501    0 -0.13365169378E+02 -0.10150804420E+02 -0.29724116016E+03  0.29775168157E+03  0.47000000000E+01 0. -1.
        -11    1    4    4    0    0  0.76510817683E+01  0.29884072390E+02 -0.25026579583E+02  0.39723123246E+02  0.00000000000E+00 0.  1.
         12    1    4    4    0    0 -0.93605299714E+02  0.71822746382E+02 -0.25006354521E+03  0.27649997410E+03  0.00000000000E+00 0. -1.
         -5    1    5    5    0  502  0.53452757458E+02 -0.11481777065E+03 -0.31970814098E+03  0.34391234806E+03  0.47000000000E+01 0.  1.
         13    1    6    6    0    0  0.51567950051E+02 -0.15697964241E+02 -0.10545328378E+03  0.11843172976E+03  0.00000000000E+00 0. -1.
        -14    1    6    6    0    0 -0.57013201852E+01  0.38959720541E+02 -0.49192273333E+02  0.63009877259E+02  0.00000000000E+00 0.  1.
</event>
<event>
12    1  0.1597826E-001  0.2037840E+03  0.7818608E-02  0.1146764E+00
         21   -1    0    0  501  502  0.00000000000E+00  0.00000000000E+00  0.94808051039E+02  0.94808051039E+02  0.00000000000E+00 0.  1.
         21   -1    0    0  502  503 -0.00000000000E+00 -0.00000000000E+00 -0.75457018676E+03  0.75457018676E+03  0.00000000000E+00 0. -1.
         -6    2    1    2    0  503 -0.81436731862E+02 -0.71422285321E+02 -0.60616651702E+03  0.63950429962E+03  0.17261175726E+03 0.  0.
        -24    2    3    3    0    0 -0.11046622753E+03 -0.76415664161E+02 -0.57710985012E+03  0.59786266970E+03  0.79635742982E+02 0.  0.
          6    2    1    2  501    0  0.81436731862E+02  0.71422285321E+02 -0.53595618703E+02  0.20987393818E+03  0.17158524251E+03 0.  0.
         24    2    5    5    0    0  0.88823288397E+02  0.30107533508E+02 -0.13193923954E+01  0.14267004118E+03  0.10750330097E+03 0.  0.
          5    1    5    5  501    0 -0.73865565348E+01  0.41314751812E+02 -0.52276226308E+02  0.67203896998E+02  0.47000000000E+01 0. -1.
        -11    1    6    6    0    0  0.27723725647E+02  0.48608975955E+02  0.38047454401E+02  0.67668650744E+02  0.00000000000E+00 0.  1.
         12    1    6    6    0    0  0.61099562750E+02 -0.18501442446E+02 -0.39366846796E+02  0.75001390437E+02  0.00000000000E+00 0. -1.
         -5    1    3    3    0  503  0.29029495673E+02  0.49933788404E+01 -0.29056666900E+02  0.41641629923E+02  0.47000000000E+01 0.  1.
         11    1    4    4    0    0  0.10737381659E+02 -0.94156834682E+01 -0.10151311648E+03  0.10251272739E+03  0.00000000000E+00 0. -1.
        -12    1    4    4    0    0 -0.12120360919E+03 -0.66999980693E+02 -0.47559673364E+03  0.49534994231E+03  0.00000000000E+00 0.  1.
</event>
<event>
12    1  0.1597826E-001  0.2193366E+03  0.7818608E-02  0.1134601E+00
         21   -1    0    0  503  502  0.00000000000E+00  0.00000000000E+00  0.11907652102E+03  0.11907652102E+03  0.00000000000E+00 0. -1.
         21   -1    0    0  501  503 -0.00000000000E+00 -0.00000000000E+00 -0.44008436296E+03  0.44008436296E+03  0.00000000000E+00 0. -1.
          6    2    1    2  501    0  0.12898609130E+03  0.44296580817E+02 -0.78473452655E+02  0.23295199512E+03  0.17178169414E+03 0.  0.
         24    2    3    3    0    0  0.12143657167E+03 -0.21501467391E+02 -0.80266441736E+02  0.16653149223E+03  0.77980011529E+02 0.  0.
         -6    2    1    2    0  502 -0.12898609130E+03 -0.44296580817E+02 -0.24253438929E+03  0.32620888886E+03  0.17026364957E+03 0.  0.
        -24    2    5    5    0    0 -0.77601830723E+02  0.81093813592E+01 -0.22346980659E+03  0.25023339663E+03  0.81179998346E+02 0.  0.
          5    1    3    3  501    0  0.75495196338E+01  0.65798048208E+02  0.17929890812E+01  0.66420502893E+02  0.47000000000E+01 0. -1.
        -11    1    4    4    0    0  0.19612512339E+02 -0.30565944171E+02  0.38690526460E+00  0.36319103499E+02  0.00000000000E+00 0.  1.
         12    1    4    4    0    0  0.10182405933E+03  0.90644767799E+01 -0.80653347001E+02  0.13021238873E+03  0.00000000000E+00 0. -1.
         -5    1    5    5    0  502 -0.51384260576E+02 -0.52405962176E+02 -0.19064582693E+02  0.75975492231E+02  0.47000000000E+01 0.  1.
         11    1    6    6    0    0 -0.84148729814E+02  0.22716466643E+02 -0.13758865132E+03  0.16287321314E+03  0.00000000000E+00 0. -1.
        -12    1    6    6    0    0  0.65468990910E+01 -0.14607085283E+02 -0.85881155273E+02  0.87360183489E+02  0.00000000000E+00 0.  1.
</event>
<event>
12    1  0.1597826E-001  0.1862213E+03  0.7818608E-02  0.1162056E+00
         21   -1    0    0  503  502  0.00000000000E+00  0.00000000000E+00  0.11400880757E+03  0.11400880757E+03  0.00000000000E+00 0. -1.
         21   -1    0    0  501  503 -0.00000000000E+00 -0.00000000000E+00 -0.52174756243E+03  0.52174756243E+03  0.00000000000E+00 0. -1.
          6    2    1    2  501    0 -0.26981566260E+02 -0.63858409152E+02 -0.40941911203E+03  0.44952751995E+03  0.17217746822E+03 0.  0.
         24    2    3    3    0    0  0.23992377124E+02 -0.38445070742E+02 -0.10594393684E+03  0.14071778463E+03  0.80769545830E+02 0.  0.
         -6    2    1    2    0  502  0.26981566260E+02  0.63858409152E+02  0.16803571691E+01  0.18622885005E+03  0.17283651134E+03 0.  0.
        -24    2    5    5    0    0 -0.48086830689E+02  0.34090372195E+02  0.21910333343E+02  0.10284574516E+03  0.81379898185E+02 0.  0.
          5    1    3    3  501    0 -0.50973943384E+02 -0.25413338410E+02 -0.30347517519E+03  0.30880973532E+03  0.47000000000E+01 0. -1.
        -13    1    4    4    0    0  0.26378560784E+02 -0.44541054255E+02 -0.11695978700E+03  0.12790357993E+03  0.00000000000E+00 0.  1.
         14    1    4    4    0    0 -0.23861836602E+01  0.60959835139E+01  0.11015850159E+02  0.12814204703E+02  0.00000000000E+00 0. -1.
         -5    1    5    5    0  502  0.75068396949E+02  0.29768036957E+02 -0.20229976174E+02  0.83383104888E+02  0.47000000000E+01 0.  1.
         13    1    6    6    0    0 -0.49461173261E+02  0.58129024589E+02  0.14865985652E+02  0.77758528082E+02  0.00000000000E+00 0. -1.
        -14    1    6    6    0    0  0.13743425716E+01 -0.24038652395E+02  0.70443476907E+01  0.25087217080E+02  0.00000000000E+00 0.  1.
</event>
<event>
12    1  0.1597826E-001  0.1917167E+03  0.7818608E-02  0.1156975E+00
         21   -1    0    0  501  502  0.00000000000E+00  0.00000000000E+00  0.71484532118E+02  0.71484532118E+02  0.00000000000E+00 0. -1.
         21   -1    0    0  502  503 -0.00000000000E+00 -0.00000000000E+00 -0.59480771756E+03  0.59480771756E+03  0.00000000000E+00 0. -1.
         -6    2    1    2    0  503 -0.22386869518E+02 -0.82460890321E+02 -0.38495128487E+03  0.43004976013E+03  0.17162265033E+03 0.  0.
        -24    2    3    3    0    0  0.37533933476E+02 -0.89129397523E+02 -0.30653766164E+03  0.33102573311E+03  0.79119228452E+02 0.  0.
          6    2    1    2  501    0  0.22386869518E+02  0.82460890321E+02 -0.13837190058E+03  0.23624248955E+03  0.17135565541E+03 0.  0.
         24    2    5    5    0    0  0.71322410235E+02  0.38792002274E+02 -0.47128759715E+02  0.12377445106E+03  0.80667769896E+02 0.  0.
          5    1    5    5  501    0 -0.48935540717E+02  0.43668888047E+02 -0.91243140865E+02  0.11246803850E+03  0.47000000000E+01 0. -1.
        -11    1    6    6    0    0  0.73653678872E+02  0.36789106627E+02 -0.65463137362E+02  0.10518424374E+03  0.00000000000E+00 0.  1.
         12    1    6    6    0    0 -0.23312686361E+01  0.20028956470E+01  0.18334377647E+02  0.18590207318E+02  0.00000000000E+00 0. -1.
         -5    1    3    3    0  503 -0.59920802995E+02  0.66685072015E+01 -0.78413623226E+02  0.99024027020E+02  0.47000000000E+01 0.  1.
         11    1    4    4    0    0  0.36087847167E+02 -0.11656977830E+02 -0.48275769425E+02  0.61390290428E+02  0.00000000000E+00 0. -1.
        -12    1    4    4    0    0  0.14460863095E+01 -0.77472419693E+02 -0.25826189222E+03  0.26963544268E+03  0.00000000000E+00 0.  1.
</event>
<event>
12    1  0.1597826E-001  0.2385965E+03  0.7818608E-02  0.1121669E+00
         21   -1    0    0  501  502  0.00000000000E+00  0.00000000000E+00  0.19729349770E+03  0.19729349770E+03  0.00000000000E+00 0. -1.
         21   -1    0    0  502  503 -0.00000000000E+00 -0.00000000000E+00 -0.33776600923E+03  0.33776600923E+03  0.00000000000E+00 0.  1.
         -6    2    1    2    0  503  0.16218442278E+03  0.13749136232E+02 -0.17833258974E+03  0.29347786787E+03  0.16683501019E+03 0.  0.
        -24    2    3    3    0    0  0.15358229274E+02  0.14314109552E+02 -0.88315967691E+02  0.12118935247E+03  0.80289352117E+02 0.  0.
          6    2    1    2  501    0 -0.16218442278E+03 -0.13749136232E+02  0.37860078216E+02  0.24158163905E+03  0.17445766553E+03 0.  0.
         24    2    5    5    0    0 -0.10555708384E+03  0.58587171587E+02  0.19317571096E+02  0.14774608334E+03  0.82951684532E+02 0.  0.
          5    1    5    5  501    0 -0.56627338946E+02 -0.72336307820E+02  0.18542507120E+02  0.93835555710E+02  0.47000000000E+01 0. -1.
        -11    1    6    6    0    0  0.65350710013E+01  0.45106694892E+01  0.21868430078E+02  0.23265457792E+02  0.00000000000E+00 0.  1.
         12    1    6    6    0    0 -0.11209215484E+03  0.54076502098E+02 -0.25508589814E+01  0.12448062555E+03  0.00000000000E+00 0. -1.
         -5    1    3    3    0  503  0.14682619351E+03 -0.56497331920E+00 -0.90016622053E+02  0.17228851541E+03  0.47000000000E+01 0.  1.
         11    1    4    4    0    0  0.58088456974E+01  0.21491582092E+02  0.83580955103E+01  0.23780003148E+02  0.00000000000E+00 0. -1.
        -12    1    4    4    0    0  0.95493835766E+01 -0.71774725405E+01 -0.96674063202E+02  0.97409349319E+02  0.00000000000E+00 0.  1.
</event>
<event>
12    1  0.1597826E-001  0.2000271E+03  0.7818608E-02  0.1151087E+00
         21   -1    0    0  501  502  0.00000000000E+00  0.00000000000E+00  0.49391044241E+03  0.49391044241E+03  0.00000000000E+00 0.  1.
         21   -1    0    0  502  503 -0.00000000000E+00 -0.00000000000E+00 -0.80119857678E+02  0.80119857678E+02  0.00000000000E+00 0.  1.
         -6    2    1    2    0  503 -0.87546795538E+02  0.15551993107E+02  0.16864391582E+03  0.26163256190E+03  0.17917734568E+03 0.  0.
        -24    2    3    3    0    0 -0.34923848415E+02  0.57789074769E+00  0.30614171174E+01  0.87181846275E+02  0.79820378973E+02 0.  0.
          6    2    1    2  501    0  0.87546795538E+02 -0.15551993107E+02  0.24514666890E+03  0.31239773818E+03  0.17201497507E+03 0.  0.
         24    2    5    5    0    0 -0.54387955778E+00  0.21621185225E+02  0.17660581676E+03  0.19466180212E+03  0.78967279543E+02 0.  0.
          5    1    5    5  501    0  0.88090675095E+02 -0.37173178332E+02  0.68540852147E+02  0.11773593606E+03  0.47000000000E+01 0. -1.
        -13    1    6    6    0    0  0.52041178752E+01 -0.28098021654E+02  0.39864685643E+02  0.49048698506E+02  0.00000000000E+00 0.  1.
         14    1    6    6    0    0 -0.57479974330E+01  0.49719206879E+02  0.13674113111E+03  0.14561310362E+03  0.00000000000E+00 0. -1.
         -5    1    3    3    0  503 -0.52622947123E+02  0.14974102359E+02  0.16558249871E+03  0.17445071563E+03  0.47000000000E+01 0.  1.
         11    1    4    4    0    0 -0.33170549817E+02 -0.25499806542E+02  0.28567784755E+02  0.50662055176E+02  0.00000000000E+00 0. -1.
        -12    1    4    4    0    0 -0.17532985979E+01  0.26077697289E+02 -0.25506367637E+02  0.36519791099E+02  0.00000000000E+00 0.  1.
</event>
<event>
12    1  0.1597826E-001  0.1806570E+03  0.7818608E-02  0.1167172E+00
         21   -1    0    0  501  502  0.00000000000E+00  0.00000000000E+00  0.64468069934E+02  0.64468069934E+02  0.00000000000E+00 0.  1.
         21   -1    0    0  502  503 -0.00000000000E+00 -0.00000000000E+00 -0.10067275699E+04  0.10067275699E+04  0.00000000000E+00 0.  1.
         -6    2    1    2    0  503 -0.39115057310E+02  0.37120478247E+02 -0.84877341402E+03  0.86778328186E+03  0.17240533147E+03 0.  0.
        -24    2    3    3    0    0  0.34076936939E+02  0.23977924461E+02 -0.28960425324E+03  0.30367155968E+03  0.81299533631E+02 0.  0.
          6    2    1    2  501    0  0.39115057310E+02 -0.37120478247E+02 -0.93486085968E+02  0.20341235799E+03  0.17242105875E+03 0.  0.
         24    2    5    5    0    0  0.83029101698E+02 -0.77996110092E+01 -0.27796168258E+02  0.11900020343E+03  0.80210696199E+02 0.  0.
          5    1    5    5  501    0 -0.43914044388E+02 -0.29320867238E+02 -0.65689917709E+02  0.84412154568E+02  0.47000000000E+01 0. -1.
        -13    1    6    6    0    0  0.13470197800E+02 -0.20666347286E+02  0.21545511536E+02  0.32752911416E+02  0.00000000000E+00 0.  1.
         14    1    6    6    0    0  0.69558903898E+02  0.12866736277E+02 -0.49341679794E+02  0.86247292009E+02  0.00000000000E+00 0. -1.
         -5    1    3    3    0  503 -0.73191994250E+02  0.13142553786E+02 -0.55916916077E+03  0.56411172218E+03  0.47000000000E+01 0.  1.
         11    1    4    4    0    0 -0.67185179684E+01  0.12952282390E+02 -0.42391934060E+01  0.15194435282E+02  0.00000000000E+00 0. -1.
        -12    1    4    4    0    0  0.40795454908E+02  0.11025642070E+02 -0.28536505984E+03  0.28847712440E+03  0.00000000000E+00 0.  1.
</event>
<event>
12    1  0.1597826E-001  0.2036422E+03  0.7818608E-02  0.1148221E+00
         21   -1    0    0  503  502  0.00000000000E+00  0.00000000000E+00  0.23918786167E+03  0.23918786167E+03  0.00000000000E+00 0. -1.
         21   -1    0    0  501  503 -0.00000000000E+00 -0.00000000000E+00 -0.18393706407E+03  0.18393706407E+03  0.00000000000E+00 0. -1.
          6    2    1    2  501    0 -0.87904467479E+02  0.33683202917E+02 -0.36489538028E+02  0.19977218642E+03  0.17238238460E+03 0.  0.
         24    2    3    3    0    0 -0.71969582057E+02  0.68207308829E+02 -0.72111591350E+02  0.14745722541E+03  0.81924929054E+02 0.  0.
         -6    2    1    2    0  502  0.87904467479E+02 -0.33683202917E+02  0.91740335635E+02  0.22335273932E+03  0.18057797047E+03 0.  0.
        -24    2    5    5    0    0  0.41620336894E+02  0.32300550378E+02 -0.71042857818E+01  0.95726622769E+02  0.79608651744E+02 0.  0.
          5    1    3    3  501    0 -0.15934885422E+02 -0.34524105912E+02  0.35622053322E+02  0.52314961008E+02  0.47000000000E+01 0. -1.
        -11    1    4    4    0    0 -0.40489975379E+02  0.77926287835E+02 -0.73448732576E+02  0.11448432539E+03  0.00000000000E+00 0.  1.
         12    1    4    4    0    0 -0.31479606678E+02 -0.97189790068E+01  0.13371412264E+01  0.32972900027E+02  0.00000000000E+00 0. -1.
         -5    1    5    5    0  502  0.46284130585E+02 -0.65983753294E+02  0.98844621416E+02  0.12762611655E+03  0.47000000000E+01 0.  1.
         13    1    6    6    0    0  0.49605652187E+02  0.51662592805E+01  0.22559737216E+02  0.54738950548E+02  0.00000000000E+00 0. -1.
        -14    1    6    6    0    0 -0.79853152933E+01  0.27134291097E+02 -0.29664022998E+02  0.40987672221E+02  0.00000000000E+00 0.  1.
</event>
<event>
12    1  0.1597826E-001  0.2802130E+03  0.7818608E-02  0.1095681E+00
         21   -1    0    0  501  502  0.00000000000E+00  0.00000000000E+00  0.11021318547E+03  0.11021318547E+03  0.00000000000E+00 0. -1.
         21   -1    0    0  502  503 -0.00000000000E+00 -0.00000000000E+00 -0.15926828388E+04  0.15926828388E+04  0.00000000000E+00 0. -1.
         -6    2    1    2    0  503  0.50734064879E+01 -0.22017210483E+03 -0.13754200554E+04  0.14036736350E+04  0.17325659982E+03 0.  0.
        -24    2    3    3    0    0 -0.45456904580E+02 -0.20710480471E+03 -0.11501161587E+04  0.11723556665E+04  0.81804033233E+02 0.  0.
          6    2    1    2  501    0 -0.50734064879E+01  0.22017210483E+03 -0.10704959790E+03  0.29922238932E+03  0.17196780704E+03 0.  0.
         24    2    5    5    0    0 -0.38974414405E+02  0.59326031609E+02 -0.75807239674E+01  0.10703267968E+03  0.79749257921E+02 0.  0.
          5    1    5    5  501    0  0.33901007917E+02  0.16084607322E+03 -0.99468873932E+02  0.19218970964E+03  0.47000000000E+01 0. -1.
        -11    1    6    6    0    0 -0.80782047457E+01 -0.13311867713E+02 -0.21836850983E+02  0.26819979023E+02  0.00000000000E+00 0.  1.
         12    1    6    6    0    0 -0.30896209659E+02  0.72637899322E+02  0.14256127016E+02  0.80212700657E+02  0.00000000000E+00 0. -1.
         -5    1    3    3    0  503  0.50530311067E+02 -0.13067300125E+02 -0.22530389673E+03  0.23131796850E+03  0.47000000000E+01 0.  1.
         11    1    4    4    0    0 -0.58509551811E+02 -0.78057969886E+02 -0.49924727396E+03  0.50868876032E+03  0.00000000000E+00 0. -1.
        -12    1    4    4    0    0  0.13052647232E+02 -0.12904683482E+03 -0.65086888476E+03  0.66366690615E+03  0.00000000000E+00 0.  1.
</event>
<event>
12    1  0.1597826E-001  0.2003278E+03  0.7818608E-02  0.1149649E+00
         21   -1    0    0  503  502  0.00000000000E+00  0.00000000000E+00  0.88802449770E+02  0.88802449770E+02  0.00000000000E+00 0.  1.
         21   -1    0    0  501  503 -0.00000000000E+00 -0.00000000000E+00 -0.60080609335E+03  0.60080609335E+03  0.00000000000E+00 0. -1.
          6    2    1    2  501    0 -0.96095012754E+01  0.10176715539E+03 -0.83634151224E+02  0.21708503759E+03  0.17228565194E+03 0.  0.
         24    2    3    3    0    0  0.44125298538E+01  0.68254108259E+02  0.19851517112E+02  0.10730746595E+03  0.80266529777E+02 0.  0.
         -6    2    1    2    0  502  0.96095012754E+01 -0.10176715539E+03 -0.42836949235E+03  0.47252350553E+03  0.17125753959E+03 0.  0.
        -24    2    5    5    0    0 -0.37069376808E+02 -0.40087246884E+02 -0.34749332682E+03  0.36051291262E+03  0.78973552038E+02 0.  0.
          5    1    3    3  501    0 -0.14022031129E+02  0.33513047128E+02 -0.10348566834E+03  0.10977757164E+03  0.47000000000E+01 0. -1.
        -13    1    4    4    0    0  0.15119764050E+02  0.62235479096E+02 -0.18802573221E+02  0.66748774393E+02  0.00000000000E+00 0.  1.
         14    1    4    4    0    0 -0.10707234196E+02  0.60186291627E+01  0.38654090333E+02  0.40558691555E+02  0.00000000000E+00 0. -1.
         -5    1    5    5    0  502  0.46678878083E+02 -0.61679908503E+02 -0.80876165532E+02  0.11201059291E+03  0.47000000000E+01 0.  1.
         13    1    6    6    0    0  0.75293232947E+00 -0.47625897809E+02 -0.10944570328E+03  0.11936144694E+03  0.00000000000E+00 0. -1.
        -14    1    6    6    0    0 -0.37822309137E+02  0.75386509252E+01 -0.23804762354E+03  0.24115146568E+03  0.00000000000E+00 0.  1.
</event>
<event>
12    1  0.1597826E-001  0.1800190E+03  0.7818608E-02  0.1167878E+00
         21   -1    0    0  503  502  0.00000000000E+00  0.00000000000E+00  0.28757371745E+03  0.28757371745E+03  0.00000000000E+00 0.  1.
         21   -1    0    0  501  503 -0.00000000000E+00 -0.00000000000E+00 -0.13498735501E+03  0.13498735501E+03  0.00000000000E+00 0.  1.
          6    2    1    2  501    0  0.46845773456E+02 -0.23929529749E+02 -0.10107485829E+02  0.17991706389E+03  0.17175808489E+03 0.  0.
         24    2    3    3    0    0 -0.27500565918E+02 -0.65786833420E+02 -0.13516645302E+02  0.94400256089E+02  0.60369860628E+02 0.  0.
         -6    2    1    2    0  502 -0.46845773456E+02  0.23929529749E+02  0.16269384826E+03  0.24264400857E+03  0.17216177784E+03 0.  0.
        -24    2    5    5    0    0  0.28810528340E+01 -0.27544005139E+02  0.14573569167E+03  0.16894223707E+03  0.80843150337E+02 0.  0.
          5    1    3    3  501    0  0.74346339374E+02  0.41857303671E+02  0.34091594733E+01  0.85516807805E+02  0.47000000000E+01 0. -1.
        -13    1    4    4    0    0  0.17739823585E+02 -0.17203877531E+02  0.55576849149E+01  0.25329086137E+02  0.00000000000E+00 0.  1.
         14    1    4    4    0    0 -0.45240389503E+02 -0.48582955889E+02 -0.19074330217E+02  0.69071169952E+02  0.00000000000E+00 0. -1.
         -5    1    5    5    0  502 -0.49726826290E+02  0.51473534888E+02  0.16958156593E+02  0.73701771496E+02  0.47000000000E+01 0.  1.
         11    1    6    6    0    0  0.24291298132E+02  0.14550079369E+02  0.20102108119E+02  0.34725591794E+02  0.00000000000E+00 0. -1.
        -12    1    6    6    0    0 -0.21410245299E+02 -0.42094084508E+02  0.12563358355E+03  0.13421664528E+03  0.00000000000E+00 0.  1.
</event>
<event>
12    1  0.1597826E-001  0.2765950E+03  0.7818608E-02  0.1097610E+00
         21   -1    0    0  503  502  0.00000000000E+00  0.00000000000E+00  0.78789735223E+02  0.78789735223E+02  0.00000000000E+00 0. -1.
         21   -1    0    0  501  503 -0.00000000000E+00 -0.00000000000E+00 -0.97164454817E+03  0.97164454817E+03  0.00000000000E+00 0. -1.
          6    2    1    2  501    0  0.92137869264E+02  0.19510285789E+03 -0.46887085924E+03  0.54420587313E+03  0.17252720828E+03 0.  0.
         24    2    3    3    0    0  0.57180048875E+02  0.29493315169E+02 -0.13257550232E+03  0.16768863988E+03  0.80023762105E+02 0.  0.
         -6    2    1    2    0  502 -0.92137869264E+02 -0.19510285789E+03 -0.42398395371E+03  0.50622841027E+03  0.17306154469E+03 0.  0.
        -24    2    5    5    0    0 -0.74870267961E+02 -0.57494325477E+02 -0.28116334875E+03  0.30709505433E+03  0.79645396762E+02 0.  0.
          5    1    3    3  501    0  0.34957820389E+02  0.16560954272E+03 -0.33629535692E+03  0.37651723325E+03  0.47000000000E+01 0. -1.
        -13    1    4    4    0    0 -0.22893121480E+01  0.57479764322E+01  0.97920947431E+01  0.11582974689E+02  0.00000000000E+00 0.  1.
         14    1    4    4    0    0  0.59469361023E+02  0.23745338736E+02 -0.14236759707E+03  0.15610566520E+03  0.00000000000E+00 0. -1.
         -5    1    5    5    0  502 -0.17267601303E+02 -0.13760853241E+03 -0.14282060496E+03  0.19913335594E+03  0.47000000000E+01 0.  1.
         11    1    6    6    0    0 -0.49263162377E+02 -0.97845496999E+01 -0.54753434837E+02  0.74300304217E+02  0.00000000000E+00 0. -1.
        -12    1    6    6    0    0 -0.25607105584E+02 -0.47709775777E+02 -0.22640991391E+03  0.23279475011E+03  0.00000000000E+00 0.  1.
</event>
<event>
12    1  0.1597826E-001  0.1812751E+03  0.7818608E-02  0.1167069E+00
         21   -1    0    0  503  502  0.00000000000E+00  0.00000000000E+00  0.82261475645E+02  0.82261475645E+02  0.00000000000E+00 0. -1.
         21   -1    0    0  501  503 -0.00000000000E+00 -0.00000000000E+00 -0.77255323468E+03  0.77255323468E+03  0.00000000000E+00 0. -1.
          6    2    1    2  501    0 -0.36243597755E+02 -0.46228908271E+02 -0.64294599460E+03  0.66745863131E+03  0.16932442887E+03 0.  0.
         24    2    3    3    0    0  0.31455997400E+02 -0.44177041756E+02 -0.23641513337E+03  0.25529740501E+03  0.79646462112E+02 0.  0.
         -6    2    1    2    0  502  0.36243597755E+02  0.46228908271E+02 -0.47345764444E+02  0.18735607902E+03  0.17149334854E+03 0.  0.
        -24    2    5    5    0    0 -0.14291102435E+02 -0.29832709236E+02 -0.33742393448E+02  0.94910055394E+02  0.82311258951E+02 0.  0.
          5    1    3    3  501    0 -0.67699595155E+02 -0.20518665151E+01 -0.40653086123E+03  0.41216122631E+03  0.47000000000E+01 0. -1.
        -11    1    4    4    0    0  0.32346367043E+02 -0.58407584980E+02 -0.11444550920E+03  0.13249720004E+03  0.00000000000E+00 0.  1.
         12    1    4    4    0    0 -0.89036964305E+00  0.14230543223E+02 -0.12196962417E+03  0.12280020496E+03  0.00000000000E+00 0. -1.
         -5    1    5    5    0  502  0.50534700189E+02  0.76061617507E+02 -0.13603370995E+02  0.92446023622E+02  0.47000000000E+01 0.  1.
         13    1    6    6    0    0  0.32702400694E+02 -0.25483663125E+02 -0.17463006051E+02  0.44986894511E+02  0.00000000000E+00 0. -1.
        -14    1    6    6    0    0 -0.46993503129E+02 -0.43490461112E+01 -0.16279387398E+02  0.49923160882E+02  0.00000000000E+00 0.  1.
</event>
<event>
12    1  0.1597826E-001  0.1834247E+03  0.7818608E-02  0.1164562E+00
         21   -1    0    0  501  502  0.00000000000E+00  0.00000000000E+00  0.66102237931E+02  0.66102237931E+02  0.00000000000E+00 0.  1.
         21   -1    0    0  502  503 -0.00000000000E+00 -0.00000000000E+00 -0.98244780281E+03  0.98244780281E+03  0.00000000000E+00 0.  1.
         -6    2    1    2    0  503  0.49049463729E+02 -0.38416157393E+02 -0.82236770778E+03  0.84257537587E+03  0.17251946607E+03 0.  0.
        -24    2    3    3    0    0  0.60328530574E+01 -0.66999268341E+02 -0.29746560088E+03  0.31511757200E+03  0.79296930613E+02 0.  0.
          6    2    1    2  501    0 -0.49049463729E+02  0.38416157393E+02 -0.93977857100E+02  0.20597466488E+03  0.17237190579E+03 0.  0.
         24    2    5    5    0    0 -0.97239095107E+02  0.23176880599E+02 -0.88016005289E+02  0.15486586126E+03  0.79019038129E+02 0.  0.
          5    1    5    5  501    0  0.48189631378E+02  0.15239276794E+02 -0.59618518110E+01  0.51108803611E+02  0.47000000000E+01 0. -1.
        -11    1    6    6    0    0 -0.84601390386E+02 -0.13375251113E+02 -0.75607684323E+02  0.11424891477E+03  0.00000000000E+00 0.  1.
         12    1    6    6    0    0 -0.12637704721E+02  0.36552131712E+02 -0.12408320966E+02  0.40616946494E+02  0.00000000000E+00 0. -1.
         -5    1    3    3    0  503  0.43016610672E+02  0.28583110948E+02 -0.52490210690E+03  0.52745780386E+03  0.47000000000E+01 0.  1.
         11    1    4    4    0    0 -0.30907154515E+02 -0.42909722941E+01 -0.90479001666E+02  0.95708486489E+02  0.00000000000E+00 0. -1.
        -12    1    4    4    0    0  0.36940007573E+02 -0.62708296047E+02 -0.20698659921E+03  0.21940908551E+03  0.00000000000E+00 0.  1.
</event>
<event>
12    1  0.1597826E-001  0.1988449E+03  0.7818608E-02  0.1150907E+00
         21   -1    0    0  503  502  0.00000000000E+00  0.00000000000E+00  0.10810091576E+03  0.10810091576E+03  0.00000000000E+00 0.  1.
         21   -1    0    0  501  503 -0.00000000000E+00 -0.00000000000E+00 -0.45140518886E+03  0.45140518886E+03  0.00000000000E+00 0.  1.
          6    2    1    2  501    0 -0.55810148467E+02 -0.80538567522E+02 -0.29497618625E+03  0.35573899091E+03  0.17302614157E+03 0.  0.
         24    2    3    3    0    0 -0.83671627712E+02 -0.50385658920E+02 -0.28740949110E+03  0.31372941107E+03  0.79260784050E+02 0.  0.
         -6    2    1    2    0  502  0.55810148467E+02  0.80538567522E+02 -0.48328086847E+02  0.20376711372E+03  0.17200057885E+03 0.  0.
        -24    2    5    5    0    0  0.56978065846E+02 -0.18078245296E+02 -0.21354802175E+02  0.10141337472E+03  0.79090593974E+02 0.  0.
          5    1    3    3  501    0  0.27861479245E+02 -0.30152908602E+02 -0.75666951562E+01  0.42009579842E+02  0.47000000000E+01 0. -1.
        -11    1    4    4    0    0 -0.11659049022E+00 -0.29041447985E+02 -0.13971209305E+03  0.14269859228E+03  0.00000000000E+00 0.  1.
         12    1    4    4    0    0 -0.83555037221E+02 -0.21344210935E+02 -0.14769739805E+03  0.17103081879E+03  0.00000000000E+00 0. -1.
         -5    1    5    5    0  502 -0.11679173789E+01  0.98616812818E+02 -0.26973284672E+02  0.10235373900E+03  0.47000000000E+01 0.  1.
         11    1    6    6    0    0 -0.27640119787E+01 -0.16219068701E+02  0.22073818498E+02  0.27530917436E+02  0.00000000000E+00 0. -1.
        -12    1    6    6    0    0  0.59742077824E+02 -0.18591765944E+01 -0.43428620674E+02  0.73882457282E+02  0.00000000000E+00 0.  1.
</event>
<event>
12    1  0.1597826E-001  0.1735835E+03  0.7818608E-02  0.1179114E+00
         21   -1    0    0  503  502  0.00000000000E+00  0.00000000000E+00  0.49282261658E+03  0.49282261658E+03  0.00000000000E+00 0.  1.
         21   -1    0    0  501  503 -0.00000000000E+00 -0.00000000000E+00 -0.92497490691E+02  0.92497490691E+02  0.00000000000E+00 0.  1.
          6    2    1    2  501    0  0.11240877616E+02 -0.21909455152E+02  0.69525032678E+01  0.15535121589E+03  0.15322950572E+03 0.  0.
         24    2    3    3    0    0 -0.33295410179E+02 -0.51030824665E+02 -0.67349478477E+01  0.10020621239E+03  0.79266613870E+02 0.  0.
         -6    2    1    2    0  502 -0.11240877616E+02  0.21909455152E+02  0.39337262262E+03  0.42996889138E+03  0.17182795399E+03 0.  0.
        -24    2    5    5    0    0  0.10291500333E+01  0.34455730197E+02  0.40071929172E+03  0.41037230640E+03  0.81493696766E+02 0.  0.
          5    1    3    3  501    0  0.44536287795E+02  0.29121369513E+02  0.13687451116E+02  0.55145003499E+02  0.47000000000E+01 0. -1.
        -13    1    4    4    0    0 -0.55043394742E+02 -0.20121793453E+02  0.89533913112E+01  0.59285960332E+02  0.00000000000E+00 0.  1.
         14    1    4    4    0    0  0.21747984563E+02 -0.30909031212E+02 -0.15688339159E+02  0.40920252060E+02  0.00000000000E+00 0. -1.
         -5    1    5    5    0  502 -0.12270027649E+02 -0.12546275045E+02 -0.73466690978E+01  0.19596584979E+02  0.47000000000E+01 0.  1.
         13    1    6    6    0    0 -0.25160981017E+02  0.72898770470E+01  0.40834719190E+02  0.48514859213E+02  0.00000000000E+00 0. -1.
        -14    1    6    6    0    0  0.26190131051E+02  0.27165853150E+02  0.35988457252E+03  0.36185744718E+03  0.00000000000E+00 0.  1.
</event>
<event>
12    1  0.1597826E-001  0.2070525E+03  0.7818608E-02  0.1144206E+00
         21   -1    0    0  501  502  0.00000000000E+00  0.00000000000E+00  0.41306501074E+03  0.41306501074E+03  0.00000000000E+00 0. -1.
         21   -1    0    0  502  503 -0.00000000000E+00 -0.00000000000E+00 -0.11666274129E+03  0.11666274129E+03  0.00000000000E+00 0. -1.
         -6    2    1    2    0  503  0.17179573523E+02  0.11109137062E+03  0.58282075722E+02  0.21509890945E+03  0.17388016024E+03 0.  0.
        -24    2    3    3    0    0  0.76573018244E+02  0.74138104293E+02  0.18697275713E+02  0.13458697519E+03  0.80026121606E+02 0.  0.
          6    2    1    2  501    0 -0.17179573523E+02 -0.11109137062E+03  0.23812019373E+03  0.31462884257E+03  0.17220235638E+03 0.  0.
         24    2    5    5    0    0  0.22209915588E+02 -0.80574939437E+02  0.23792743936E+03  0.26457975089E+03  0.80046092750E+02 0.  0.
          5    1    5    5  501    0 -0.39389489112E+02 -0.30516431179E+02  0.19275437580E+00  0.50049091686E+02  0.47000000000E+01 0. -1.
        -11    1    6    6    0    0  0.32021048293E+02  0.66638339681E+00  0.47223015409E+02  0.57059659874E+02  0.00000000000E+00 0.  1.
         12    1    6    6    0    0 -0.98111327041E+01 -0.81241322834E+02  0.19070442395E+03  0.20752009101E+03  0.00000000000E+00 0. -1.
         -5    1    3    3    0  503 -0.59393444721E+02  0.36953266322E+02  0.39584800009E+02  0.80511934267E+02  0.47000000000E+01 0.  1.
         11    1    4    4    0    0  0.89932926335E+02  0.54900151117E+02  0.28568167850E+02  0.10917004189E+03  0.00000000000E+00 0. -1.
        -12    1    4    4    0    0 -0.13359908091E+02  0.19237953176E+02 -0.98708921366E+01  0.25416933296E+02  0.00000000000E+00 0.  1.
</event>
<event>
12    1  0.1597826E-001  0.1860561E+03  0.7818608E-02  0.1162396E+00
         21   -1    0    0  501  502  0.00000000000E+00  0.00000000000E+00  0.60925884290E+03  0.60925884290E+03  0.00000000000E+00 0. -1.
         21   -1    0    0  502  503 -0.00000000000E+00 -0.00000000000E+00 -0.57064477645E+02  0.57064477645E+02  0.00000000000E+00 0. -1.
         -6    2    1    2    0  503  0.20176476069E+02 -0.70025466744E+02  0.24085329194E+03  0.30434714250E+03  0.17119059183E+03 0.  0.
        -24    2    3    3    0    0 -0.39092562310E+02 -0.85915989372E+02  0.16392302028E+03  0.20582971096E+03  0.81150031907E+02 0.  0.
          6    2    1    2  501    0 -0.20176476069E+02  0.70025466744E+02  0.31134107331E+03  0.36197617804E+03  0.16965504224E+03 0.  0.
         24    2    5    5    0    0 -0.67160083788E+02  0.72561180837E+02  0.17771783760E+03  0.22023293000E+03  0.84518115455E+02 0.  0.
          5    1    5    5  501    0  0.46983607719E+02 -0.25357140930E+01  0.13362323572E+03  0.14174324804E+03  0.47000000000E+01 0. -1.
        -11    1    6    6    0    0 -0.41000574212E+02 -0.79588724576E+01  0.35940915808E+02  0.55101181164E+02  0.00000000000E+00 0.  1.
         12    1    6    6    0    0 -0.26159509576E+02  0.80520053294E+02  0.14177692179E+03  0.16513174884E+03  0.00000000000E+00 0. -1.
         -5    1    3    3    0  503  0.59269038379E+02  0.15890522628E+02  0.76930271658E+02  0.98517431539E+02  0.47000000000E+01 0.  1.
         11    1    4    4    0    0  0.24567923459E+02 -0.33953508859E+02  0.63280215755E+02  0.75899995606E+02  0.00000000000E+00 0. -1.
        -12    1    4    4    0    0 -0.63660485769E+02 -0.51962480513E+02  0.10064280453E+03  0.12992971536E+03  0.00000000000E+00 0.  1.
</event>
<event>
12    1  0.1597826E-001  0.3318110E+03  0.7818608E-02  0.1070508E+00
         21   -1    0    0  503  502  0.00000000000E+00  0.00000000000E+00  0.88009094721E+02  0.88009094721E+02  0.00000000000E+00 0.  1.
         21   -1    0    0  501  503 -0.00000000000E+00 -0.00000000000E+00 -0.17463406403E+04  0.17463406403E+04  0.00000000000E+00 0.  1.
          6    2    1    2  501    0  0.25695935400E+03 -0.12025743703E+03 -0.13191192386E+04  0.13598357670E+04  0.16907923231E+03 0.  0.
         24    2    3    3    0    0  0.16132080297E+03 -0.19937166125E+02 -0.91059948582E+03  0.92841790969E+03  0.79664919415E+02 0.  0.
         -6    2    1    2    0  502 -0.25695935400E+03  0.12025743703E+03 -0.33921230693E+03  0.47451396797E+03  0.17207136850E+03 0.  0.
        -24    2    5    5    0    0 -0.26521331888E+03  0.12293429454E+03 -0.34777223886E+03  0.46145043334E+03  0.80870433513E+02 0.  0.
          5    1    3    3  501    0  0.95638551029E+02 -0.10032027091E+03 -0.40851975278E+03  0.43141785732E+03  0.47000000000E+01 0. -1.
        -13    1    4    4    0    0  0.13263416749E+03 -0.16122042080E+02 -0.52503318605E+03  0.54176709856E+03  0.00000000000E+00 0.  1.
         14    1    4    4    0    0  0.28686635479E+02 -0.38151240458E+01 -0.38556629977E+03  0.38665081113E+03  0.00000000000E+00 0. -1.
         -5    1    5    5    0  502  0.82539648787E+01 -0.26768575113E+01  0.85599319359E+01  0.13063534633E+02  0.47000000000E+01 0.  1.
         11    1    6    6    0    0 -0.72106864391E+02  0.70719184589E+02 -0.14410368338E+03  0.17597293691E+03  0.00000000000E+00 0. -1.
        -12    1    6    6    0    0 -0.19310645449E+03  0.52215109955E+02 -0.20366855548E+03  0.28547749642E+03  0.00000000000E+00 0.  1.
</event>
<event>
12    1  0.1597826E-001  0.2145799E+03  0.7818608E-02  0.1139409E+00
         21   -1    0    0  503  502  0.00000000000E+00  0.00000000000E+00  0.10655136899E+03  0.10655136899E+03  0.00000000000E+00 0. -1.
         21   -1    0    0  501  503 -0.00000000000E+00 -0.00000000000E+00 -0.41918101440E+03  0.41918101440E+03  0.00000000000E+00 0. -1.
          6    2    1    2  501    0  0.97678476586E+02 -0.82131676072E+02 -0.13789333229E+03  0.24900633202E+03  0.16341017500E+03 0.  0.
         24    2    3    3    0    0  0.65997347181E+02 -0.11856246952E+03 -0.11818927172E+03  0.19664951132E+03  0.79307107724E+02 0.  0.
         -6    2    1    2    0  502 -0.97678476586E+02  0.82131676072E+02 -0.17473631312E+03  0.27672605136E+03  0.17250458364E+03 0.  0.
        -24    2    5    5    0    0 -0.30999895133E+02  0.10545148839E+03 -0.78738484762E+02  0.15744688335E+03  0.80676899999E+02 0.  0.
          5    1    3    3  501    0  0.31681129404E+02  0.36430793451E+02 -0.19704060563E+02  0.52356820706E+02  0.47000000000E+01 0. -1.
        -11    1    4    4    0    0  0.66539940871E+02 -0.49463641240E+02 -0.89002589233E+02  0.12163747953E+03  0.00000000000E+00 0.  1.
         12    1    4    4    0    0 -0.54259368987E+00 -0.69098828282E+02 -0.29186682491E+02  0.75012031786E+02  0.00000000000E+00 0. -1.
         -5    1    5    5    0  502 -0.66678581453E+02 -0.23319812319E+02 -0.95997828359E+02  0.11927916801E+03  0.47000000000E+01 0.  1.
         13    1    6    6    0    0 -0.48825848320E+02  0.59552344856E+02 -0.17688438562E+02  0.79014720785E+02  0.00000000000E+00 0. -1.
        -14    1    6    6    0    0  0.17825953188E+02  0.45899143535E+02 -0.61050046200E+02  0.78432162570E+02  0.00000000000E+00 0.  1.
</event>
<event>
12    1  0.1597826E-001  0.2205562E+03  0.7818608E-02  0.1133555E+00
         21   -1    0    0  501  502  0.00000000000E+00  0.00000000000E+00  0.54798214853E+03  0.54798214853E+03  0.00000000000E+00 0.  1.
         21   -1    0    0  502  503 -0.00000000000E+00 -0.00000000000E+00 -0.12017788008E+03  0.12017788008E+03  0.00000000000E+00 0.  1.
         -6    2    1    2    0  503  0.86016538465E+02  0.10841866841E+03  0.42446347822E+02  0.22414905275E+03  0.17113635749E+03 0.  0.
        -24    2    3    3    0    0  0.44788088215E+02 -0.11092874833E+02  0.33110064499E+02  0.97294607561E+02  0.78999617539E+02 0.  0.
          6    2    1    2  501    0 -0.86016538465E+02 -0.10841866841E+03  0.38535792062E+03  0.44401097586E+03  0.17173108964E+03 0.  0.
         24    2    5    5    0    0 -0.10156452805E+03 -0.43962768107E+02  0.33297925944E+03  0.35938286463E+03  0.77670958744E+02 0.  0.
          5    1    5    5  501    0  0.15547989589E+02 -0.64455900299E+02  0.52378661182E+02  0.84628111233E+02  0.47000000000E+01 0. -1.
        -13    1    6    6    0    0 -0.99015500777E+02 -0.61544533641E+02  0.30118883233E+03  0.32296518657E+03  0.00000000000E+00 0.  1.
         14    1    6    6    0    0 -0.25490272769E+01  0.17581765534E+02  0.31790427109E+02  0.36417678057E+02  0.00000000000E+00 0. -1.
         -5    1    3    3    0  503  0.41228450250E+02  0.11951154324E+03  0.93362833237E+01  0.12685444519E+03  0.47000000000E+01 0.  1.
         13    1    4    4    0    0  0.35105131838E+01 -0.24704893392E+02 -0.17578385124E+02  0.30523025471E+02  0.00000000000E+00 0. -1.
        -14    1    4    4    0    0  0.41277575031E+02  0.13612018559E+02  0.50688449623E+02  0.66771582090E+02  0.00000000000E+00 0.  1.
</event>
<event>
12    1  0.1597826E-001  0.2194033E+03  0.7818608E-02  0.1134521E+00
         21   -1    0    0  503  502  0.00000000000E+00  0.00000000000E+00  0.73941475524E+02  0.73941475524E+02  0.00000000000E+00 0.  1.
         21   -1    0    0  501  503 -0.00000000000E+00 -0.00000000000E+00 -0.12589597736E+04  0.12589597736E+04  0.00000000000E+00 0.  1.
          6    2    1    2  501    0  0.13295515817E+03 -0.30482504414E+02 -0.12895211654E+03  0.25449258459E+03  0.17184751987E+03 0.  0.
         24    2    3    3    0    0  0.63532717256E+02  0.37407389498E+01  0.26237733498E+01  0.10176730675E+03  0.79368137474E+02 0.  0.
         -6    2    1    2    0  502 -0.13295515817E+03  0.30482504414E+02 -0.10560661815E+04  0.10784086645E+04  0.17053800402E+03 0.  0.
        -24    2    5    5    0    0 -0.13828181897E+03  0.42908181329E+02 -0.62376632506E+03  0.64587193007E+03  0.84280177304E+02 0.  0.
          5    1    3    3  501    0  0.69422440918E+02 -0.34223243364E+02 -0.13157588989E+03  0.15272527784E+03  0.47000000000E+01 0. -1.
        -11    1    4    4    0    0  0.15477449266E+02 -0.28429479531E+02  0.23805612457E+02  0.40180765630E+02  0.00000000000E+00 0.  1.
         12    1    4    4    0    0  0.48055267990E+02  0.32170218481E+02 -0.21181839107E+02  0.61586541116E+02  0.00000000000E+00 0. -1.
         -5    1    5    5    0  502  0.53266607964E+01 -0.12425676914E+02 -0.43229985647E+03  0.43253673447E+03  0.47000000000E+01 0.  1.
         11    1    6    6    0    0 -0.10443653772E+03  0.27710579976E+02 -0.57239555846E+03  0.58250454247E+03  0.00000000000E+00 0. -1.
        -12    1    6    6    0    0 -0.33845281249E+02  0.15197601352E+02 -0.51370766600E+02  0.63367387596E+02  0.00000000000E+00 0.  1.
</event>
<event>
12    1  0.1597826E-001  0.2023636E+03  0.7818608E-02  0.1147889E+00
         21   -1    0    0  503  502  0.00000000000E+00  0.00000000000E+00  0.69553408398E+03  0.69553408398E+03  0.00000000000E+00 0. -1.
         21   -1    0    0  501  503 -0.00000000000E+00 -0.00000000000E+00 -0.69192720983E+02  0.69192720983E+02  0.00000000000E+00 0. -1.
          6    2    1    2  501    0 -0.84798717100E+02 -0.62774411266E+02  0.16384296621E+03  0.25989437058E+03  0.17195673047E+03 0.  0.
         24    2    3    3    0    0 -0.25244295500E+02 -0.60667437696E+02  0.17091909501E+03  0.19970026731E+03  0.79680909091E+02 0.  0.
         -6    2    1    2    0  502  0.84798717100E+02  0.62774411266E+02  0.46249839678E+03  0.50483243437E+03  0.17268344055E+03 0.  0.
        -24    2    5    5    0    0  0.96751002296E+02 -0.21970707743E+01  0.37234297563E+03  0.39296536790E+03  0.80105588428E+02 0.  0.
          5    1    3    3  501    0 -0.59554421601E+02 -0.21069735701E+01 -0.70761288007E+01  0.60194103271E+02  0.47000000000E+01 0. -1.
        -13    1    4    4    0    0 -0.27113457113E+02  0.56877538215E+01  0.94493855153E+02  0.98471207780E+02  0.00000000000E+00 0.  1.
         14    1    4    4    0    0  0.18691616130E+01 -0.66355191517E+02  0.76425239858E+02  0.10122905953E+03  0.00000000000E+00 0. -1.
         -5    1    5    5    0  502 -0.11952285196E+02  0.64971482040E+02  0.90155421148E+02  0.11186706648E+03  0.47000000000E+01 0.  1.
         11    1    6    6    0    0  0.56409572137E+02  0.32616234707E+02  0.13757300215E+03  0.15222414235E+03  0.00000000000E+00 0. -1.
        -12    1    6    6    0    0  0.40341430159E+02 -0.34813305481E+02  0.23476997349E+03  0.24074122555E+03  0.00000000000E+00 0.  1.
</event>
<event>
12    1  0.1597826E-001  0.1805674E+03  0.7818608E-02  0.1168812E+00
         21   -1    0    0  501  502  0.00000000000E+00  0.00000000000E+00  0.52913322009E+03  0.52913322009E+03  0.00000000000E+00 0.  1.
         21   -1    0    0  502  503 -0.00000000000E+00 -0.00000000000E+00 -0.72686701610E+02  0.72686701610E+02  0.00000000000E+00 0.  1.
         -6    2    1    2    0  503  0.40086157079E+01 -0.28979147982E+02  0.10328559137E+03  0.20802045010E+03  0.17818174502E+03 0.  0.
        -24    2    3    3    0    0  0.82799194057E+01  0.32348735334E+02  0.11600016830E+03  0.14506726293E+03  0.80457901952E+02 0.  0.
          6    2    1    2  501    0 -0.40086157079E+01  0.28979147982E+02  0.35316092712E+03  0.39379947161E+03  0.17175425287E+03 0.  0.
         24    2    5    5    0    0  0.17357173051E+02  0.77034262906E+02  0.18116106082E+03  0.21387772471E+03  0.81785096762E+02 0.  0.
          5    1    5    5  501    0 -0.21365788759E+02 -0.48055114924E+02  0.17199986630E+03  0.17992174690E+03  0.47000000000E+01 0. -1.
        -13    1    6    6    0    0 -0.22169681439E+02  0.14277825507E+02  0.10219868292E+03  0.10554582828E+03  0.00000000000E+00 0.  1.
         14    1    6    6    0    0  0.39526854490E+02  0.62756437400E+02  0.78962377893E+02  0.10833189643E+03  0.00000000000E+00 0. -1.
         -5    1    3    3    0  503 -0.42713036977E+01 -0.61327883317E+02 -0.12714576934E+02  0.62953187163E+02  0.47000000000E+01 0.  1.
         13    1    4    4    0    0  0.16139064658E+02 -0.19068269304E+02  0.74342958416E+02  0.78427952723E+02  0.00000000000E+00 0. -1.
        -14    1    4    4    0    0 -0.78591452520E+01  0.51417004639E+02  0.41657209885E+02  0.66639310212E+02  0.00000000000E+00 0.  1.
</event>
<event>
12    1  0.1597826E-001  0.2084455E+03  0.7818608E-02  0.1143259E+00
         21   -1    0    0  503  502  0.00000000000E+00  0.00000000000E+00  0.18824958199E+04  0.18824958199E+04  0.00000000000E+00 0.  1.
         21   -1    0    0  501  503 -0.00000000000E+00 -0.00000000000E+00 -0.23299026131E+02  0.23299026131E+02  0.00000000000E+00 0.  1.
          6    2    1    2  501    0  0.10083728944E+03 -0.60505806091E+02  0.10697311050E+04  0.10898505315E+04  0.17210587574E+03 0.  0.
         24    2    3    3    0    0  0.39465844372E+02 -0.48762212251E+02  0.94282807914E+03  0.94832020174E+03  0.80318814700E+02 0.  0.
         -6    2    1    2    0  502 -0.10083728944E+03  0.60505806091E+02  0.78946568877E+03  0.81594431454E+03  0.16935152548E+03 0.  0.
        -24    2    5    5    0    0 -0.90746282557E+02  0.82418143954E+01  0.70800174808E+03  0.71851835866E+03  0.81849502997E+02 0.  0.
          5    1    3    3  501    0  0.61371445064E+02 -0.11743593841E+02  0.12690302583E+03  0.14153032972E+03  0.47000000000E+01 0. -1.
        -11    1    4    4    0    0  0.64147662446E+02 -0.35538039543E+02  0.63473101553E+03  0.63895331358E+03  0.00000000000E+00 0.  1.
         12    1    4    4    0    0 -0.24681818074E+02 -0.13224172708E+02  0.30809706361E+03  0.30936688816E+03  0.00000000000E+00 0. -1.
         -5    1    5    5    0  502 -0.10091006879E+02  0.52263991696E+02  0.81463940682E+02  0.97425955880E+02  0.47000000000E+01 0.  1.
         11    1    6    6    0    0 -0.40777469063E+02  0.37671080729E+01  0.57357572954E+03  0.57503574724E+03  0.00000000000E+00 0. -1.
        -12    1    6    6    0    0 -0.49968813494E+02  0.44747063225E+01  0.13442601854E+03  0.14348261142E+03  0.00000000000E+00 0.  1.
</event>
<event>
12    1  0.1597826E-001  0.1752083E+03  0.7818608E-02  0.1172721E+00
         21   -1    0    0  503  502  0.00000000000E+00  0.00000000000E+00  0.61376459868E+03  0.61376459868E+03  0.00000000000E+00 0.  1.
         21   -1    0    0  501  503 -0.00000000000E+00 -0.00000000000E+00 -0.69572274841E+02  0.69572274841E+02  0.00000000000E+00 0.  1.
          6    2    1    2  501    0 -0.11532558298E+01  0.33037168407E+02  0.89467857592E+02  0.19602560426E+03  0.17125640276E+03 0.  0.
         24    2    3    3    0    0 -0.16051654018E+02  0.49999246382E+02  0.12003514105E+03  0.15773561633E+03  0.87832279579E+02 0.  0.
         -6    2    1    2    0  502  0.11532558298E+01 -0.33037168407E+02  0.45472446625E+03  0.48731126927E+03  0.17206146708E+03 0.  0.
        -24    2    5    5    0    0  0.15394159450E+02 -0.46530609515E+02  0.12102101004E+03  0.15299859680E+03  0.79752166010E+02 0.  0.
          5    1    3    3  501    0  0.14898398189E+02 -0.16962077975E+02 -0.30567283456E+02  0.38289987930E+02  0.47000000000E+01 0. -1.
        -11    1    4    4    0    0 -0.40160621447E+02  0.26702868327E+02  0.19961509598E+02  0.52195599022E+02  0.00000000000E+00 0.  1.
         12    1    4    4    0    0  0.24108967428E+02  0.23296378055E+02  0.10007363145E+03  0.10554001730E+03  0.00000000000E+00 0. -1.
         -5    1    5    5    0  502 -0.14240903620E+02  0.13493441108E+02  0.33370345621E+03  0.33431267247E+03  0.47000000000E+01 0.  1.
         11    1    6    6    0    0 -0.31007307829E+02 -0.97760395405E+01  0.28907547213E+02  0.43504831614E+02  0.00000000000E+00 0. -1.
        -12    1    6    6    0    0  0.46401467279E+02 -0.36754569975E+02  0.92113462829E+02  0.10949376518E+03  0.00000000000E+00 0.  1.
</event>
<event>
12    1  0.1597826E-001  0.1733943E+03  0.7818608E-02  0.1174694E+00
         21   -1    0    0  503  502  0.00000000000E+00  0.00000000000E+00  0.20462378488E+03  0.20462378488E+03  0.00000000000E+00 0.  1.
         21   -1    0    0  501  503 -0.00000000000E+00 -0.00000000000E+00 -0.15321229400E+03  0.15321229400E+03  0.00000000000E+00 0.  1.
          6    2    1    2  501    0 -0.13012229821E+02 -0.11016802433E+02 -0.13736643350E+02  0.17260685949E+03  0.17121257113E+03 0.  0.
         24    2    3    3    0    0  0.57185424692E+02  0.10195237511E+02 -0.20806661937E+02  0.98784528854E+02  0.77144995267E+02 0.  0.
         -6    2    1    2    0  502  0.13012229821E+02  0.11016802433E+02  0.65148134234E+02  0.18522921939E+03  0.17255403867E+03 0.  0.
        -24    2    5    5    0    0  0.32134416757E+02 -0.56761427275E+02  0.32384189968E+02  0.10741461601E+03  0.78960012705E+02 0.  0.
          5    1    3    3  501    0 -0.70197654513E+02 -0.21212039944E+02  0.70700185864E+01  0.73822330636E+02  0.47000000000E+01 0. -1.
        -11    1    4    4    0    0  0.31889333282E+02 -0.32681084076E+02 -0.24554153746E+01  0.45727583560E+02  0.00000000000E+00 0.  1.
         12    1    4    4    0    0  0.25296091410E+02  0.42876321588E+02 -0.18351246562E+02  0.53056945294E+02  0.00000000000E+00 0. -1.
         -5    1    5    5    0  502 -0.19122186936E+02  0.67778229708E+02  0.32763944266E+02  0.77814603382E+02  0.47000000000E+01 0.  1.
         11    1    6    6    0    0  0.33663721288E+02 -0.70434142793E+01  0.44477906071E+02  0.56224015724E+02  0.00000000000E+00 0. -1.
        -12    1    6    6    0    0 -0.15293045308E+01 -0.49718012996E+02 -0.12093716103E+02  0.51190600287E+02  0.00000000000E+00 0.  1.
</event>
<event>
12    1  0.1597826E-001  0.1839633E+03  0.7818608E-02  0.1165689E+00
         21   -1    0    0  501  502  0.00000000000E+00  0.00000000000E+00  0.27647258837E+02  0.27647258837E+02  0.00000000000E+00 0.  1.
         21   -1    0    0  502  503 -0.00000000000E+00 -0.00000000000E+00 -0.13960418677E+04  0.13960418677E+04  0.00000000000E+00 0.  1.
         -6    2    1    2    0  503 -0.18020576095E+02  0.64485683015E+02 -0.95417256096E+03  0.97045363798E+03  0.16386531940E+03 0.  0.
        -24    2    3    3    0    0  0.23346670349E+02 -0.22699744535E+02 -0.43509969792E+03  0.44246568831E+03  0.73510494349E+02 0.  0.
          6    2    1    2  501    0  0.18020576095E+02 -0.64485683015E+02 -0.41422204791E+03  0.45323548857E+03  0.17134572841E+03 0.  0.
         24    2    5    5    0    0  0.58816086429E+02 -0.90011678771E+02 -0.32581205304E+03  0.35246710406E+03  0.80734944108E+02 0.  0.
          5    1    5    5  501    0 -0.40795510334E+02  0.25525995756E+02 -0.88409994869E+02  0.10076838450E+03  0.47000000000E+01 0. -1.
        -13    1    6    6    0    0  0.76576934097E+02 -0.52317410928E+02 -0.22916032987E+03  0.24721568540E+03  0.00000000000E+00 0.  1.
         14    1    6    6    0    0 -0.17760847668E+02 -0.37694267843E+02 -0.96651723175E+02  0.10525141866E+03  0.00000000000E+00 0. -1.
         -5    1    3    3    0  503 -0.41367246444E+02  0.87185427551E+02 -0.51907286304E+03  0.52798794968E+03  0.47000000000E+01 0.  1.
         13    1    4    4    0    0  0.78532259884E+01  0.15926881370E+02 -0.27424824799E+02  0.32672002140E+02  0.00000000000E+00 0. -1.
        -14    1    4    4    0    0  0.15493444361E+02 -0.38626625905E+02 -0.40767487312E+03  0.40979368617E+03  0.00000000000E+00 0.  1.
</event>
<event>
12    1  0.1597826E-001  0.1906928E+03  0.7818608E-02  0.1158141E+00
         21   -1    0    0  501  502  0.00000000000E+00  0.00000000000E+00  0.35904881228E+03  0.35904881228E+03  0.00000000000E+00 0. -1.
         21   -1    0    0  502  503 -0.00000000000E+00 -0.00000000000E+00 -0.10141838998E+03  0.10141838998E+03  0.00000000000E+00 0. -1.
         -6    2    1    2    0  503 -0.81556172118E+02 -0.31960904410E+01  0.10814226510E+03  0.21922244548E+03  0.17234299202E+03 0.  0.
        -24    2    3    3    0    0 -0.50969622207E+02 -0.66877224387E+02  0.90807117354E+02  0.14632922767E+03  0.78075891143E+02 0.  0.
          6    2    1    2  501    0  0.81556172118E+02  0.31960904410E+01  0.14948815720E+03  0.24124475678E+03  0.17085285870E+03 0.  0.
         24    2    5    5    0    0  0.72697072114E+02 -0.51479263095E+02  0.55048529134E+02  0.13166003483E+03  0.79806299174E+02 0.  0.
          5    1    5    5  501    0  0.88591000042E+01  0.54675353536E+02  0.94439628062E+02  0.10958472195E+03  0.47000000000E+01 0. -1.
        -13    1    6    6    0    0 -0.81906874947E+01 -0.46281910773E+01 -0.12993535843E+02  0.16041804387E+02  0.00000000000E+00 0.  1.
         14    1    6    6    0    0  0.80887759608E+02 -0.46851072017E+02  0.68042064977E+02  0.11561823044E+03  0.00000000000E+00 0. -1.
         -5    1    3    3    0  503 -0.30586549911E+02  0.63681133946E+02  0.17335147749E+02  0.72893217816E+02  0.47000000000E+01 0.  1.
         13    1    4    4    0    0 -0.86665742143E+01 -0.77074687485E+01 -0.14360335756E+02  0.18458976844E+02  0.00000000000E+00 0. -1.
        -14    1    4    4    0    0 -0.42303047993E+02 -0.59169755639E+02  0.10516745311E+03  0.12787025082E+03  0.00000000000E+00 0.  1.
</event>
<event>
12    1  0.1597826E-001  0.2232652E+03  0.7818608E-02  0.1131966E+00
         21   -1    0    0  503  502  0.00000000000E+00  0.00000000000E+00  0.11121303274E+03  0.11121303274E+03  0.00000000000E+00 0. -1.
         21   -1    0    0  501  503 -0.00000000000E+00 -0.00000000000E+00 -0.61117365747E+03  0.61117365747E+03  0.00000000000E+00 0. -1.
          6    2    1    2  501    0  0.13419474581E+03 -0.35010894710E+02 -0.43844111370E+03  0.49080088093E+03  0.17152522260E+03 0.  0.
         24    2    3    3    0    0  0.13040101153E+03  0.27533451831E+02 -0.27768212467E+03  0.31819807025E+03  0.79875745797E+02 0.  0.
         -6    2    1    2    0  502 -0.13419474581E+03  0.35010894710E+02 -0.61519511034E+02  0.23158580927E+03  0.17496669474E+03 0.  0.
        -24    2    5    5    0    0 -0.90745250788E+01  0.27268458837E+02  0.14068632463E+02  0.85125328642E+02  0.78882693313E+02 0.  0.
          5    1    3    3  501    0  0.37937342780E+01 -0.62544346541E+02 -0.16075898902E+03  0.17260281068E+03  0.47000000000E+01 0. -1.
        -13    1    4    4    0    0 -0.14756787247E+01 -0.60264321753E+01  0.25226920985E+01  0.66977225896E+01  0.00000000000E+00 0.  1.
         14    1    4    4    0    0  0.13187669026E+03  0.33559884006E+02 -0.28020481677E+03  0.31150034766E+03  0.00000000000E+00 0. -1.
         -5    1    5    5    0  502 -0.12512022073E+03  0.77424358732E+01 -0.75588143497E+02  0.14646048063E+03  0.47000000000E+01 0.  1.
         13    1    6    6    0    0  0.11275036060E+02 -0.23139914222E+02  0.16729249014E+02  0.30699345937E+02  0.00000000000E+00 0. -1.
        -14    1    6    6    0    0 -0.20349561138E+02  0.50408373059E+02 -0.26606165516E+01  0.54425982706E+02  0.00000000000E+00 0.  1.
</event>
<event>
12    1  0.1597826E-001  0.1991417E+03  0.7818608E-02  0.1150502E+00
         21   -1    0    0  501  502  0.00000000000E+00  0.00000000000E+00  0.10031250724E+04  0.10031250724E+04  0.00000000000E+00 0.  1.
         21   -1    0    0  502  503 -0.00000000000E+00 -0.00000000000E+00 -0.88878091128E+02  0.88878091128E+02  0.00000000000E+00 0.  1.
         -6    2    1    2    0  503  0.99783475284E+02 -0.99991291473E-01  0.50060763676E+02  0.20516876315E+03  0.17213770469E+03 0.  0.
        -24    2    3    3    0    0  0.35156994144E+02  0.62573105030E+02  0.33666382145E+02  0.11354253976E+03  0.81283918080E+02 0.  0.
          6    2    1    2  501    0 -0.99783475284E+02  0.99991291473E-01  0.86418621759E+03  0.88683440037E+03  0.17233886116E+03 0.  0.
         24    2    5    5    0    0 -0.88837779000E+02 -0.46476726615E+02  0.77998683524E+03  0.78987654918E+03  0.73981502485E+02 0.  0.
          5    1    5    5  501    0 -0.10945696284E+02  0.46576717907E+02  0.84199382355E+02  0.96957851189E+02  0.47000000000E+01 0. -1.
        -13    1    6    6    0    0 -0.55590958021E+02 -0.56091308049E+02  0.66831311037E+03  0.67296285406E+03  0.00000000000E+00 0.  1.
         14    1    6    6    0    0 -0.33246820980E+02  0.96145814338E+01  0.11167372487E+03  0.11691369513E+03  0.00000000000E+00 0. -1.
         -5    1    3    3    0  503  0.64626481140E+02 -0.62673096322E+02  0.16394381531E+02  0.91626223391E+02  0.47000000000E+01 0.  1.
         11    1    4    4    0    0 -0.13203312356E+02 -0.27959790898E+01 -0.13870899246E+02  0.19353211675E+02  0.00000000000E+00 0. -1.
        -12    1    4    4    0    0  0.48360306500E+02  0.65369084120E+02  0.47537281391E+02  0.94189328087E+02  0.00000000000E+00 0.  1.
</event>
<event>
12    1  0.1597826E-001  0.1834656E+03  0.7818608E-02  0.1164669E+00
         21   -1    0    0  503  502  0.00000000000E+00  0.00000000000E+00  0.38129582166E+03  0.38129582166E+03  0.00000000000E+00 0.  1.
         21   -1    0    0  501  503 -0.00000000000E+00 -0.00000000000E+00 -0.10511465069E+03  0.10511465069E+03  0.00000000000E+00 0.  1.
          6    2    1    2  501    0 -0.45063368127E+02 -0.43822654444E+02  0.39469529801E+02  0.18692419441E+03  0.17155663346E+03 0.  0.
         24    2    3    3    0    0 -0.43521892237E+02 -0.77843339949E+02  0.70240144968E+02  0.14078631466E+03  0.83266846664E+02 0.  0.
         -6    2    1    2    0  502  0.45063368127E+02  0.43822654444E+02  0.23671164116E+03  0.29948627794E+03  0.17236153115E+03 0.  0.
        -24    2    5    5    0    0 -0.10471985326E+02  0.68442097114E+02  0.95401733439E+02  0.14560037065E+03  0.85463407705E+02 0.  0.
          5    1    3    3  501    0 -0.15414758901E+01  0.34020685505E+02 -0.30770615167E+02  0.46137879751E+02  0.47000000000E+01 0. -1.
        -13    1    4    4    0    0 -0.59244511250E+02 -0.75534659409E+02  0.35086891294E+02  0.10220805656E+03  0.00000000000E+00 0.  1.
         14    1    4    4    0    0  0.15722619013E+02 -0.23086805400E+01  0.35153253674E+02  0.38578258104E+02  0.00000000000E+00 0. -1.
         -5    1    5    5    0  502  0.55535353453E+02 -0.24619442670E+02  0.14130990772E+03  0.15388590729E+03  0.47000000000E+01 0.  1.
         11    1    6    6    0    0  0.22477989263E+02  0.70862363622E+02  0.79799756894E+02  0.10906298996E+03  0.00000000000E+00 0. -1.
        -12    1    6    6    0    0 -0.32949974589E+02 -0.24202665080E+01  0.15601976544E+02  0.36537380687E+02  0.00000000000E+00 0.  1.
</event>
<event>
12    1  0.1597826E-001  0.1902271E+03  0.7818608E-02  0.1158846E+00
         21   -1    0    0  501  502  0.00000000000E+00  0.00000000000E+00  0.13090526230E+03  0.13090526230E+03  0.00000000000E+00 0.  1.
         21   -1    0    0  502  503 -0.00000000000E+00 -0.00000000000E+00 -0.37522304973E+03  0.37522304973E+03  0.00000000000E+00 0.  1.
         -6    2    1    2    0  503  0.71016946771E+02 -0.29927078029E+02 -0.25384601485E+03  0.31566271291E+03  0.17107341214E+03 0.  0.
        -24    2    3    3    0    0  0.10838636429E+03 -0.30132680363E+02 -0.14189896330E+03  0.19754942836E+03  0.78961246632E+02 0.  0.
          6    2    1    2  501    0 -0.71016946771E+02  0.29927078029E+02  0.95282274230E+01  0.19046559911E+03  0.17391756841E+03 0.  0.
         24    2    5    5    0    0  0.88308763289E+01  0.15614530101E+02 -0.46067847482E+02  0.92009835309E+02  0.77600034117E+02 0.  0.
          5    1    5    5  501    0 -0.79847823099E+02  0.14312547927E+02  0.55596074905E+02  0.98455763806E+02  0.47000000000E+01 0. -1.
        -11    1    6    6    0    0 -0.45641409499E+00 -0.26079009866E+02 -0.41547029454E+02  0.49055873511E+02  0.00000000000E+00 0.  1.
         12    1    6    6    0    0  0.92872904239E+01  0.41693539968E+02 -0.45208180272E+01  0.42953961798E+02  0.00000000000E+00 0. -1.
         -5    1    3    3    0  503 -0.37369417521E+02  0.20560233393E+00 -0.11194705154E+03  0.11811328455E+03  0.47000000000E+01 0.  1.
         11    1    4    4    0    0  0.23898292875E+02 -0.24010491405E+02 -0.94702321121E+02  0.10057913166E+03  0.00000000000E+00 0. -1.
        -12    1    4    4    0    0  0.84488071416E+02 -0.61221889583E+01 -0.47196642182E+02  0.96970296702E+02  0.00000000000E+00 0.  1.
</event>
<event>
12    1  0.1597826E-001  0.2596469E+03  0.7818608E-02  0.1107375E+00
         21   -1    0    0  503  502  0.00000000000E+00  0.00000000000E+00  0.75091070546E+02  0.75091070546E+02  0.00000000000E+00 0.  1.
         21   -1    0    0  501  503 -0.00000000000E+00 -0.00000000000E+00 -0.17139425537E+04  0.17139425537E+04  0.00000000000E+00 0.  1.
          6    2    1    2  501    0  0.28667041727E+02  0.19243429270E+03 -0.14369732324E+04  0.14602426526E+04  0.17194120357E+03 0.  0.
         24    2    3    3    0    0  0.23851028703E+02  0.15412979648E+03 -0.13807243363E+04  0.13918580291E+04  0.80896320402E+02 0.  0.
         -6    2    1    2    0  502 -0.28667041727E+02 -0.19243429270E+03 -0.20187825072E+03  0.32879097164E+03  0.17174375862E+03 0.  0.
        -24    2    5    5    0    0 -0.25055727921E+02 -0.21508142104E+02 -0.92586638867E+02  0.12582413452E+03  0.78543220291E+02 0.  0.
          5    1    3    3  501    0  0.48160130239E+01  0.38304496221E+02 -0.56248896093E+02  0.68384623446E+02  0.47000000000E+01 0. -1.
        -11    1    4    4    0    0 -0.24977207048E+02  0.56578557408E+02 -0.66473514036E+03  0.66760602219E+03  0.00000000000E+00 0.  1.
         12    1    4    4    0    0  0.48828235752E+02  0.97551239072E+02 -0.71598919594E+03  0.72425200694E+03  0.00000000000E+00 0. -1.
         -5    1    5    5    0  502 -0.36113138065E+01 -0.17092615060E+03 -0.10929161185E+03  0.20296683711E+03  0.47000000000E+01 0.  1.
         11    1    6    6    0    0 -0.13002356278E+01  0.20709600626E+02  0.64286854197E+00  0.20760333589E+02  0.00000000000E+00 0. -1.
        -12    1    6    6    0    0 -0.23755492293E+02 -0.42217742730E+02 -0.93229507409E+02  0.10506380094E+03  0.00000000000E+00 0.  1.
</event>
<event>
12    1  0.1597826E-001  0.2483964E+03  0.7818608E-02  0.1115427E+00
         21   -1    0    0  503  502  0.00000000000E+00  0.00000000000E+00  0.49731682322E+03  0.49731682322E+03  0.00000000000E+00 0. -1.
         21   -1    0    0  501  503 -0.00000000000E+00 -0.00000000000E+00 -0.22556879250E+03  0.22556879250E+03  0.00000000000E+00 0. -1.
          6    2    1    2  501    0  0.68405480847E+02  0.15398707071E+03  0.38132006488E+03  0.45139564881E+03  0.17309451790E+03 0.  0.
         24    2    3    3    0    0 -0.13541840783E+02  0.12663223147E+03  0.23807175019E+03  0.28404625259E+03  0.88232714303E+02 0.  0.
         -6    2    1    2    0  502 -0.68405480847E+02 -0.15398707071E+03 -0.10957203416E+03  0.27148996692E+03  0.18250874969E+03 0.  0.
        -24    2    5    5    0    0  0.13772038278E+02 -0.24202667541E+02 -0.75689421461E+02  0.11411380164E+03  0.80731858947E+02 0.  0.
          5    1    3    3  501    0  0.81947321630E+02  0.27354839239E+02  0.14324831469E+03  0.16734939621E+03  0.47000000000E+01 0. -1.
        -11    1    4    4    0    0  0.16398789585E+01 -0.13137076654E+02  0.12255549653E+02  0.18040800517E+02  0.00000000000E+00 0.  1.
         12    1    4    4    0    0 -0.15181719742E+02  0.13976930812E+03  0.22581620054E+03  0.26600545208E+03  0.00000000000E+00 0. -1.
         -5    1    5    5    0  502 -0.82177519125E+02 -0.12978440317E+03 -0.33882612701E+02  0.15737616528E+03  0.47000000000E+01 0.  1.
         13    1    6    6    0    0 -0.18457607954E+02 -0.31035604720E+01 -0.73152143004E+02  0.75508618084E+02  0.00000000000E+00 0. -1.
        -14    1    6    6    0    0  0.32229646232E+02 -0.21099107069E+02 -0.25372784571E+01  0.38605183555E+02  0.00000000000E+00 0.  1.
</event>
<event>
12    1  0.1597826E-001  0.2711895E+03  0.7818608E-02  0.1100646E+00
         21   -1    0    0  503  502  0.00000000000E+00  0.00000000000E+00  0.67895162774E+03  0.67895162774E+03  0.00000000000E+00 0. -1.
         21   -1    0    0  501  503 -0.00000000000E+00 -0.00000000000E+00 -0.18391220616E+03  0.18391220616E+03  0.00000000000E+00 0. -1.
          6    2    1    2  501    0  0.25731673131E+02  0.20819397217E+03 -0.29223048209E+02  0.27275949754E+03  0.17186304983E+03 0.  0.
         24    2    3    3    0    0  0.68225228093E+02  0.93407551158E+02 -0.51079355343E+02  0.14833517184E+03  0.77553660789E+02 0.  0.
         -6    2    1    2    0  502 -0.25731673131E+02 -0.20819397217E+03  0.52426246979E+03  0.59010433636E+03  0.17136260244E+03 0.  0.
        -24    2    5    5    0    0 -0.42843703842E+02 -0.21071023907E+03  0.37417669895E+03  0.43895215542E+03  0.80227208015E+02 0.  0.
          5    1    3    3  501    0 -0.42493554962E+02  0.11478642101E+03  0.21856307135E+02  0.12442432569E+03  0.47000000000E+01 0. -1.
        -13    1    4    4    0    0  0.13893415350E+02 -0.68597204740E+00 -0.36058412305E+02  0.38648501209E+02  0.00000000000E+00 0.  1.
         14    1    4    4    0    0  0.54331812743E+02  0.94093523206E+02 -0.15020943039E+02  0.10968667064E+03  0.00000000000E+00 0. -1.
         -5    1    5    5    0  502  0.17112030711E+02  0.25162669019E+01  0.15008577084E+03  0.15115218094E+03  0.47000000000E+01 0.  1.
         13    1    6    6    0    0  0.39109958629E+01 -0.96402148855E+02  0.10385614572E+03  0.14175601997E+03  0.00000000000E+00 0. -1.
        -14    1    6    6    0    0 -0.46754699705E+02 -0.11430809022E+03  0.27032055323E+03  0.29719613546E+03  0.00000000000E+00 0.  1.
</event>
<event>
12    1  0.1597826E-001  0.2365018E+03  0.7818608E-02  0.1122163E+00
         21   -1    0    0  503  502  0.00000000000E+00  0.00000000000E+00  0.58693306710E+03  0.58693306710E+03  0.00000000000E+00 0.  1.
         21   -1    0    0  501  503 -0.00000000000E+00 -0.00000000000E+00 -0.11777308044E+03  0.11777308044E+03  0.00000000000E+00 0.  1.
          6    2    1    2  501    0  0.64113327000E+01  0.16190334314E+03  0.38869408621E+03  0.45499030887E+03  0.17227678544E+03 0.  0.
         24    2    3    3    0    0 -0.37251034335E+02  0.12546599970E+03  0.17299849690E+03  0.23187428627E+03  0.81901453363E+02 0.  0.
         -6    2    1    2    0  502 -0.64113327000E+01 -0.16190334314E+03  0.80465900448E+02  0.24971583867E+03  0.17213204594E+03 0.  0.
        -24    2    5    5    0    0 -0.33100274052E+02 -0.15637245974E+02  0.26886306166E+02  0.91605327655E+02  0.79551938955E+02 0.  0.
          5    1    3    3  501    0  0.43662367035E+02  0.36437343433E+02  0.21569558931E+03  0.22311602260E+03  0.47000000000E+01 0. -1.
        -13    1    4    4    0    0 -0.38523207609E+01  0.11867123024E+03  0.14726083080E+03  0.18916514888E+03  0.00000000000E+00 0.  1.
         14    1    4    4    0    0 -0.33398713574E+02  0.67947694624E+01  0.25737666098E+02  0.42709137391E+02  0.00000000000E+00 0. -1.
         -5    1    5    5    0  502  0.26688941352E+02 -0.14626609716E+03  0.53579594282E+02  0.15811051101E+03  0.47000000000E+01 0.  1.
         11    1    6    6    0    0 -0.11471054387E+02  0.31098634572E+02  0.22200202114E+02  0.39894349662E+02  0.00000000000E+00 0. -1.
        -12    1    6    6    0    0 -0.21629219665E+02 -0.46735880547E+02  0.46861040518E+01  0.51710977993E+02  0.00000000000E+00 0.  1.
</event>
<event>
12    1  0.1597826E-001  0.1760908E+03  0.7818608E-02  0.1171656E+00
         21   -1    0    0  501  502  0.00000000000E+00  0.00000000000E+00  0.16190401326E+04  0.16190401326E+04  0.00000000000E+00 0.  1.
         21   -1    0    0  502  503 -0.00000000000E+00 -0.00000000000E+00 -0.20669467206E+02  0.20669467206E+02  0.00000000000E+00 0.  1.
         -6    2    1    2    0  503 -0.99557338917E+01  0.38225522461E+02  0.10216659991E+04  0.10367201664E+04  0.17154294675E+03 0.  0.
        -24    2    3    3    0    0 -0.21812101937E+02  0.81246997496E+02  0.89034632356E+03  0.89794564442E+03  0.80702924761E+02 0.  0.
          6    2    1    2  501    0  0.99557338917E+01 -0.38225522461E+02  0.57670466631E+03  0.60298943338E+03  0.17160325586E+03 0.  0.
         24    2    5    5    0    0  0.59611967481E+02 -0.47819292914E+02  0.47936655864E+03  0.49319608581E+03  0.87234225377E+02 0.  0.
          5    1    5    5  501    0 -0.49656233590E+02  0.95937704529E+01  0.97338107675E+02  0.10979334757E+03  0.47000000000E+01 0. -1.
        -11    1    6    6    0    0  0.70971866467E+02 -0.45446896679E+01  0.28338123201E+03  0.29216875721E+03  0.00000000000E+00 0.  1.
         12    1    6    6    0    0 -0.11359898986E+02 -0.43274603246E+02  0.19598532662E+03  0.20102732860E+03  0.00000000000E+00 0. -1.
         -5    1    3    3    0  503  0.11856368045E+02 -0.43021475035E+02  0.13131967553E+03  0.13877452201E+03  0.47000000000E+01 0.  1.
         11    1    4    4    0    0  0.13222602346E+02 -0.74745373595E+01  0.51497353292E+02  0.53690625976E+02  0.00000000000E+00 0. -1.
        -12    1    4    4    0    0 -0.35034704283E+02  0.88721534856E+02  0.83884897026E+03  0.84425501844E+03  0.00000000000E+00 0.  1.
</event>
<event>
12    1  0.1597826E-001  0.1937986E+03  0.7818608E-02  0.1155083E+00
         21   -1    0    0  503  502  0.00000000000E+00  0.00000000000E+00  0.25811416042E+03  0.25811416042E+03  0.00000000000E+00 0. -1.
         21   -1    0    0  501  503 -0.00000000000E+00 -0.00000000000E+00 -0.37086178682E+03  0.37086178682E+03  0.00000000000E+00 0. -1.
          6    2    1    2  501    0  0.35521327734E+02 -0.78414413614E+02 -0.30152781218E+03  0.35842865575E+03  0.17361306044E+03 0.  0.
         24    2    3    3    0    0 -0.42983842816E+02 -0.66546289656E+02 -0.20502033904E+03  0.23336988340E+03  0.78435601903E+02 0.  0.
         -6    2    1    2    0  502 -0.35521327734E+02  0.78414413614E+02  0.18878018578E+03  0.27054729149E+03  0.17362975955E+03 0.  0.
        -24    2    5    5    0    0 -0.11683485936E+02  0.11303911721E+03  0.17841852252E+03  0.22699770060E+03  0.82343433476E+02 0.  0.
          5    1    3    3  501    0  0.78505170550E+02 -0.11868123959E+02 -0.96507473139E+02  0.12505877235E+03  0.47000000000E+01 0. -1.
        -13    1    4    4    0    0 -0.32583102608E+01 -0.20263108654E+02 -0.11329386309E+01  0.20554651736E+02  0.00000000000E+00 0.  1.
         14    1    4    4    0    0 -0.39725532555E+02 -0.46283181002E+02 -0.20388740041E+03  0.21281523166E+03  0.00000000000E+00 0. -1.
         -5    1    5    5    0  502 -0.23837841798E+02 -0.34624703597E+02  0.10361663264E+02  0.43549590886E+02  0.47000000000E+01 0.  1.
         13    1    6    6    0    0 -0.12015697508E+02  0.40019200717E+02  0.93260580044E+01  0.42812250239E+02  0.00000000000E+00 0. -1.
        -14    1    6    6    0    0  0.33221157209E+00  0.73019916494E+02  0.16909246452E+03  0.18418545036E+03  0.00000000000E+00 0.  1.
</event>
<event>
12    1  0.1597826E-001  0.2012606E+03  0.7818608E-02  0.1149071E+00
         21   -1    0    0  503  502  0.00000000000E+00  0.00000000000E+00  0.23783631442E+03  0.23783631442E+03  0.00000000000E+00 0. -1.
         21   -1    0    0  501  503 -0.00000000000E+00 -0.00000000000E+00 -0.26093785415E+03  0.26093785415E+03  0.00000000000E+00 0. -1.
          6    2    1    2  501    0  0.25385451296E+02 -0.10055850608E+03 -0.15975746476E+03  0.25550335311E+03  0.17030291137E+03 0.  0.
         24    2    3    3    0    0  0.64203807843E+02 -0.10350669184E+03 -0.79314150950E+02  0.16601160298E+03  0.80208189021E+02 0.  0.
         -6    2    1    2    0  502 -0.25385451296E+02  0.10055850608E+03  0.13665592502E+03  0.24327081546E+03  0.17248018301E+03 0.  0.
        -24    2    5    5    0    0  0.38259996087E+02  0.30301492082E+02  0.11051298822E+03  0.14482116268E+03  0.79862637519E+02 0.  0.
          5    1    3    3  501    0 -0.38818356547E+02  0.29481857644E+01 -0.80443313805E+02  0.89491750124E+02  0.47000000000E+01 0. -1.
        -11    1    4    4    0    0  0.61446009850E+02 -0.23873350792E+02 -0.31207339903E+02  0.72934539611E+02  0.00000000000E+00 0.  1.
         12    1    4    4    0    0  0.27577979933E+01 -0.79633341051E+02 -0.48106811048E+02  0.93077063372E+02  0.00000000000E+00 0. -1.
         -5    1    5    5    0  502 -0.63645447383E+02  0.70257013997E+02  0.26142936799E+02  0.98449652782E+02  0.47000000000E+01 0.  1.
         13    1    6    6    0    0  0.29278482932E+02  0.49939885088E+02  0.10869550147E+03  0.12315004558E+03  0.00000000000E+00 0. -1.
        -14    1    6    6    0    0  0.89815131547E+01 -0.19638393006E+02  0.18174867486E+01  0.21671117103E+02  0.00000000000E+00 0.  1.
</event>
<event>
12    1  0.1597826E-001  0.2577668E+03  0.7818608E-02  0.1108700E+00
         21   -1    0    0  501  502  0.00000000000E+00  0.00000000000E+00  0.18764054129E+03  0.18764054129E+03  0.00000000000E+00 0. -1.
         21   -1    0    0  502  503 -0.00000000000E+00 -0.00000000000E+00 -0.38036667154E+03  0.38036667154E+03  0.00000000000E+00 0. -1.
         -6    2    1    2    0  503  0.13103958179E+03 -0.13860409363E+03 -0.17336399756E+03  0.30951420379E+03  0.17135197674E+03 0.  0.
        -24    2    3    3    0    0  0.33505011849E+02 -0.16980319501E+01 -0.79575746633E+02  0.11696657833E+03  0.78888604138E+02 0.  0.
          6    2    1    2  501    0 -0.13103958179E+03  0.13860409363E+03 -0.19362132696E+02  0.25849300904E+03  0.17338188134E+03 0.  0.
         24    2    5    5    0    0 -0.25732841059E+02  0.61031517147E+02 -0.62238633632E+02  0.12077046696E+03  0.79528818549E+02 0.  0.
          5    1    5    5  501    0 -0.10530674073E+03  0.77572576486E+02  0.42876500935E+02  0.13772254208E+03  0.47000000000E+01 0. -1.
        -13    1    6    6    0    0  0.16228878051E+02 -0.76259089655E+01  0.16768175007E+01  0.18009516575E+02  0.00000000000E+00 0.  1.
         14    1    6    6    0    0 -0.41961719110E+02  0.68657426112E+02 -0.63915451132E+02  0.10276095039E+03  0.00000000000E+00 0. -1.
         -5    1    3    3    0  503  0.97534569937E+02 -0.13690606168E+03 -0.93788250922E+02  0.19254762546E+03  0.47000000000E+01 0.  1.
         11    1    4    4    0    0  0.29351720995E+02 -0.16935026753E+02 -0.91242314764E+02  0.97331796757E+02  0.00000000000E+00 0. -1.
        -12    1    4    4    0    0  0.41532908546E+01  0.15236994803E+02  0.11666568131E+02  0.19634781575E+02  0.00000000000E+00 0.  1.
</event>
<event>
12    1  0.1597826E-001  0.3095233E+03  0.7818608E-02  0.1080597E+00
         21   -1    0    0  501  502  0.00000000000E+00  0.00000000000E+00  0.12508518636E+04  0.12508518636E+04  0.00000000000E+00 0.  1.
         21   -1    0    0  502  503 -0.00000000000E+00 -0.00000000000E+00 -0.20017079375E+03  0.20017079375E+03  0.00000000000E+00 0. -1.
         -6    2    1    2    0  503  0.14774261104E+03 -0.21103246665E+03 -0.44760890239E+02  0.31274299843E+03  0.17158690123E+03 0.  0.
        -24    2    3    3    0    0  0.12815074532E+03 -0.11139453241E+03 -0.81434638431E+02  0.20467536707E+03  0.80181358001E+02 0.  0.
          6    2    1    2  501    0 -0.14774261104E+03  0.21103246665E+03  0.10954419601E+04  0.11382796589E+04  0.17124518355E+03 0.  0.
         24    2    5    5    0    0 -0.14820279199E+03  0.23160490929E+03  0.10082154864E+04  0.10485356626E+04  0.85578427018E+02 0.  0.
          5    1    5    5  501    0  0.46018095531E+00 -0.20572442640E+02  0.87226473648E+02  0.89743996277E+02  0.47000000000E+01 0. -1.
        -13    1    6    6    0    0 -0.35253427707E+02  0.11009643914E+02  0.19219582703E+03  0.19571216710E+03  0.00000000000E+00 0.  1.
         14    1    6    6    0    0 -0.11294936429E+03  0.22059526537E+03  0.81601965941E+03  0.85282349553E+03  0.00000000000E+00 0. -1.
         -5    1    3    3    0  503  0.19591865721E+02 -0.99637934235E+02  0.36673748193E+02  0.10806763136E+03  0.47000000000E+01 0.  1.
         11    1    4    4    0    0  0.94801090286E+02 -0.10876288664E+03 -0.90120713878E+02  0.17011277230E+03  0.00000000000E+00 0. -1.
        -12    1    4    4    0    0  0.33349655032E+02 -0.26316457682E+01  0.86860754470E+01  0.34562594765E+02  0.00000000000E+00 0.  1.
</event>
<event>
12    1  0.1597826E-001  0.2747366E+03  0.7818608E-02  0.1099001E+00
         21   -1    0    0  501  502  0.00000000000E+00  0.00000000000E+00  0.17444625058E+03  0.17444625058E+03  0.00000000000E+00 0.  1.
         21   -1    0    0  502  503 -0.00000000000E+00 -0.00000000000E+00 -0.44663258715E+03  0.44663258715E+03  0.00000000000E+00 0.  1.
         -6    2    1    2    0  503  0.89082410967E+02 -0.19313108005E+03 -0.73681179957E+02  0.28444525608E+03  0.17391060174E+03 0.  0.
        -24    2    3    3    0    0 -0.17895129718E+02 -0.58837470092E+02 -0.15061697869E+02  0.10295888863E+03  0.81188634988E+02 0.  0.
          6    2    1    2  501    0 -0.89082410967E+02  0.19313108005E+03 -0.19850515661E+03  0.33663358165E+03  0.16935932530E+03 0.  0.
         24    2    5    5    0    0 -0.10719698311E+03  0.10117046835E+03 -0.96863052249E+02  0.19829306261E+03  0.90614739059E+02 0.  0.
          5    1    5    5  501    0  0.18114572139E+02  0.91960611702E+02 -0.10164210436E+03  0.13834051904E+03  0.47000000000E+01 0. -1.
        -13    1    6    6    0    0 -0.13010268937E+02  0.72840988055E+02 -0.50310155299E+02  0.89477306424E+02  0.00000000000E+00 0.  1.
         14    1    6    6    0    0 -0.94186714169E+02  0.28329480295E+02 -0.46552896950E+02  0.10881575619E+03  0.00000000000E+00 0. -1.
         -5    1    3    3    0  503  0.10697754069E+03 -0.13429360996E+03 -0.58619482088E+02  0.18148636744E+03  0.47000000000E+01 0.  1.
         11    1    4    4    0    0  0.31122954069E+00  0.95318018293E+01  0.21352969157E+02  0.23385923154E+02  0.00000000000E+00 0. -1.
        -12    1    4    4    0    0 -0.18206359259E+02 -0.68369271921E+02 -0.36414667026E+02  0.79572965479E+02  0.00000000000E+00 0.  1.
</event>
<event>
12    1  0.1597826E-001  0.1903831E+03  0.7818608E-02  0.1159775E+00
         21   -1    0    0  503  502  0.00000000000E+00  0.00000000000E+00  0.32020227168E+02  0.32020227168E+02  0.00000000000E+00 0. -1.
         21   -1    0    0  501  503 -0.00000000000E+00 -0.00000000000E+00 -0.13278486303E+04  0.13278486303E+04  0.00000000000E+00 0. -1.
          6    2    1    2  501    0 -0.60371077652E+02 -0.20221889287E+02 -0.92570632039E+03  0.94365249027E+03  0.17173886852E+03 0.  0.
         24    2    3    3    0    0 -0.82584818752E+02 -0.31746764363E+02 -0.39976526608E+03  0.41709541298E+03  0.79550023420E+02 0.  0.
         -6    2    1    2    0  502  0.60371077652E+02  0.20221889287E+02 -0.37012208277E+03  0.41621636723E+03  0.17942161623E+03 0.  0.
        -24    2    5    5    0    0  0.69151596315E+02  0.67241576427E+02 -0.17810703872E+03  0.21827744829E+03  0.81360643548E+02 0.  0.
          5    1    3    3  501    0  0.22213741100E+02  0.11524875077E+02 -0.52594105431E+03  0.52655707729E+03  0.47000000000E+01 0. -1.
        -11    1    4    4    0    0 -0.42068973485E+02 -0.96079697219E+01 -0.58352494190E+02  0.72574962559E+02  0.00000000000E+00 0.  1.
         12    1    4    4    0    0 -0.40515845266E+02 -0.22138794641E+02 -0.34141277189E+03  0.34452045042E+03  0.00000000000E+00 0. -1.
         -5    1    5    5    0  502 -0.87805186630E+01 -0.47019687141E+02 -0.19201504405E+03  0.19793891894E+03  0.47000000000E+01 0.  1.
         13    1    6    6    0    0  0.36090555983E+02 -0.85358081887E+01 -0.90575259464E+02  0.97873724154E+02  0.00000000000E+00 0. -1.
        -14    1    6    6    0    0  0.33061040331E+02  0.75777384616E+02 -0.87531779252E+02  0.12040372414E+03  0.00000000000E+00 0.  1.
</event>
<event>
12    1  0.1597826E-001  0.2158235E+03  0.7818608E-02  0.1137122E+00
         21   -1    0    0  503  502  0.00000000000E+00  0.00000000000E+00  0.18772205050E+03  0.18772205050E+03  0.00000000000E+00 0.  1.
         21   -1    0    0  501  503 -0.00000000000E+00 -0.00000000000E+00 -0.63005559415E+03  0.63005559415E+03  0.00000000000E+00 0.  1.
          6    2    1    2  501    0  0.97821253353E+02 -0.88023732011E+02 -0.53964124531E+03  0.58103187408E+03  0.17049395900E+03 0.  0.
         24    2    3    3    0    0  0.10877107675E+03 -0.71802295591E+02 -0.53953801012E+03  0.56090392611E+03  0.80778915402E+02 0.  0.
         -6    2    1    2    0  502 -0.97821253353E+02  0.88023732011E+02  0.97307701668E+02  0.23674577057E+03  0.17106313476E+03 0.  0.
        -24    2    5    5    0    0 -0.85335430880E+02  0.79409739438E+02  0.26187982286E+01  0.14073444277E+03  0.78811692003E+02 0.  0.
          5    1    3    3  501    0 -0.10949823401E+02 -0.16221436420E+02 -0.10323519229E+00  0.20127947972E+02  0.47000000000E+01 0. -1.
        -13    1    4    4    0    0  0.88936327984E+02 -0.12359984730E+02 -0.34676260696E+03  0.35819930938E+03  0.00000000000E+00 0.  1.
         14    1    4    4    0    0  0.19834748770E+02 -0.59442310861E+02 -0.19277540316E+03  0.20270461673E+03  0.00000000000E+00 0. -1.
         -5    1    5    5    0  502 -0.12485822473E+02  0.86139925728E+01  0.94688903439E+02  0.96011327797E+02  0.47000000000E+01 0.  1.
         13    1    6    6    0    0 -0.40118358076E+02 -0.70538032460E+01 -0.11056359850E+02  0.42207604624E+02  0.00000000000E+00 0. -1.
        -14    1    6    6    0    0 -0.45217072804E+02  0.86463542684E+02  0.13675158079E+02  0.98526838145E+02  0.00000000000E+00 0.  1.
</event>
<event>
12    1  0.1597826E-001  0.2056465E+03  0.7818608E-02  0.1145206E+00
         21   -1    0    0  501  502  0.00000000000E+00  0.00000000000E+00  0.84284958494E+02  0.84284958494E+02  0.00000000000E+00 0. -1.
         21   -1    0    0  502  503 -0.00000000000E+00 -0.00000000000E+00 -0.59602667414E+03  0.59602667414E+03  0.00000000000E+00 0. -1.
         -6    2    1    2    0  503  0.76700213529E+02  0.84272869651E+02 -0.39276990244E+03  0.44334941001E+03  0.17118897096E+03 0.  0.
        -24    2    3    3    0    0  0.13708359359E+02 -0.12903404982E+02 -0.22439537048E+03  0.23893983329E+03  0.79903345743E+02 0.  0.
          6    2    1    2  501    0 -0.76700213529E+02 -0.84272869651E+02 -0.11897181320E+03  0.23696222262E+03  0.17032898549E+03 0.  0.
         24    2    5    5    0    0 -0.14507669456E+02 -0.83353623014E+02 -0.12707913390E+03  0.17406090148E+03  0.83604977179E+02 0.  0.
          5    1    5    5  501    0 -0.62192544073E+02 -0.91924663677E+00  0.81073206950E+01  0.62901321143E+02  0.47000000000E+01 0. -1.
        -11    1    6    6    0    0  0.15366975701E+02  0.40774598812E+01  0.12311534223E+01  0.15946327478E+02  0.00000000000E+00 0.  1.
         12    1    6    6    0    0 -0.29874645157E+02 -0.87431082896E+02 -0.12831028732E+03  0.15811457400E+03  0.00000000000E+00 0. -1.
         -5    1    3    3    0  503  0.62991854170E+02  0.97176274633E+02 -0.16837453196E+03  0.20440957672E+03  0.47000000000E+01 0.  1.
         11    1    4    4    0    0  0.18395222158E+02  0.30024381990E+02 -0.66512739964E+02  0.75258170916E+02  0.00000000000E+00 0. -1.
        -12    1    4    4    0    0 -0.46868627994E+01 -0.42927786971E+02 -0.15788263052E+03  0.16368166237E+03  0.00000000000E+00 0.  1.
</event>
<event>
12    1  0.1597826E-001  0.2451561E+03  0.7818608E-02  0.1116580E+00
         21   -1    0    0  501  502  0.00000000000E+00  0.00000000000E+00  0.13685795810E+03  0.13685795810E+03  0.00000000000E+00 0. -1.
         21   -1    0    0  502  503 -0.00000000000E+00 -0.00000000000E+00 -0.81363895742E+03  0.81363895742E+03  0.00000000000E+00 0.  1.
         -6    2    1    2    0  503  0.16162093801E+03  0.64157346807E+02 -0.66123916638E+03  0.70484863094E+03  0.17128007658E+03 0.  0.
        -24    2    3    3    0    0  0.85472135334E+02  0.92382385105E+02 -0.27180346776E+03  0.30700752410E+03  0.67353572808E+02 0.  0.
          6    2    1    2  501    0 -0.16162093801E+03 -0.64157346807E+02 -0.15541832952E+02  0.24564828458E+03  0.17281214770E+03 0.  0.
         24    2    5    5    0    0 -0.93057536298E+02  0.25280010805E+02  0.30027200618E+02  0.12399875597E+03  0.71939382101E+02 0.  0.
          5    1    5    5  501    0 -0.68563401712E+02 -0.89437357611E+02 -0.45569033570E+02  0.12164952861E+03  0.47000000000E+01 0. -1.
        -13    1    6    6    0    0 -0.17014792776E+02  0.22627094628E+02 -0.18438255892E+02  0.33785468250E+02  0.00000000000E+00 0.  1.
         14    1    6    6    0    0 -0.76042743522E+02  0.26529161764E+01  0.48465456510E+02  0.90213287720E+02  0.00000000000E+00 0. -1.
         -5    1    3    3    0  503  0.76148802675E+02 -0.28225038298E+02 -0.38943569861E+03  0.39784110684E+03  0.47000000000E+01 0.  1.
         13    1    4    4    0    0  0.61181898280E+02  0.93879426924E+02 -0.25142596540E+03  0.27526639380E+03  0.00000000000E+00 0. -1.
        -14    1    4    4    0    0  0.24290237054E+02 -0.14970418194E+01 -0.20377502362E+02  0.31741130302E+02  0.00000000000E+00 0.  1.
</event>
<event>
12    1  0.1597826E-001  0.2407577E+03  0.7818608E-02  0.1120998E+00
         21   -1    0    0  503  502  0.00000000000E+00  0.00000000000E+00  0.46211962629E+03  0.46211962629E+03  0.00000000000E+00 0.  1.
         21   -1    0    0  501  503 -0.00000000000E+00 -0.00000000000E+00 -0.21113676020E+03  0.21113676020E+03  0.00000000000E+00 0.  1.
          6    2    1    2  501    0 -0.25649948461E+02 -0.15186161614E+03 -0.93827657959E+02  0.25839489262E+03  0.18505248127E+03 0.  0.
         24    2    3    3    0    0 -0.14313693274E+01 -0.73432001092E+02 -0.13158947721E+03  0.16791954192E+03  0.74073439526E+02 0.  0.
         -6    2    1    2    0  502  0.25649948461E+02  0.15186161614E+03  0.34481052405E+03  0.41486149388E+03  0.17174367905E+03 0.  0.
        -24    2    5    5    0    0  0.38843695383E+02  0.14728455329E+03  0.35745362025E+03  0.39544597576E+03  0.73504127785E+02 0.  0.
          5    1    3    3  501    0 -0.24218579133E+02 -0.78429615045E+02  0.37761819253E+02  0.90475350702E+02  0.47000000000E+01 0. -1.
        -13    1    4    4    0    0 -0.53586293288E+01 -0.86412200096E+02 -0.93216278756E+02  0.12722050880E+03  0.00000000000E+00 0.  1.
         14    1    4    4    0    0  0.39272600013E+01  0.12980199004E+02 -0.38373198456E+02  0.40699033121E+02  0.00000000000E+00 0. -1.
         -5    1    5    5    0  502 -0.13193746923E+02  0.45770628506E+01 -0.12643096206E+02  0.19415518120E+02  0.47000000000E+01 0.  1.
         13    1    6    6    0    0  0.17891193029E+02  0.59157849572E+02  0.23584357495E+03  0.24380717340E+03  0.00000000000E+00 0. -1.
        -14    1    6    6    0    0  0.20952502354E+02  0.88126703713E+02  0.12161004530E+03  0.15163880236E+03  0.00000000000E+00 0.  1.
</event>
<event>
12    1  0.1597826E-001  0.1970459E+03  0.7818608E-02  0.1153464E+00
         21   -1    0    0  501  502  0.00000000000E+00  0.00000000000E+00  0.10896383293E+03  0.10896383293E+03  0.00000000000E+00 0. -1.
         21   -1    0    0  502  503 -0.00000000000E+00 -0.00000000000E+00 -0.92641655111E+03  0.92641655111E+03  0.00000000000E+00 0. -1.
         -6    2    1    2    0  503 -0.19057382762E+02  0.83287191499E+02 -0.81616261447E+03  0.83833021236E+03  0.17139484120E+03 0.  0.
        -24    2    3    3    0    0  0.26706151599E+02 -0.84132904276E+01 -0.48117724807E+03  0.48798671639E+03  0.76259355681E+02 0.  0.
          6    2    1    2  501    0  0.19057382762E+02 -0.83287191499E+02 -0.12901037117E+01  0.19705017169E+03  0.17755890766E+03 0.  0.
         24    2    5    5    0    0  0.64331608738E+02 -0.42847264541E+02 -0.47357348302E+02  0.12069950532E+03  0.79694467723E+02 0.  0.
          5    1    5    5  501    0 -0.45274225976E+02 -0.40439926958E+02  0.46067244591E+02  0.76350666365E+02  0.47000000000E+01 0. -1.
        -13    1    6    6    0    0 -0.52148236977E+01  0.12978070957E+02 -0.25178428528E+02  0.28802395302E+02  0.00000000000E+00 0.  1.
         14    1    6    6    0    0  0.69546432436E+02 -0.55825335498E+02 -0.22178919774E+02  0.91897110022E+02  0.00000000000E+00 0. -1.
         -5    1    3    3    0  503 -0.45763534361E+02  0.91700481927E+02 -0.33498536640E+03  0.35034349596E+03  0.47000000000E+01 0.  1.
         13    1    4    4    0    0 -0.39363622197E+01  0.24128736555E+02 -0.65511814890E+02  0.69924879445E+02  0.00000000000E+00 0. -1.
        -14    1    4    4    0    0  0.30642513819E+02 -0.32542026982E+02 -0.41566543318E+03  0.41806183695E+03  0.00000000000E+00 0.  1.
</event>
<event>
12    1  0.1597826E-001  0.1908365E+03  0.7818608E-02  0.1158217E+00
         21   -1    0    0  503  502  0.00000000000E+00  0.00000000000E+00  0.21437157276E+03  0.21437157276E+03  0.00000000000E+00 0.  1.
         21   -1    0    0  501  503 -0.00000000000E+00 -0.00000000000E+00 -0.23561884304E+03  0.23561884304E+03  0.00000000000E+00 0.  1.
          6    2    1    2  501    0 -0.30193187105E+02  0.76654724730E+02 -0.13120821299E+03  0.22974058318E+03  0.16963951494E+03 0.  0.
         24    2    3    3    0    0 -0.63054952350E+02  0.89601641663E+02 -0.13815723009E+03  0.19343773051E+03  0.79538381652E+02 0.  0.
         -6    2    1    2    0  502  0.30193187105E+02 -0.76654724730E+02  0.10996094271E+03  0.22024983263E+03  0.17213658670E+03 0.  0.
        -24    2    5    5    0    0  0.20685919384E+02 -0.31956876818E+02 -0.12758628852E+02  0.89213696422E+02  0.79669013942E+02 0.  0.
          5    1    3    3  501    0  0.32861765245E+02 -0.12946916932E+02  0.69490170941E+01  0.36302852665E+02  0.47000000000E+01 0. -1.
        -11    1    4    4    0    0  0.14953359078E+02  0.32721308287E+01 -0.33951387641E+02  0.37242536308E+02  0.00000000000E+00 0.  1.
         12    1    4    4    0    0 -0.78008311428E+02  0.86329510834E+02 -0.10420584245E+03  0.15619519420E+03  0.00000000000E+00 0. -1.
         -5    1    5    5    0  502  0.95072677206E+01 -0.44697847913E+02  0.12271957156E+03  0.13103613621E+03  0.47000000000E+01 0.  1.
         13    1    6    6    0    0 -0.19381574955E+02  0.32721212033E+01  0.18822661879E+02  0.27214790558E+02  0.00000000000E+00 0. -1.
        -14    1    6    6    0    0  0.40067494339E+02 -0.35228998021E+02 -0.31581290731E+02  0.61998905864E+02  0.00000000000E+00 0.  1.
</event>
<event>
12    1  0.1597826E-001  0.1867909E+03  0.7818608E-02  0.1162303E+00
         21   -1    0    0  501  502  0.00000000000E+00  0.00000000000E+00  0.91511368175E+02  0.91511368175E+02  0.00000000000E+00 0.  1.
         21   -1    0    0  502  503 -0.00000000000E+00 -0.00000000000E+00 -0.54702771245E+03  0.54702771245E+03  0.00000000000E+00 0.  1.
         -6    2    1    2    0  503  0.46850878944E+02 -0.44354449590E+02 -0.40602104350E+03  0.44530188928E+03  0.17110921301E+03 0.  0.
        -24    2    3    3    0    0  0.87717026089E+02 -0.21059180394E+02 -0.35854225535E+03  0.37830161411E+03  0.80136113072E+02 0.  0.
          6    2    1    2  501    0 -0.46850878944E+02  0.44354449590E+02 -0.49495300780E+02  0.19323719135E+03  0.17529547987E+03 0.  0.
         24    2    5    5    0    0 -0.31445884443E+02 -0.56519298741E+01  0.34793907535E+02  0.93915932390E+02  0.81171413659E+02 0.  0.
          5    1    5    5  501    0 -0.15404994501E+02  0.50006379464E+02 -0.84289208315E+02  0.99321258958E+02  0.47000000000E+01 0. -1.
        -11    1    6    6    0    0 -0.32514022685E+02 -0.40584738512E+02  0.24480991367E+02  0.57476965904E+02  0.00000000000E+00 0.  1.
         12    1    6    6    0    0  0.10681382422E+01  0.34932808638E+02  0.10312916167E+02  0.36438966485E+02  0.00000000000E+00 0. -1.
         -5    1    3    3    0  503 -0.40866147145E+02 -0.23295269197E+02 -0.47478788147E+02  0.67000275174E+02  0.47000000000E+01 0.  1.
         13    1    4    4    0    0  0.35688879135E+02 -0.16417386206E+02 -0.42117244911E+02  0.57594174902E+02  0.00000000000E+00 0. -1.
        -14    1    4    4    0    0  0.52028146954E+02 -0.46417941875E+01 -0.31642501044E+03  0.32070743921E+03  0.00000000000E+00 0.  1.
</event>
<event>
12    1  0.1597826E-001  0.2177476E+03  0.7818608E-02  0.1136686E+00
         21   -1    0    0  501  502  0.00000000000E+00  0.00000000000E+00  0.88372150199E+02  0.88372150199E+02  0.00000000000E+00 0. -1.
         21   -1    0    0  502  503 -0.00000000000E+00 -0.00000000000E+00 -0.54225065136E+03  0.54225065136E+03  0.00000000000E+00 0. -1.
         -6    2    1    2    0  503 -0.53606305864E+02  0.11872770225E+03 -0.28443933354E+03  0.35471765473E+03  0.16717947481E+03 0.  0.
        -24    2    3    3    0    0 -0.57370615704E+02  0.60628712590E+01 -0.16275162103E+03  0.18877331602E+03  0.76283214022E+02 0.  0.
          6    2    1    2  501    0  0.53606305864E+02 -0.11872770225E+03 -0.16943916762E+03  0.27590514683E+03  0.17448242094E+03 0.  0.
         24    2    5    5    0    0 -0.19666175543E+02 -0.51871026542E+02 -0.14433660915E+03  0.17348005196E+03  0.78644197700E+02 0.  0.
          5    1    5    5  501    0  0.73272481407E+02 -0.66856675704E+02 -0.25102558464E+02  0.10242509487E+03  0.47000000000E+01 0. -1.
        -13    1    6    6    0    0 -0.30617109144E+01  0.20964101953E+02 -0.26037308340E+02  0.33567976853E+02  0.00000000000E+00 0.  1.
         14    1    6    6    0    0 -0.16604464629E+02 -0.72835128495E+02 -0.11829930081E+03  0.13991207511E+03  0.00000000000E+00 0. -1.
         -5    1    3    3    0  503  0.37643098401E+01  0.11266483099E+03 -0.12168771252E+03  0.16594433870E+03  0.47000000000E+01 0.  1.
         13    1    4    4    0    0 -0.72207883846E+02  0.52871790240E+00 -0.15531049853E+03  0.17127641106E+03  0.00000000000E+00 0. -1.
        -14    1    4    4    0    0  0.14837268142E+02  0.55341533566E+01 -0.74411224975E+01  0.17496904964E+02  0.00000000000E+00 0.  1.
</event>
<event>
12    1  0.1597826E-001  0.2427492E+03  0.7818608E-02  0.1119091E+00
         21   -1    0    0  501  502  0.00000000000E+00  0.00000000000E+00  0.35918117100E+03  0.35918117100E+03  0.00000000000E+00 0.  1.
         21   -1    0    0  502  503 -0.00000000000E+00 -0.00000000000E+00 -0.16010919736E+03  0.16010919736E+03  0.00000000000E+00 0. -1.
         -6    2    1    2    0  503 -0.42375770599E+02  0.16276696521E+03  0.11610026257E+03  0.26908445744E+03  0.17503823402E+03 0.  0.
        -24    2    3    3    0    0  0.21269600495E+02  0.15124884053E+03  0.69608654086E+02  0.18929122391E+03  0.87505400170E+02 0.  0.
          6    2    1    2  501    0  0.42375770599E+02 -0.16276696521E+03  0.82971711064E+02  0.25020591092E+03  0.16561975161E+03 0.  0.
         24    2    5    5    0    0 -0.58571750674E+01 -0.15184730618E+03  0.98452352010E+02  0.19817326496E+03  0.80547293158E+02 0.  0.
          5    1    5    5  501    0  0.48232945666E+02 -0.10919659026E+02 -0.15480640947E+02  0.52032645954E+02  0.47000000000E+01 0. -1.
        -11    1    6    6    0    0 -0.14107512269E+02 -0.11146859237E+03  0.10802380651E+03  0.15586343946E+03  0.00000000000E+00 0.  1.
         12    1    6    6    0    0  0.82503372014E+01 -0.40378713816E+02 -0.95714544959E+01  0.42309825508E+02  0.00000000000E+00 0. -1.
         -5    1    3    3    0  503 -0.63645371094E+02  0.11518124679E+02  0.46491608488E+02  0.79793233532E+02  0.47000000000E+01 0.  1.
         11    1    4    4    0    0 -0.24814738846E+02  0.31048352721E+02 -0.56942988021E+01  0.40152166935E+02  0.00000000000E+00 0. -1.
        -12    1    4    4    0    0  0.46084339341E+02  0.12020048781E+03  0.75302952888E+02  0.14913905698E+03  0.00000000000E+00 0.  1.
</event>
<event>
12    1  0.1597826E-001  0.1869749E+03  0.7818608E-02  0.1161650E+00
         21   -1    0    0  503  502  0.00000000000E+00  0.00000000000E+00  0.23744088967E+03  0.23744088967E+03  0.00000000000E+00 0. -1.
         21   -1    0    0  501  503 -0.00000000000E+00 -0.00000000000E+00 -0.50355836679E+03  0.50355836679E+03  0.00000000000E+00 0. -1.
          6    2    1    2  501    0 -0.92261783222E+01  0.71507385920E+02 -0.44516699911E+03  0.48212021162E+03  0.17049285250E+03 0.  0.
         24    2    3    3    0    0  0.60627515250E+02  0.48492394860E+02 -0.22898569255E+03  0.25372214765E+03  0.76897807856E+02 0.  0.
         -6    2    1    2    0  502  0.92261783222E+01 -0.71507385920E+02  0.17904952199E+03  0.25887904483E+03  0.17251434700E+03 0.  0.
        -24    2    5    5    0    0 -0.51069411916E+02 -0.58006393795E+02  0.64189476624E+02  0.12836944744E+03  0.79909946638E+02 0.  0.
          5    1    3    3  501    0 -0.69853693572E+02  0.23014991060E+02 -0.21618130656E+03  0.22839806397E+03  0.47000000000E+01 0. -1.
        -13    1    4    4    0    0  0.22353024071E+02  0.44240363238E+02 -0.49129995349E+02  0.69789855048E+02  0.00000000000E+00 0.  1.
         14    1    4    4    0    0  0.38274491178E+02  0.42520316222E+01 -0.17985569720E+03  0.18393229261E+03  0.00000000000E+00 0. -1.
         -5    1    5    5    0  502  0.60295590238E+02 -0.13500992125E+02  0.11486004537E+03  0.13050959740E+03  0.47000000000E+01 0.  1.
         11    1    6    6    0    0 -0.38790966709E+01  0.16246538513E+02  0.29295334370E+02  0.33722603999E+02  0.00000000000E+00 0. -1.
        -12    1    6    6    0    0 -0.47190315245E+02 -0.74252932308E+02  0.34894142254E+02  0.94646843439E+02  0.00000000000E+00 0.  1.
</event>
<event>
12    1  0.1597826E-001  0.1797409E+03  0.7818608E-02  0.1169933E+00
         21   -1    0    0  501  502  0.00000000000E+00  0.00000000000E+00  0.35274332084E+03  0.35274332084E+03  0.00000000000E+00 0. -1.
         21   -1    0    0  502  503 -0.00000000000E+00 -0.00000000000E+00 -0.10440190891E+03  0.10440190891E+03  0.00000000000E+00 0. -1.
         -6    2    1    2    0  503 -0.18898988455E+02 -0.10414526204E+02  0.30706190814E+02  0.17488316376E+03  0.17080871374E+03 0.  0.
        -24    2    3    3    0    0  0.43740593258E+02 -0.34882626160E+02  0.46548113893E+02  0.10563389199E+03  0.76562099792E+02 0.  0.
          6    2    1    2  501    0  0.18898988455E+02  0.10414526204E+02  0.21763522112E+03  0.28226206600E+03  0.17844088745E+03 0.  0.
         24    2    5    5    0    0 -0.58101399300E+02  0.19020153102E+02  0.14067932453E+03  0.17295782753E+03  0.79913696751E+02 0.  0.
          5    1    5    5  501    0  0.77000387755E+02 -0.86056268977E+01  0.76955896588E+02  0.10930423847E+03  0.47000000000E+01 0. -1.
        -13    1    6    6    0    0  0.18646401565E+02  0.70475604504E+00  0.46438953013E+02  0.50047590645E+02  0.00000000000E+00 0.  1.
         14    1    6    6    0    0 -0.76747800866E+02  0.18315397057E+02  0.94240371516E+02  0.12291023688E+03  0.00000000000E+00 0. -1.
         -5    1    3    3    0  503 -0.62639581713E+02  0.24468099955E+02 -0.15841923079E+02  0.69249271761E+02  0.47000000000E+01 0.  1.
         13    1    4    4    0    0  0.17038593184E+02 -0.57052204373E+02  0.34948406109E+02  0.69040993410E+02  0.00000000000E+00 0. -1.
        -14    1    4    4    0    0  0.26702000074E+02  0.22169578214E+02  0.11599707784E+02  0.36592898584E+02  0.00000000000E+00 0.  1.
</event>
<event>
12    1  0.1597826E-001  0.1748643E+03  0.7818608E-02  0.1173012E+00
         21   -1    0    0  501  502  0.00000000000E+00  0.00000000000E+00  0.39027078557E+03  0.39027078557E+03  0.00000000000E+00 0.  1.
         21   -1    0    0  502  503 -0.00000000000E+00 -0.00000000000E+00 -0.11810044676E+03  0.11810044676E+03  0.00000000000E+00 0.  1.
         -6    2    1    2    0  503 -0.12794166291E+02 -0.20556461049E+02 -0.12006147617E+02  0.17470404422E+03  0.17260097538E+03 0.  0.
        -24    2    3    3    0    0  0.35674811090E+02  0.17891462551E+02 -0.45232681804E+02  0.10432239056E+03  0.85113859565E+02 0.  0.
          6    2    1    2  501    0  0.12794166291E+02  0.20556461049E+02  0.28417648643E+03  0.33366718812E+03  0.17317984353E+03 0.  0.
         24    2    5    5    0    0 -0.24761147743E+02  0.61824100918E+02  0.24169054842E+03  0.26337803788E+03  0.80736210905E+02 0.  0.
          5    1    5    5  501    0  0.37555314034E+02 -0.41267639869E+02  0.42485938007E+02  0.70289150236E+02  0.47000000000E+01 0. -1.
        -11    1    6    6    0    0  0.51153031217E+01  0.58200493631E+02  0.80876291916E+02  0.99771931820E+02  0.00000000000E+00 0.  1.
         12    1    6    6    0    0 -0.29876450865E+02  0.36236072868E+01  0.16081425650E+03  0.16360610606E+03  0.00000000000E+00 0. -1.
         -5    1    3    3    0  503 -0.48468977381E+02 -0.38447923600E+02  0.33226534188E+02  0.70381653658E+02  0.47000000000E+01 0.  1.
         13    1    4    4    0    0 -0.23398717936E+02 -0.56963477890E+01  0.33079792195E+01  0.24308251802E+02  0.00000000000E+00 0. -1.
        -14    1    4    4    0    0  0.59073529026E+02  0.23587810340E+02 -0.48540661024E+02  0.80014138756E+02  0.00000000000E+00 0.  1.
</event>
<event>
12    1  0.1597826E-001  0.2406310E+03  0.7818608E-02  0.1119421E+00
         21   -1    0    0  503  502  0.00000000000E+00  0.00000000000E+00  0.15079739742E+03  0.15079739742E+03  0.00000000000E+00 0.  1.
         21   -1    0    0  501  503 -0.00000000000E+00 -0.00000000000E+00 -0.45000716193E+03  0.45000716193E+03  0.00000000000E+00 0.  1.
          6    2    1    2  501    0 -0.15267578685E+03  0.70439504592E+02 -0.26499340421E+03  0.35775307252E+03  0.17173857145E+03 0.  0.
         24    2    3    3    0    0 -0.89951599271E+02  0.98280507439E+02 -0.23666542617E+03  0.28336214910E+03  0.80828430934E+02 0.  0.
         -6    2    1    2    0  502  0.15267578685E+03 -0.70439504592E+02 -0.34216360302E+02  0.24305148682E+03  0.17213845079E+03 0.  0.
        -24    2    5    5    0    0  0.29441017601E+02  0.19267796145E+02 -0.17080816990E+02  0.89591638652E+02  0.80603262475E+02 0.  0.
          5    1    3    3  501    0 -0.62724187576E+02 -0.27841002847E+02 -0.28327978042E+02  0.74390923415E+02  0.47000000000E+01 0. -1.
        -11    1    4    4    0    0 -0.50650222202E+02  0.68927945863E+02 -0.72832948951E+02  0.11234387025E+03  0.00000000000E+00 0.  1.
         12    1    4    4    0    0 -0.39301377069E+02  0.29352561576E+02 -0.16383247722E+03  0.17101827885E+03  0.00000000000E+00 0. -1.
         -5    1    5    5    0  502  0.12323476925E+03 -0.89707300737E+02 -0.17135543312E+02  0.15345984817E+03  0.47000000000E+01 0.  1.
         13    1    6    6    0    0  0.85900062431E+01  0.43920611367E+02  0.11788400121E+02  0.46279311658E+02  0.00000000000E+00 0. -1.
        -14    1    6    6    0    0  0.20851011358E+02 -0.24652815222E+02 -0.28869217111E+02  0.43312326994E+02  0.00000000000E+00 0.  1.
</event>
<event>
12    1  0.1597826E-001  0.2949035E+03  0.7818608E-02  0.1088008E+00
         21   -1    0    0  503  502  0.00000000000E+00  0.00000000000E+00  0.33384017782E+03  0.33384017782E+03  0.00000000000E+00 0.  1.
         21   -1    0    0  501  503 -0.00000000000E+00 -0.00000000000E+00 -0.52677352612E+03  0.52677352612E+03  0.00000000000E+00 0. -1.
          6    2    1    2  501    0 -0.21936303231E+03  0.92588950922E+02 -0.40303467030E+03  0.49852165168E+03  0.17144689544E+03 0.  0.
         24    2    3    3    0    0 -0.92367475635E+02  0.11056186583E+03 -0.22476599083E+03  0.27885665865E+03  0.80533277011E+02 0.  0.
         -6    2    1    2    0  502  0.21936303231E+03 -0.92588950922E+02  0.21010132200E+03  0.36209205226E+03  0.17399780180E+03 0.  0.
        -24    2    5    5    0    0  0.14437943537E+03  0.12851787745E+02  0.11144615470E+03  0.19931852489E+03  0.79353885594E+02 0.  0.
          5    1    3    3  501    0 -0.12699555667E+03 -0.17972914909E+02 -0.17826867946E+03  0.21966499303E+03  0.47000000000E+01 0. -1.
        -13    1    4    4    0    0 -0.12742160485E+02  0.72864331698E+02 -0.12921992685E+03  0.14889379767E+03  0.00000000000E+00 0.  1.
         14    1    4    4    0    0 -0.79625315150E+02  0.37697534134E+02 -0.95546063977E+02  0.12996286098E+03  0.00000000000E+00 0. -1.
         -5    1    5    5    0  502  0.74983596937E+02 -0.10544073867E+03  0.98655167295E+02  0.16277352738E+03  0.47000000000E+01 0.  1.
         13    1    6    6    0    0  0.47478705547E+02  0.13391734035E+01 -0.45738399322E+01  0.47717301659E+02  0.00000000000E+00 0. -1.
        -14    1    6    6    0    0  0.96900729823E+02  0.11512614341E+02  0.11601999463E+03  0.15160122323E+03  0.00000000000E+00 0.  1.
</event>
<event>
12    1  0.1597826E-001  0.2285844E+03  0.7818608E-02  0.1127736E+00
         21   -1    0    0  503  502  0.00000000000E+00  0.00000000000E+00  0.29027287225E+02  0.29027287225E+02  0.00000000000E+00 0.  1.
         21   -1    0    0  501  503 -0.00000000000E+00 -0.00000000000E+00 -0.20183241164E+04  0.20183241164E+04  0.00000000000E+00 0. -1.
          6    2    1    2  501    0  0.11447244122E+03 -0.96649440354E+02 -0.65579162290E+03  0.69448791731E+03  0.17264344906E+03 0.  0.
         24    2    3    3    0    0  0.36913896933E+02 -0.66119311789E+02 -0.17805626955E+03  0.20951309901E+03  0.80357354071E+02 0.  0.
         -6    2    1    2    0  502 -0.11447244122E+03  0.96649440354E+02 -0.13335052062E+04  0.13528634863E+04  0.17192563312E+03 0.  0.
        -24    2    5    5    0    0 -0.62980244636E+02  0.12489389909E+03 -0.75698528023E+03  0.77334082853E+03  0.73921075121E+02 0.  0.
          5    1    3    3  501    0  0.77558544286E+02 -0.30530128566E+02 -0.47773535335E+03  0.48497481830E+03  0.47000000000E+01 0. -1.
        -11    1    4    4    0    0  0.46170343974E+02 -0.55986869031E+01 -0.10019952120E+03  0.11046714446E+03  0.00000000000E+00 0.  1.
         12    1    4    4    0    0 -0.92564470408E+01 -0.60520624886E+02 -0.77856748353E+02  0.99045954549E+02  0.00000000000E+00 0. -1.
         -5    1    5    5    0  502 -0.51492196582E+02 -0.28244458731E+02 -0.57651992600E+03  0.57952265774E+03  0.47000000000E+01 0.  1.
         13    1    6    6    0    0 -0.65265788627E+02  0.61959428412E+02 -0.34375766272E+03  0.35534198262E+03  0.00000000000E+00 0. -1.
        -14    1    6    6    0    0  0.22855439905E+01  0.62934470674E+02 -0.41322761751E+03  0.41799884591E+03  0.00000000000E+00 0.  1.
</event>
<event>
12    1  0.1597826E-001  0.2134354E+03  0.7818608E-02  0.1139033E+00
         21   -1    0    0  503  502  0.00000000000E+00  0.00000000000E+00  0.28014074053E+03  0.28014074053E+03  0.00000000000E+00 0.  1.
         21   -1    0    0  501  503 -0.00000000000E+00 -0.00000000000E+00 -0.16890914312E+03  0.16890914312E+03  0.00000000000E+00 0. -1.
          6    2    1    2  501    0 -0.12578413250E+03 -0.26185962222E+01  0.10281505810E+02  0.21368285426E+03  0.17241272519E+03 0.  0.
         24    2    3    3    0    0  0.22315763195E+01 -0.24830903417E+02  0.15516902424E+02  0.83564032892E+02  0.78234389081E+02 0.  0.
         -6    2    1    2    0  502  0.12578413250E+03  0.26185962222E+01  0.10095009159E+03  0.23536702939E+03  0.17140073657E+03 0.  0.
        -24    2    5    5    0    0  0.19850085722E+02 -0.46022960734E+02  0.35205292591E+02  0.10145477482E+03  0.80879663011E+02 0.  0.
          5    1    3    3  501    0 -0.12801570882E+03  0.22212307195E+02 -0.52353966148E+01  0.13011882137E+03  0.47000000000E+01 0. -1.
        -11    1    4    4    0    0 -0.83152617549E+01 -0.24759662961E+02 -0.28291162579E+02  0.38504212342E+02  0.00000000000E+00 0.  1.
         12    1    4    4    0    0  0.10546838074E+02 -0.71240455571E-01  0.43808065004E+02  0.45059820549E+02  0.00000000000E+00 0. -1.
         -5    1    5    5    0  502  0.10593404678E+03  0.48641556956E+02  0.65744799002E+02  0.13391225458E+03  0.47000000000E+01 0.  1.
         13    1    6    6    0    0  0.36239562279E+02 -0.44463221728E+02  0.52369357336E+02  0.77671317411E+02  0.00000000000E+00 0. -1.
        -14    1    6    6    0    0 -0.16389476557E+02 -0.15597390062E+01 -0.17164064745E+02  0.23783457405E+02  0.00000000000E+00 0.  1.
</event>
<event>
12    1  0.1597826E-001  0.2287175E+03  0.7818608E-02  0.1128611E+00
         21   -1    0    0  501  502  0.00000000000E+00  0.00000000000E+00  0.22790683540E+03  0.22790683540E+03  0.00000000000E+00 0.  1.
         21   -1    0    0  502  503 -0.00000000000E+00 -0.00000000000E+00 -0.43700084034E+03  0.43700084034E+03  0.00000000000E+00 0.  1.
         -6    2    1    2    0  503 -0.14837263725E+03 -0.13703743067E+00 -0.33614440003E+03  0.40327148909E+03  0.16619379643E+03 0.  0.
        -24    2    3    3    0    0 -0.16107745311E+03 -0.35135826793E+02 -0.29497779499E+03  0.34756595100E+03  0.81300175461E+02 0.  0.
          6    2    1    2  501    0  0.14837263725E+03  0.13703743067E+00  0.12705039510E+03  0.26163618665E+03  0.17406100369E+03 0.  0.
         24    2    5    5    0    0  0.15215995447E+03 -0.29668769296E+02  0.14479633142E+03  0.22642627125E+03  0.79183275426E+02 0.  0.
          5    1    5    5  501    0 -0.37873172116E+01  0.29805806727E+02 -0.17745936318E+02  0.35209915395E+02  0.47000000000E+01 0. -1.
        -13    1    6    6    0    0  0.73466913313E+02 -0.51856991170E+02  0.94424980339E+02  0.13039406350E+03  0.00000000000E+00 0.  1.
         14    1    6    6    0    0  0.78693041153E+02  0.22188221874E+02  0.50371351078E+02  0.96032207750E+02  0.00000000000E+00 0. -1.
         -5    1    3    3    0  503  0.12704815859E+02  0.34998789362E+02 -0.41166605044E+02  0.55705538088E+02  0.47000000000E+01 0.  1.
         11    1    4    4    0    0  0.75583320386E+01  0.43015152072E+01 -0.56658807083E+01  0.10379480743E+02  0.00000000000E+00 0. -1.
        -12    1    4    4    0    0 -0.16863578515E+03 -0.39437342000E+02 -0.28931191428E+03  0.33718647026E+03  0.00000000000E+00 0.  1.
</event>
<event>
12    1  0.1597826E-001  0.1726288E+03  0.7818608E-02  0.1175197E+00
         21   -1    0    0  503  502  0.00000000000E+00  0.00000000000E+00  0.25961968074E+03  0.25961968074E+03  0.00000000000E+00 0. -1.
         21   -1    0    0  501  503 -0.00000000000E+00 -0.00000000000E+00 -0.11950538972E+03  0.11950538972E+03  0.00000000000E+00 0. -1.
          6    2    1    2  501    0  0.42984511586E+01  0.17375539500E+02  0.31786821359E+02  0.17553097089E+03  0.17169837994E+03 0.  0.
         24    2    3    3    0    0  0.31120630394E+02 -0.14641682101E+02 -0.36865405648E+02  0.95034076220E+02  0.80557712347E+02 0.  0.
         -6    2    1    2    0  502 -0.42984511586E+01 -0.17375539500E+02  0.10832746966E+03  0.20359409957E+03  0.17145066533E+03 0.  0.
        -24    2    5    5    0    0  0.37929374075E+02  0.41186353427E+02  0.79872198581E+02  0.12584786507E+03  0.79518324364E+02 0.  0.
          5    1    3    3  501    0 -0.26822179235E+02  0.32017221601E+02  0.68652227007E+02  0.80496894667E+02  0.47000000000E+01 0. -1.
        -11    1    4    4    0    0  0.10216854309E+02  0.12738095681E+02  0.21658742362E+02  0.27124607172E+02  0.00000000000E+00 0.  1.
         12    1    4    4    0    0  0.20903776085E+02 -0.27379777782E+02 -0.58524148011E+02  0.67909469048E+02  0.00000000000E+00 0. -1.
         -5    1    5    5    0  502 -0.42227825233E+02 -0.58561892926E+02  0.28455271078E+02  0.77746234502E+02  0.47000000000E+01 0.  1.
         11    1    6    6    0    0 -0.17950390575E+02  0.21717690715E+02  0.54724155333E+02  0.61551667635E+02  0.00000000000E+00 0. -1.
        -12    1    6    6    0    0  0.55879764649E+02  0.19468662712E+02  0.25148043249E+02  0.64296197433E+02  0.00000000000E+00 0.  1.
</event>
<event>
12    1  0.1597826E-001  0.2178191E+03  0.7818608E-02  0.1135755E+00
         21   -1    0    0  503  502  0.00000000000E+00  0.00000000000E+00  0.33075371328E+03  0.33075371328E+03  0.00000000000E+00 0. -1.
         21   -1    0    0  501  503 -0.00000000000E+00 -0.00000000000E+00 -0.53807469356E+03  0.53807469356E+03  0.00000000000E+00 0.  1.
          6    2    1    2  501    0 -0.25234281488E+02  0.13055626688E+03 -0.47615312929E+03  0.52360956682E+03  0.17252092091E+03 0.  0.
         24    2    3    3    0    0 -0.71699634982E+02  0.41949610689E+02 -0.25195722005E+03  0.27805699747E+03  0.83262510242E+02 0.  0.
         -6    2    1    2    0  502  0.25234281488E+02 -0.13055626688E+03  0.26883214901E+03  0.34521884002E+03  0.17094916022E+03 0.  0.
        -24    2    5    5    0    0  0.63659586320E+02 -0.25738247069E+02  0.12471979901E+03  0.16286264805E+03  0.79083585982E+02 0.  0.
          5    1    3    3  501    0  0.46465353493E+02  0.88606656193E+02 -0.22419590924E+03  0.24555256936E+03  0.47000000000E+01 0. -1.
        -11    1    4    4    0    0 -0.12504840123E+02  0.12104306964E+02 -0.17755269961E+03  0.17840360538E+03  0.00000000000E+00 0.  1.
         12    1    4    4    0    0 -0.59194794859E+02  0.29845303725E+02 -0.74404520442E+02  0.99653392090E+02  0.00000000000E+00 0. -1.
         -5    1    5    5    0  502 -0.38425304832E+02 -0.10481801981E+03  0.14411235000E+03  0.18235619197E+03  0.47000000000E+01 0.  1.
         13    1    6    6    0    0  0.73122278473E+02 -0.32428750273E+02  0.12789217065E+03  0.15084726967E+03  0.00000000000E+00 0. -1.
        -14    1    6    6    0    0 -0.94626921527E+01  0.66905032040E+01 -0.31723716352E+01  0.12015378383E+02  0.00000000000E+00 0.  1.
</event>
<event>
12    1  0.1597826E-001  0.2561698E+03  0.7818608E-02  0.1109644E+00
         21   -1    0    0  501  502  0.00000000000E+00  0.00000000000E+00  0.13759432557E+03  0.13759432557E+03  0.00000000000E+00 0. -1.
         21   -1    0    0  502  503 -0.00000000000E+00 -0.00000000000E+00 -0.47860518281E+03  0.47860518281E+03  0.00000000000E+00 0.  1.
         -6    2    1    2    0  503 -0.22828040557E+02 -0.18667525648E+03 -0.14257263678E+03  0.29216143121E+03  0.17222826223E+03 0.  0.
        -24    2    3    3    0    0  0.53524498249E+02 -0.10785042567E+03 -0.94455607074E+02  0.17224311450E+03  0.79052150866E+02 0.  0.
          6    2    1    2  501    0  0.22828040557E+02  0.18667525648E+03 -0.19843822047E+03  0.32403807717E+03  0.17393727978E+03 0.  0.
         24    2    5    5    0    0  0.36889779450E+02  0.23174983785E+02 -0.61590160626E+02  0.11031032241E+03  0.80480330785E+02 0.  0.
          5    1    5    5  501    0 -0.14061738892E+02  0.16350027269E+03 -0.13684805984E+03  0.21372775476E+03  0.47000000000E+01 0. -1.
        -13    1    6    6    0    0 -0.11630156445E+02  0.37263200320E+02 -0.15761275505E+02  0.42097796173E+02  0.00000000000E+00 0.  1.
         14    1    6    6    0    0  0.48519935895E+02 -0.14088216535E+02 -0.45828885121E+02  0.68212526238E+02  0.00000000000E+00 0. -1.
         -5    1    3    3    0  503 -0.76352538806E+02 -0.78824830809E+02 -0.48117029704E+02  0.11991831671E+03  0.47000000000E+01 0.  1.
         13    1    4    4    0    0  0.30865675858E+02 -0.70643839911E+01  0.87487698555E+00  0.31675872160E+02  0.00000000000E+00 0. -1.
        -14    1    4    4    0    0  0.22658822391E+02 -0.10078604168E+03 -0.95330484059E+02  0.14056724234E+03  0.00000000000E+00 0.  1.
</event>
<event>
12    1  0.1597826E-001  0.1936108E+03  0.7818608E-02  0.1155438E+00
         21   -1    0    0  501  502  0.00000000000E+00  0.00000000000E+00  0.15193862520E+03  0.15193862520E+03  0.00000000000E+00 0.  1.
         21   -1    0    0  502  503 -0.00000000000E+00 -0.00000000000E+00 -0.30330228663E+03  0.30330228663E+03  0.00000000000E+00 0. -1.
         -6    2    1    2    0  503 -0.67035415438E+02  0.57759769610E+02 -0.17482756582E+03  0.26021344874E+03  0.17122039372E+03 0.  0.
        -24    2    3    3    0    0 -0.60713429398E+02  0.32049726917E+02 -0.19953645106E+03  0.22369505868E+03  0.74238658890E+02 0.  0.
          6    2    1    2  501    0  0.67035415438E+02 -0.57759769610E+02  0.23463904383E+02  0.19502746309E+03  0.17220690649E+03 0.  0.
         24    2    5    5    0    0  0.78409766614E+02  0.20059284635E+02  0.28175430049E+02  0.11610047441E+03  0.78326233790E+02 0.  0.
          5    1    5    5  501    0 -0.11374351177E+02 -0.77819054245E+02 -0.47115256659E+01  0.78926988682E+02  0.47000000000E+01 0. -1.
        -11    1    6    6    0    0  0.86608065077E+02  0.81394509811E+01  0.41545476067E+02  0.96401422086E+02  0.00000000000E+00 0.  1.
         12    1    6    6    0    0 -0.81982984628E+01  0.11919833654E+02 -0.13370046018E+02  0.19699052326E+02  0.00000000000E+00 0. -1.
         -5    1    3    3    0  503 -0.63219860396E+01  0.25710042694E+02  0.24708885235E+02  0.36518390057E+02  0.47000000000E+01 0.  1.
         11    1    4    4    0    0 -0.11729118604E+02  0.20400784489E+02 -0.68066600262E+01  0.24496833504E+02  0.00000000000E+00 0. -1.
        -12    1    4    4    0    0 -0.48984310794E+02  0.11648942428E+02 -0.19272979103E+03  0.19919822518E+03  0.00000000000E+00 0.  1.
</event>
<event>
12    1  0.1597826E-001  0.1773229E+03  0.7818608E-02  0.1170638E+00
         21   -1    0    0  501  502  0.00000000000E+00  0.00000000000E+00  0.74106738516E+02  0.74106738516E+02  0.00000000000E+00 0. -1.
         21   -1    0    0  502  503 -0.00000000000E+00 -0.00000000000E+00 -0.49862477355E+03  0.49862477355E+03  0.00000000000E+00 0. -1.
         -6    2    1    2    0  503  0.38163852544E+02  0.57976086616E+01 -0.32482959743E+03  0.37007792383E+03  0.17307024711E+03 0.  0.
        -24    2    3    3    0    0  0.87394112170E+02 -0.21952832104E+02 -0.21348464487E+03  0.24512395676E+03  0.79939995654E+02 0.  0.
          6    2    1    2  501    0 -0.38163852544E+02 -0.57976086616E+01 -0.99688437605E+02  0.20265358823E+03  0.17216445721E+03 0.  0.
         24    2    5    5    0    0 -0.33329485592E+02 -0.38852527282E+02  0.45048523473E+01  0.93134957765E+02  0.77675306096E+02 0.  0.
          5    1    5    5  501    0 -0.48343669518E+01  0.33054918621E+02 -0.10419328995E+03  0.10951863047E+03  0.47000000000E+01 0. -1.
        -11    1    6    6    0    0  0.19523570094E+02 -0.26055906032E+02 -0.14347167708E+02  0.35579787094E+02  0.00000000000E+00 0.  1.
         12    1    6    6    0    0 -0.52853055686E+02 -0.12796621250E+02  0.18852020055E+02  0.57555170671E+02  0.00000000000E+00 0. -1.
         -5    1    3    3    0  503 -0.49230259626E+02  0.27750440765E+02 -0.11134495256E+03  0.12495396707E+03  0.47000000000E+01 0.  1.
         11    1    4    4    0    0  0.50311077759E+02  0.71451302527E+01 -0.38092328157E+02  0.63508132519E+02  0.00000000000E+00 0. -1.
        -12    1    4    4    0    0  0.37083034411E+02 -0.29097962357E+02 -0.17539231671E+03  0.18161582425E+03  0.00000000000E+00 0.  1.
</event>
<event>
12    1  0.1597826E-001  0.1966132E+03  0.7818608E-02  0.1152955E+00
         21   -1    0    0  501  502  0.00000000000E+00  0.00000000000E+00  0.61157187550E+03  0.61157187550E+03  0.00000000000E+00 0.  1.
         21   -1    0    0  502  503 -0.00000000000E+00 -0.00000000000E+00 -0.16518869949E+03  0.16518869949E+03  0.00000000000E+00 0. -1.
         -6    2    1    2    0  503  0.71434956506E+02  0.56047535070E+02 -0.82361548897E+02  0.21316703194E+03  0.17439174169E+03 0.  0.
        -24    2    3    3    0    0  0.56994361960E+02  0.37351514279E+02  0.20618127859E+02  0.10740798604E+03  0.80423102123E+02 0.  0.
          6    2    1    2  501    0 -0.71434956506E+02 -0.56047535070E+02  0.52874472491E+03  0.56359354306E+03  0.17269168614E+03 0.  0.
         24    2    5    5    0    0 -0.66098299373E+02  0.30024337153E+02  0.32318471236E+03  0.34062750113E+03  0.79424745629E+02 0.  0.
          5    1    5    5  501    0 -0.53366571331E+01 -0.86071872223E+02  0.20556001254E+03  0.22296604193E+03  0.47000000000E+01 0. -1.
        -13    1    6    6    0    0 -0.81403438597E+02  0.95023424768E+01  0.25049983312E+03  0.26356589445E+03  0.00000000000E+00 0.  1.
         14    1    6    6    0    0  0.15305139224E+02  0.20521994676E+02  0.72684879247E+02  0.77061606675E+02  0.00000000000E+00 0. -1.
         -5    1    3    3    0  503  0.14440594546E+02  0.18696020791E+02 -0.10297967676E+03  0.10575904590E+03  0.47000000000E+01 0.  1.
         13    1    4    4    0    0  0.30545945859E+02  0.59624941258E+02  0.27028915117E+02  0.72240921097E+02  0.00000000000E+00 0. -1.
        -14    1    4    4    0    0  0.26448416101E+02 -0.22273426979E+02 -0.64107872587E+01  0.35167064946E+02  0.00000000000E+00 0.  1.
</event>
<event>
12    1  0.1597826E-001  0.2242194E+03  0.7818608E-02  0.1131314E+00
         21   -1    0    0  501  502  0.00000000000E+00  0.00000000000E+00  0.44049612291E+03  0.44049612291E+03  0.00000000000E+00 0. -1.
         21   -1    0    0  502  503 -0.00000000000E+00 -0.00000000000E+00 -0.21138674669E+03  0.21138674669E+03  0.00000000000E+00 0.  1.
         -6    2    1    2    0  503  0.13726195530E+03 -0.22842503322E+02 -0.10861929304E+03  0.24650035014E+03  0.17205129314E+03 0.  0.
        -24    2    3    3    0    0  0.96697939997E+02  0.56004502351E+02 -0.70889486911E+02  0.15002279881E+03  0.70671952889E+02 0.  0.
          6    2    1    2  501    0 -0.13726195530E+03  0.22842503322E+02  0.33772866926E+03  0.40538251945E+03  0.17581725940E+03 0.  0.
         24    2    5    5    0    0 -0.29619030765E+02 -0.22508409037E+02  0.65414777525E+02  0.10903702836E+03  0.78905417907E+02 0.  0.
          5    1    5    5  501    0 -0.10764292453E+03  0.45350912359E+02  0.27231389174E+03  0.29634549108E+03  0.47000000000E+01 0. -1.
        -13    1    6    6    0    0 -0.50258168505E+02  0.41525056218E+01  0.52866338888E+02  0.73061457635E+02  0.00000000000E+00 0.  1.
         14    1    6    6    0    0  0.20639137739E+02 -0.26660914659E+02  0.12548438637E+02  0.35975570730E+02  0.00000000000E+00 0. -1.
         -5    1    3    3    0  503  0.40564015302E+02 -0.78847005673E+02 -0.37729806126E+02  0.96477551334E+02  0.47000000000E+01 0.  1.
         11    1    4    4    0    0  0.32043339760E+02  0.51116396794E+02 -0.58451608940E+02  0.84001501366E+02  0.00000000000E+00 0. -1.
        -12    1    4    4    0    0  0.64654600237E+02  0.48881055577E+01 -0.12437877971E+02  0.66021297444E+02  0.00000000000E+00 0.  1.
</event>
<event>
12    1  0.1597826E-001  0.2326817E+03  0.7818608E-02  0.1125498E+00
         21   -1    0    0  503  502  0.00000000000E+00  0.00000000000E+00  0.45849257574E+03  0.45849257574E+03  0.00000000000E+00 0. -1.
         21   -1    0    0  501  503 -0.00000000000E+00 -0.00000000000E+00 -0.20290369212E+03  0.20290369212E+03  0.00000000000E+00 0. -1.
          6    2    1    2  501    0 -0.14697700005E+03 -0.54400921094E+02 -0.87996112297E+02  0.24876514929E+03  0.17198571151E+03 0.  0.
         24    2    3    3    0    0 -0.25771585271E+02 -0.56814415171E+02 -0.35809474644E+01  0.10096600322E+03  0.79304843754E+02 0.  0.
         -6    2    1    2    0  502  0.14697700005E+03  0.54400921094E+02  0.34358499592E+03  0.41263111857E+03  0.16628918134E+03 0.  0.
        -24    2    5    5    0    0  0.15321079307E+03  0.85770320001E+02  0.26999516961E+03  0.33225418220E+03  0.81641625870E+02 0.  0.
          5    1    3    3  501    0 -0.12120541478E+03  0.24134940772E+01 -0.84415164832E+02  0.14779914607E+03  0.47000000000E+01 0. -1.
        -11    1    4    4    0    0  0.75875082623E+01  0.17189884749E+02 -0.60884821132E+01  0.19751760270E+02  0.00000000000E+00 0.  1.
         12    1    4    4    0    0 -0.33359093533E+02 -0.74004299920E+02  0.25075346488E+01  0.81214242950E+02  0.00000000000E+00 0. -1.
         -5    1    5    5    0  502 -0.62337930178E+01 -0.31369398907E+02  0.73589826309E+02  0.80376936365E+02  0.47000000000E+01 0.  1.
         13    1    6    6    0    0  0.15520873465E+03  0.63658531643E+02  0.21328824142E+03  0.27135591737E+03  0.00000000000E+00 0. -1.
        -14    1    6    6    0    0 -0.19979415887E+01  0.22111788358E+02  0.56706928191E+02  0.60898264835E+02  0.00000000000E+00 0.  1.
</event>
<event>
12    1  0.1597826E-001  0.1975209E+03  0.7818608E-02  0.1152219E+00
         21   -1    0    0  501  502  0.00000000000E+00  0.00000000000E+00  0.11267437101E+03  0.11267437101E+03  0.00000000000E+00 0. -1.
         21   -1    0    0  502  503 -0.00000000000E+00 -0.00000000000E+00 -0.40767807570E+03  0.40767807570E+03  0.00000000000E+00 0. -1.
         -6    2    1    2    0  503  0.92544624025E+02  0.17452528962E+02 -0.25148200955E+03  0.31977756393E+03  0.17362428131E+03 0.  0.
        -24    2    3    3    0    0 -0.86515660522E+01  0.39043641483E+02 -0.77542618984E+02  0.11733288848E+03  0.78453128837E+02 0.  0.
          6    2    1    2  501    0 -0.92544624025E+02 -0.17452528962E+02 -0.43521695133E+02  0.20057488278E+03  0.17165968500E+03 0.  0.
         24    2    5    5    0    0  0.13889997947E+01  0.14140020447E+02  0.18807797248E+02  0.83405473454E+02  0.80005438978E+02 0.  0.
          5    1    5    5  501    0 -0.93933623820E+02 -0.31592549409E+02 -0.62329492381E+02  0.11716940933E+03  0.47000000000E+01 0. -1.
        -11    1    6    6    0    0  0.17544372368E+02 -0.23558802864E+02  0.28857715799E+02  0.41177541881E+02  0.00000000000E+00 0.  1.
         12    1    6    6    0    0 -0.16155372573E+02  0.37698823312E+02 -0.10049918551E+02  0.42227931573E+02  0.00000000000E+00 0. -1.
         -5    1    3    3    0  503  0.10119619008E+03 -0.21591112521E+02 -0.17393939057E+03  0.20244467545E+03  0.47000000000E+01 0.  1.
         11    1    4    4    0    0 -0.46222131639E+01  0.63217164262E+02 -0.52639607741E+02  0.82393586007E+02  0.00000000000E+00 0. -1.
        -12    1    4    4    0    0 -0.40293528882E+01 -0.24173522779E+02 -0.24903011242E+02  0.34939302471E+02  0.00000000000E+00 0.  1.
</event>
<event>
12    1  0.1597826E-001  0.1960190E+03  0.7818608E-02  0.1155317E+00
         21   -1    0    0  501  502  0.00000000000E+00  0.00000000000E+00  0.69163064073E+03  0.69163064073E+03  0.00000000000E+00 0. -1.
         21   -1    0    0  502  503 -0.00000000000E+00 -0.00000000000E+00 -0.33800709687E+03  0.33800709687E+03  0.00000000000E+00 0. -1.
         -6    2    1    2    0  503  0.64127828416E+02  0.63112672208E+02 -0.29675711695E+03  0.35035983699E+03  0.16306943657E+03 0.  0.
        -24    2    3    3    0    0  0.10416566130E+03  0.29968549220E+02 -0.21637082829E+03  0.25451826795E+03  0.78832825967E+02 0.  0.
          6    2    1    2  501    0 -0.64127828416E+02 -0.63112672208E+02  0.65038066081E+03  0.67927790061E+03  0.17414900096E+03 0.  0.
         24    2    5    5    0    0 -0.84781464399E+00  0.28001729136E+02  0.30639590362E+03  0.31781725621E+03  0.79652639404E+02 0.  0.
          5    1    5    5  501    0 -0.63280013773E+02 -0.91114401344E+02  0.34398475719E+03  0.36146064440E+03  0.47000000000E+01 0. -1.
        -13    1    6    6    0    0 -0.34168222455E+02  0.30949812518E+02  0.22748121251E+03  0.23210570946E+03  0.00000000000E+00 0.  1.
         14    1    6    6    0    0  0.33320407811E+02 -0.29480833818E+01  0.78914691111E+02  0.85711546745E+02  0.00000000000E+00 0. -1.
         -5    1    3    3    0  503 -0.40037832884E+02  0.33144122988E+02 -0.80386288660E+02  0.95841569035E+02  0.47000000000E+01 0.  1.
         13    1    4    4    0    0  0.24025291046E+02  0.31726206921E+02 -0.13315189233E+03  0.13897191532E+03  0.00000000000E+00 0. -1.
        -14    1    4    4    0    0  0.80140370255E+02 -0.17576577004E+01 -0.83218935958E+02  0.11554635263E+03  0.00000000000E+00 0.  1.
</event>
<event>
12    1  0.1597826E-001  0.2357888E+03  0.7818608E-02  0.1122682E+00
         21   -1    0    0  503  502  0.00000000000E+00  0.00000000000E+00  0.12875699220E+03  0.12875699220E+03  0.00000000000E+00 0. -1.
         21   -1    0    0  501  503 -0.00000000000E+00 -0.00000000000E+00 -0.43370846842E+03  0.43370846842E+03  0.00000000000E+00 0. -1.
          6    2    1    2  501    0  0.16063615643E+03 -0.59796883803E+00 -0.17381092996E+03  0.29292760751E+03  0.17260362554E+03 0.  0.
         24    2    3    3    0    0  0.16597121327E+03 -0.37934719886E+02 -0.17320882702E+03  0.25491513143E+03  0.77426997003E+02 0.  0.
         -6    2    1    2    0  502 -0.16063615643E+03  0.59796883803E+00 -0.13114054627E+03  0.26953785310E+03  0.17218733711E+03 0.  0.
        -24    2    5    5    0    0 -0.16307013016E+03  0.11473647187E+01 -0.15893417867E+03  0.24123940675E+03  0.79644173825E+02 0.  0.
          5    1    3    3  501    0 -0.53350568411E+01  0.37336751048E+02 -0.60210293772E+00  0.38012476087E+02  0.47000000000E+01 0. -1.
        -11    1    4    4    0    0  0.53819333959E+02 -0.49062698808E+02 -0.52539658416E+02  0.89800249602E+02  0.00000000000E+00 0.  1.
         12    1    4    4    0    0  0.11215187931E+03  0.11127978923E+02 -0.12066916860E+03  0.16511488182E+03  0.00000000000E+00 0. -1.
         -5    1    5    5    0  502  0.24339737319E+01 -0.54939588067E+00  0.27793632401E+02  0.28298446353E+02  0.47000000000E+01 0.  1.
         11    1    6    6    0    0 -0.75801445652E+02 -0.38928651347E+02 -0.80924096279E+02  0.11751599218E+03  0.00000000000E+00 0. -1.
        -12    1    6    6    0    0 -0.87268684510E+02  0.40076016066E+02 -0.78010082387E+02  0.12372341457E+03  0.00000000000E+00 0.  1.
</event>
<event>
12    1  0.1597826E-001  0.2090361E+03  0.7818608E-02  0.1142661E+00
         21   -1    0    0  503  502  0.00000000000E+00  0.00000000000E+00  0.29551049210E+03  0.29551049210E+03  0.00000000000E+00 0. -1.
         21   -1    0    0  501  503 -0.00000000000E+00 -0.00000000000E+00 -0.19941884780E+03  0.19941884780E+03  0.00000000000E+00 0.  1.
          6    2    1    2  501    0  0.11833187813E+03 -0.67145398528E+01 -0.79325876803E+02  0.22204220067E+03  0.17018409362E+03 0.  0.
         24    2    3    3    0    0  0.84367198994E+02  0.33477114980E+02 -0.10784769250E+03  0.16200427501E+03  0.79848098595E+02 0.  0.
         -6    2    1    2    0  502 -0.11833187813E+03  0.67145398528E+01  0.17541752110E+03  0.27288713922E+03  0.17218758845E+03 0.  0.
        -24    2    5    5    0    0 -0.10690615235E+02  0.47463090901E+02  0.87863079745E+02  0.12819796862E+03  0.79672856878E+02 0.  0.
          5    1    3    3  501    0  0.33964679137E+02 -0.40191654833E+02  0.28521815701E+02  0.60037925664E+02  0.47000000000E+01 0. -1.
        -13    1    4    4    0    0  0.99495283519E+02  0.26061935250E+02 -0.99876120621E+02  0.14336587942E+03  0.00000000000E+00 0.  1.
         14    1    4    4    0    0 -0.15128084525E+02  0.74151797302E+01 -0.79715718831E+01  0.18638395589E+02  0.00000000000E+00 0. -1.
         -5    1    5    5    0  502 -0.10764126290E+03 -0.40748551048E+02  0.87554441354E+02  0.14468917061E+03  0.47000000000E+01 0.  1.
         11    1    6    6    0    0 -0.37462752051E+02  0.52706453025E+02  0.51094593104E+02  0.82414109387E+02  0.00000000000E+00 0. -1.
        -12    1    6    6    0    0  0.26772136816E+02 -0.52433621236E+01  0.36768486641E+02  0.45783859229E+02  0.00000000000E+00 0.  1.
</event>
<event>
12    1  0.1597826E-001  0.1774508E+03  0.7818608E-02  0.1170514E+00
         21   -1    0    0  501  502  0.00000000000E+00  0.00000000000E+00  0.80654753377E+02  0.80654753377E+02  0.00000000000E+00 0.  1.
         21   -1    0    0  502  503 -0.00000000000E+00 -0.00000000000E+00 -0.56183948980E+03  0.56183948980E+03  0.00000000000E+00 0.  1.
         -6    2    1    2    0  503  0.41820612669E+02  0.10130456961E+02 -0.41946940593E+03  0.45545952680E+03  0.17215460563E+03 0.  0.
        -24    2    3    3    0    0  0.54778601456E+01 -0.58480807239E+02 -0.25948336462E+03  0.27756651219E+03  0.79129895758E+02 0.  0.
          6    2    1    2  501    0 -0.41820612669E+02 -0.10130456961E+02 -0.61715330488E+02  0.18703471637E+03  0.17123554920E+03 0.  0.
         24    2    5    5    0    0 -0.27548242790E+02  0.59075105975E+02 -0.29656170436E+02  0.10929804403E+03  0.82569971282E+02 0.  0.
          5    1    5    5  501    0 -0.14272369879E+02 -0.69205562936E+02 -0.32059160052E+02  0.77736672340E+02  0.47000000000E+01 0. -1.
        -11    1    6    6    0    0 -0.50731918995E+02  0.63370497830E+02 -0.27107310168E+02  0.85582438997E+02  0.00000000000E+00 0.  1.
         12    1    6    6    0    0  0.23183676204E+02 -0.42953918544E+01 -0.25488602674E+01  0.23715605035E+02  0.00000000000E+00 0. -1.
         -5    1    3    3    0  503  0.36342752524E+02  0.68611264200E+02 -0.15998604131E+03  0.17789301462E+03  0.47000000000E+01 0.  1.
         13    1    4    4    0    0  0.38414685337E+02 -0.52384690265E+02 -0.16548735007E+03  0.17778050190E+03  0.00000000000E+00 0. -1.
        -14    1    4    4    0    0 -0.32936825192E+02 -0.60961169740E+01 -0.93996014556E+02  0.99786010284E+02  0.00000000000E+00 0.  1.
</event>
<event>
12    1  0.1597826E-001  0.1874771E+03  0.7818608E-02  0.1160810E+00
         21   -1    0    0  501  502  0.00000000000E+00  0.00000000000E+00  0.20500259686E+03  0.20500259686E+03  0.00000000000E+00 0. -1.
         21   -1    0    0  502  503 -0.00000000000E+00 -0.00000000000E+00 -0.24586986831E+03  0.24586986831E+03  0.00000000000E+00 0. -1.
         -6    2    1    2    0  503  0.72292711823E+02 -0.86692113371E+01  0.10376104531E+03  0.21427552357E+03  0.17276068439E+03 0.  0.
        -24    2    3    3    0    0  0.40920270489E+02  0.42948264909E+02  0.93869239257E+02  0.15288715532E+03  0.10509056184E+03 0.  0.
          6    2    1    2  501    0 -0.72292711823E+02  0.86692113371E+01 -0.14462831676E+03  0.23659694159E+03  0.17250904717E+03 0.  0.
         24    2    5    5    0    0 -0.66704689233E+02  0.60177694964E+02 -0.13954900589E+03  0.18432611530E+03  0.80195518589E+02 0.  0.
          5    1    5    5  501    0 -0.55880225905E+01 -0.51508483627E+02 -0.50793108671E+01  0.52270826288E+02  0.47000000000E+01 0. -1.
        -13    1    6    6    0    0 -0.41612660354E+02  0.12584863538E+01 -0.14952346436E+02  0.44235392544E+02  0.00000000000E+00 0.  1.
         14    1    6    6    0    0 -0.25092028879E+02  0.58919208610E+02 -0.12459665945E+03  0.14009072276E+03  0.00000000000E+00 0. -1.
         -5    1    3    3    0  503  0.31372441334E+02 -0.51617476246E+02  0.98918060497E+01  0.61388368249E+02  0.47000000000E+01 0.  1.
         13    1    4    4    0    0 -0.23970112720E+02  0.14582295292E+02  0.74289083464E+02  0.79410815143E+02  0.00000000000E+00 0. -1.
        -14    1    4    4    0    0  0.64890383208E+02  0.28365969617E+02  0.19580155793E+02  0.73476340179E+02  0.00000000000E+00 0.  1.
</event>
<event>
12    1  0.1597826E-001  0.1836978E+03  0.7818608E-02  0.1164718E+00
         21   -1    0    0  503  502  0.00000000000E+00  0.00000000000E+00  0.75865092913E+02  0.75865092913E+02  0.00000000000E+00 0. -1.
         21   -1    0    0  501  503 -0.00000000000E+00 -0.00000000000E+00 -0.64855640726E+03  0.64855640726E+03  0.00000000000E+00 0. -1.
          6    2    1    2  501    0 -0.59717734803E+02 -0.62528600710E+01 -0.49262421824E+03  0.52575993334E+03  0.17360754879E+03 0.  0.
         24    2    3    3    0    0 -0.19223948880E+02 -0.65822199364E+02 -0.23915036099E+03  0.26220853571E+03  0.82814847083E+02 0.  0.
         -6    2    1    2    0  502  0.59717734803E+02  0.62528600710E+01 -0.80067096103E+02  0.19866156683E+03  0.17161110730E+03 0.  0.
        -24    2    5    5    0    0  0.94389339558E+01 -0.43667440540E+01  0.24130353126E+02  0.82386323412E+02  0.78083739764E+02 0.  0.
          5    1    3    3  501    0 -0.40493785923E+02  0.59569339293E+02 -0.25347385725E+03  0.26355139762E+03  0.47000000000E+01 0. -1.
        -13    1    4    4    0    0 -0.36924913071E+02 -0.61798456696E+00 -0.56864055065E+02  0.67803774738E+02  0.00000000000E+00 0.  1.
         14    1    4    4    0    0  0.17700964191E+02 -0.65204214797E+02 -0.18228630593E+03  0.19440476098E+03  0.00000000000E+00 0. -1.
         -5    1    5    5    0  502  0.50278800848E+02  0.10619604125E+02 -0.10419744923E+03  0.11627524342E+03  0.47000000000E+01 0.  1.
         13    1    6    6    0    0 -0.30764662215E+02 -0.76623596508E+01 -0.57043858809E+01  0.32213602948E+02  0.00000000000E+00 0. -1.
        -14    1    6    6    0    0  0.40203596171E+02  0.32956155968E+01  0.29834739007E+02  0.50172720464E+02  0.00000000000E+00 0.  1.
</event>
<event>
12    1  0.1597826E-001  0.2036338E+03  0.7818608E-02  0.1147144E+00
         21   -1    0    0  503  502  0.00000000000E+00  0.00000000000E+00  0.15143932154E+03  0.15143932154E+03  0.00000000000E+00 0. -1.
         21   -1    0    0  501  503 -0.00000000000E+00 -0.00000000000E+00 -0.27196880571E+03  0.27196880571E+03  0.00000000000E+00 0. -1.
          6    2    1    2  501    0 -0.73794673526E+02 -0.77155317424E+02 -0.47322539575E+02  0.20701503945E+03  0.17093041555E+03 0.  0.
         24    2    3    3    0    0 -0.42964748464E+01 -0.98851543053E+02 -0.20914869122E+02  0.12942521483E+03  0.80767364834E+02 0.  0.
         -6    2    1    2    0  502  0.73794673526E+02  0.77155317424E+02 -0.73206944593E+02  0.21639308780E+03  0.17340159995E+03 0.  0.
        -24    2    5    5    0    0 -0.19018490374E+02  0.17416526210E+02 -0.64888001061E+02  0.10560364160E+03  0.79225236357E+02 0.  0.
          5    1    3    3  501    0 -0.69498198679E+02  0.21696225629E+02 -0.26407670453E+02  0.77589824623E+02  0.47000000000E+01 0. -1.
        -11    1    4    4    0    0  0.26042560506E+01 -0.83699800187E+01  0.25881113581E+02  0.27325276857E+02  0.00000000000E+00 0.  1.
         12    1    4    4    0    0 -0.69007308970E+01 -0.90481563035E+02 -0.46795982704E+02  0.10209993797E+03  0.00000000000E+00 0. -1.
         -5    1    5    5    0  502  0.92813163900E+02  0.59738791214E+02 -0.83189435318E+01  0.11078944620E+03  0.47000000000E+01 0.  1.
         11    1    6    6    0    0 -0.39682380650E+01  0.16895007929E+02  0.15831774368E+02  0.23491132069E+02  0.00000000000E+00 0. -1.
        -12    1    6    6    0    0 -0.15050252309E+02  0.52151828092E+00 -0.80719775429E+02  0.82112509529E+02  0.00000000000E+00 0.  1.
</event>
<event>
12    1  0.1597826E-001  0.2594498E+03  0.7818608E-02  0.1108695E+00
         21   -1    0    0  501  502  0.00000000000E+00  0.00000000000E+00  0.94501452747E+03  0.94501452747E+03  0.00000000000E+00 0.  1.
         21   -1    0    0  502  503 -0.00000000000E+00 -0.00000000000E+00 -0.13177938229E+03  0.13177938229E+03  0.00000000000E+00 0. -1.
         -6    2    1    2    0  503 -0.18198296089E+03 -0.65694629381E+02  0.31879720480E+02  0.25348929457E+03  0.16064533451E+03 0.  0.
        -24    2    3    3    0    0 -0.43848760215E+02 -0.13684969534E+01 -0.13728426045E+02  0.94363238442E+02  0.82409735659E+02 0.  0.
          6    2    1    2  501    0  0.18198296089E+03  0.65694629381E+02  0.78135542469E+03  0.82330461519E+03  0.17286008017E+03 0.  0.
         24    2    5    5    0    0  0.78824428055E+02 -0.32002836037E+02  0.39237157911E+03  0.40915850599E+03  0.78852742215E+02 0.  0.
          5    1    5    5  501    0  0.10315853283E+03  0.97697465418E+02  0.38898384558E+03  0.41414610920E+03  0.47000000000E+01 0. -1.
        -13    1    6    6    0    0  0.31513315317E+02  0.96489416179E+01  0.26501819828E+03  0.26705961233E+03  0.00000000000E+00 0.  1.
         14    1    6    6    0    0  0.47311112738E+02 -0.41651777655E+02  0.12735338083E+03  0.14209889366E+03  0.00000000000E+00 0. -1.
         -5    1    3    3    0  503 -0.13813420067E+03 -0.64326132428E+02  0.45608146526E+02  0.15912605612E+03  0.47000000000E+01 0.  1.
         13    1    4    4    0    0 -0.16218926826E+02 -0.36354381202E+02 -0.26700949794E+02  0.47933655607E+02  0.00000000000E+00 0. -1.
        -14    1    4    4    0    0 -0.27629833389E+02  0.34985884249E+02  0.12972523749E+02  0.46429582835E+02  0.00000000000E+00 0.  1.
</event>
<event>
12    1  0.1597826E-001  0.1768312E+03  0.7818608E-02  0.1171058E+00
         21   -1    0    0  503  502  0.00000000000E+00  0.00000000000E+00  0.10378045735E+02  0.10378045735E+02  0.00000000000E+00 0.  1.
         21   -1    0    0  501  503 -0.00000000000E+00 -0.00000000000E+00 -0.32023023897E+04  0.32023023897E+04  0.00000000000E+00 0.  1.
          6    2    1    2  501    0 -0.22827451416E+02 -0.31145197943E+02 -0.19945437402E+04  0.20023128965E+04  0.17193338299E+03 0.  0.
         24    2    3    3    0    0  0.55918496577E+02 -0.37854967248E+02 -0.85970283045E+03  0.86471370273E+03  0.63882346466E+02 0.  0.
         -6    2    1    2    0  502  0.22827451416E+02  0.31145197943E+02 -0.11973806038E+04  0.12103675389E+04  0.17256347540E+03 0.  0.
        -24    2    5    5    0    0  0.58456823424E+02  0.50024909954E+02 -0.10894245300E+04  0.10950310766E+04  0.79545963395E+02 0.  0.
          5    1    3    3  501    0 -0.78745947993E+02  0.67097693055E+01 -0.11348409097E+04  0.11375991938E+04  0.47000000000E+01 0. -1.
        -11    1    4    4    0    0  0.15809483877E+02  0.28259271118E+01 -0.51945374187E+03  0.51970194880E+03  0.00000000000E+00 0.  1.
         12    1    4    4    0    0  0.40109012700E+02 -0.40680894360E+02 -0.34024908859E+03  0.34501175393E+03  0.00000000000E+00 0. -1.
         -5    1    5    5    0  502 -0.35629372009E+02 -0.18879712011E+02 -0.10795607371E+03  0.11533646226E+03  0.47000000000E+01 0.  1.
         11    1    6    6    0    0  0.70958617538E+02  0.48705398396E+02 -0.68152746200E+03  0.68694033416E+03  0.00000000000E+00 0. -1.
        -12    1    6    6    0    0 -0.12501794114E+02  0.13195115581E+01 -0.40789706804E+03  0.40809074246E+03  0.00000000000E+00 0.  1.
</event>
<event>
12    1  0.1597826E-001  0.1802612E+03  0.7818608E-02  0.1167754E+00
         21   -1    0    0  503  502  0.00000000000E+00  0.00000000000E+00  0.12994072544E+04  0.12994072544E+04  0.00000000000E+00 0.  1.
         21   -1    0    0  501  503 -0.00000000000E+00 -0.00000000000E+00 -0.25033636157E+02  0.25033636157E+02  0.00000000000E+00 0.  1.
          6    2    1    2  501    0 -0.38529359856E+02  0.34571367583E+02  0.68576384834E+03  0.70884723054E+03  0.17179246063E+03 0.  0.
         24    2    3    3    0    0 -0.91877490341E+02  0.29645098097E+02  0.51875027414E+03  0.53338807539E+03  0.77978759809E+02 0.  0.
         -6    2    1    2    0  502  0.38529359856E+02 -0.34571367583E+02  0.58860976993E+03  0.61559366004E+03  0.17266847426E+03 0.  0.
        -24    2    5    5    0    0  0.45300932683E+02 -0.60486565143E+02  0.57462829736E+03  0.58501551035E+03  0.79590628637E+02 0.  0.
          5    1    3    3  501    0  0.53348130485E+02  0.49262694863E+01  0.16701357421E+03  0.17545915515E+03  0.47000000000E+01 0. -1.
        -11    1    4    4    0    0 -0.36089860362E+02  0.51945901206E+02  0.23633852309E+03  0.24465639614E+03  0.00000000000E+00 0.  1.
         12    1    4    4    0    0 -0.55787629979E+02 -0.22300803109E+02  0.28241175104E+03  0.28873167926E+03  0.00000000000E+00 0. -1.
         -5    1    5    5    0  502 -0.67715728274E+01  0.25915197559E+02  0.13981472571E+02  0.30578149688E+02  0.47000000000E+01 0.  1.
         11    1    6    6    0    0  0.48482430670E+01  0.10258708970E+02  0.25194956533E+03  0.25220493659E+03  0.00000000000E+00 0. -1.
        -12    1    6    6    0    0  0.40452689616E+02 -0.70745274112E+02  0.32267873202E+03  0.33281057376E+03  0.00000000000E+00 0.  1.
</event>
<event>
12    1  0.1597826E-001  0.1758202E+03  0.7818608E-02  0.1172109E+00
         21   -1    0    0  503  502  0.00000000000E+00  0.00000000000E+00  0.19709819945E+03  0.19709819945E+03  0.00000000000E+00 0.  1.
         21   -1    0    0  501  503 -0.00000000000E+00 -0.00000000000E+00 -0.15872586660E+03  0.15872586660E+03  0.00000000000E+00 0.  1.
          6    2    1    2  501    0  0.12575857278E+02 -0.30238411254E+02 -0.36015990322E+01  0.17506305361E+03  0.17193483510E+03 0.  0.
         24    2    3    3    0    0  0.39349549748E+00  0.15630937875E+02 -0.56686892751E+02  0.10370098009E+03  0.85416675207E+02 0.  0.
         -6    2    1    2    0  502 -0.12575857278E+02  0.30238411254E+02  0.41973931884E+02  0.18076101245E+03  0.17274321683E+03 0.  0.
        -24    2    5    5    0    0 -0.23873328850E+02  0.79960812867E+02  0.55070188599E+02  0.12790694897E+03  0.79773394672E+02 0.  0.
          5    1    3    3  501    0  0.12182361780E+02 -0.45869349129E+02  0.53085293719E+02  0.71362073522E+02  0.47000000000E+01 0. -1.
        -11    1    4    4    0    0  0.39300579391E+02 -0.27856749622E+01 -0.43478647211E+02  0.58674426190E+02  0.00000000000E+00 0.  1.
         12    1    4    4    0    0 -0.38907083893E+02  0.18416612837E+02 -0.13208245540E+02  0.45026553896E+02  0.00000000000E+00 0. -1.
         -5    1    5    5    0  502  0.11297471572E+02 -0.49722401613E+02 -0.13096256715E+02  0.52854063477E+02  0.47000000000E+01 0.  1.
         11    1    6    6    0    0 -0.21018290386E+01  0.51324153716E+02 -0.11134690100E+02  0.52560134737E+02  0.00000000000E+00 0. -1.
        -12    1    6    6    0    0 -0.21771499811E+02  0.28636659151E+02  0.66204878699E+02  0.75346814232E+02  0.00000000000E+00 0.  1.
</event>
<event>
12    1  0.1597826E-001  0.1743834E+03  0.7818608E-02  0.1173797E+00
         21   -1    0    0  501  502  0.00000000000E+00  0.00000000000E+00  0.66456991457E+03  0.66456991457E+03  0.00000000000E+00 0.  1.
         21   -1    0    0  502  503 -0.00000000000E+00 -0.00000000000E+00 -0.95764403456E+02  0.95764403456E+02  0.00000000000E+00 0.  1.
         -6    2    1    2    0  503 -0.16774933424E+02 -0.12416765031E+02  0.77493978596E+01  0.17280258303E+03  0.17136249616E+03 0.  0.
        -24    2    3    3    0    0  0.13506132926E+02  0.54226101048E+02  0.16776667332E+02  0.98898617151E+02  0.79853580046E+02 0.  0.
          6    2    1    2  501    0  0.16774933424E+02  0.12416765031E+02  0.56105611326E+03  0.58753173500E+03  0.17313001751E+03 0.  0.
         24    2    5    5    0    0 -0.47863112665E+02  0.93175877415E+01  0.20603091256E+03  0.22662639418E+03  0.80827536232E+02 0.  0.
          5    1    5    5  501    0  0.64638046090E+02  0.30991772895E+01  0.35502520069E+03  0.36090534081E+03  0.47000000000E+01 0. -1.
        -11    1    6    6    0    0 -0.31624898674E+02 -0.27821012653E+02  0.15925883689E+03  0.16473469606E+03  0.00000000000E+00 0.  1.
         12    1    6    6    0    0 -0.16238213991E+02  0.37138600394E+02  0.46772075679E+02  0.61891698120E+02  0.00000000000E+00 0. -1.
         -5    1    3    3    0  503 -0.30281066350E+02 -0.66642866079E+02 -0.90272694727E+01  0.73903965879E+02  0.47000000000E+01 0.  1.
         11    1    4    4    0    0 -0.12630905837E+02  0.26937311179E+02  0.43440227118E+02  0.52651798145E+02  0.00000000000E+00 0. -1.
        -12    1    4    4    0    0  0.26137038762E+02  0.27288789869E+02 -0.26663559786E+02  0.46246819006E+02  0.00000000000E+00 0.  1.
</event>
<event>
12    1  0.1597826E-001  0.2038725E+03  0.7818608E-02  0.1146852E+00
         21   -1    0    0  501  502  0.00000000000E+00  0.00000000000E+00  0.24507825149E+04  0.24507825149E+04  0.00000000000E+00 0. -1.
         21   -1    0    0  502  503 -0.00000000000E+00 -0.00000000000E+00 -0.17848588815E+02  0.17848588815E+02  0.00000000000E+00 0. -1.
         -6    2    1    2    0  503  0.10583593638E+03 -0.15346705034E+02  0.92523911821E+03  0.94743412433E+03  0.17357196571E+03 0.  0.
        -24    2    3    3    0    0  0.10191891858E+03 -0.27321463144E+02  0.38427381604E+03  0.40630171353E+03  0.79251425270E+02 0.  0.
          6    2    1    2  501    0 -0.10583593638E+03  0.15346705034E+02  0.15076948079E+04  0.15211969794E+04  0.17163871835E+03 0.  0.
         24    2    5    5    0    0 -0.91406534263E+01  0.34642635898E+02  0.10171702878E+04  0.10208384025E+04  0.78689172287E+02 0.  0.
          5    1    5    5  501    0 -0.96695282949E+02 -0.19295930864E+02  0.49052452009E+03  0.50035857693E+03  0.47000000000E+01 0. -1.
        -13    1    6    6    0    0  0.14045079876E+02 -0.19403044056E+00  0.77161909239E+03  0.77174693110E+03  0.00000000000E+00 0.  1.
         14    1    6    6    0    0 -0.23185733303E+02  0.34836666338E+02  0.24555119540E+03  0.24909147138E+03  0.00000000000E+00 0. -1.
         -5    1    3    3    0  503  0.39170177912E+01  0.11974758111E+02  0.54096530217E+03  0.54113241080E+03  0.47000000000E+01 0.  1.
         11    1    4    4    0    0  0.85606682550E+02 -0.51454438294E+02  0.32893284180E+03  0.34376282192E+03  0.00000000000E+00 0. -1.
        -12    1    4    4    0    0  0.16312236035E+02  0.24132975150E+02  0.55340974237E+02  0.62538891608E+02  0.00000000000E+00 0.  1.
</event>
<event>
12    1  0.1597826E-001  0.1845600E+03  0.7818608E-02  0.1163481E+00
         21   -1    0    0  503  502  0.00000000000E+00  0.00000000000E+00  0.10637932911E+03  0.10637932911E+03  0.00000000000E+00 0. -1.
         21   -1    0    0  501  503 -0.00000000000E+00 -0.00000000000E+00 -0.10415668569E+04  0.10415668569E+04  0.00000000000E+00 0.  1.
          6    2    1    2  501    0  0.66687409911E+02  0.19493726910E+02 -0.94534149951E+03  0.96318895349E+03  0.17098302079E+03 0.  0.
         24    2    3    3    0    0  0.98156279371E+02  0.50498373790E+02 -0.61744672503E+03  0.63229826005E+03  0.79849173296E+02 0.  0.
         -6    2    1    2    0  502 -0.66687409911E+02 -0.19493726910E+02  0.10153971690E+02  0.18475723256E+03  0.17089445811E+03 0.  0.
        -24    2    5    5    0    0 -0.14543933477E+02 -0.60747490501E+02 -0.32420367535E+02  0.10566564321E+03  0.78818553150E+02 0.  0.
          5    1    3    3  501    0 -0.31468869460E+02 -0.31004646881E+02 -0.32789477449E+03  0.33089069344E+03  0.47000000000E+01 0. -1.
        -13    1    4    4    0    0  0.74995501638E+02  0.88474577434E+01 -0.49803772716E+03  0.50373026556E+03  0.00000000000E+00 0.  1.
         14    1    4    4    0    0  0.23160777734E+02  0.41650916047E+02 -0.11940899787E+03  0.12856799448E+03  0.00000000000E+00 0. -1.
         -5    1    5    5    0  502 -0.52143476434E+02  0.41253763591E+02  0.42574339225E+02  0.79091589348E+02  0.47000000000E+01 0.  1.
         11    1    6    6    0    0 -0.21460015292E+02  0.11876020226E+02  0.27455578822E+01  0.24680158038E+02  0.00000000000E+00 0. -1.
        -12    1    6    6    0    0  0.69160818147E+01 -0.72623510727E+02 -0.35165925417E+02  0.80985485171E+02  0.00000000000E+00 0.  1.
</event>
<event>
12    1  0.1597826E-001  0.2117902E+03  0.7818608E-02  0.1140467E+00
         21   -1    0    0  503  502  0.00000000000E+00  0.00000000000E+00  0.89109906809E+03  0.89109906809E+03  0.00000000000E+00 0.  1.
         21   -1    0    0  501  503 -0.00000000000E+00 -0.00000000000E+00 -0.74511295989E+02  0.74511295989E+02  0.00000000000E+00 0.  1.
          6    2    1    2  501    0  0.64977177358E+02  0.10567805568E+03  0.13219050093E+03  0.24965864118E+03  0.17165437235E+03 0.  0.
         24    2    3    3    0    0  0.10692897042E+01  0.10148510000E+03  0.37480244833E+02  0.13522996648E+03  0.81129564152E+02 0.  0.
         -6    2    1    2    0  502 -0.64977177358E+02 -0.10567805568E+03  0.68439727117E+03  0.71595172290E+03  0.16969784829E+03 0.  0.
        -24    2    5    5    0    0 -0.81365892306E+02 -0.14145145805E+02  0.43471156153E+03  0.44947112855E+03  0.78928195798E+02 0.  0.
          5    1    3    3  501    0  0.63907887654E+02  0.41929556857E+01  0.94710256102E+02  0.11442867470E+03  0.47000000000E+01 0. -1.
        -13    1    4    4    0    0  0.19989853472E+02  0.68287024374E+02  0.58054719152E+02  0.91831706701E+02  0.00000000000E+00 0.  1.
         14    1    4    4    0    0 -0.18920563767E+02  0.33198075625E+02 -0.20574474319E+02  0.43398259781E+02  0.00000000000E+00 0. -1.
         -5    1    5    5    0  502  0.16388714948E+02 -0.91532909880E+02  0.24968570964E+03  0.26648059435E+03  0.47000000000E+01 0.  1.
         13    1    6    6    0    0  0.65805241973E+01  0.59259481798E+01  0.45562694776E+01  0.99589031571E+01  0.00000000000E+00 0. -1.
        -14    1    6    6    0    0 -0.87946416503E+02 -0.20071093985E+02  0.43015529206E+03  0.43951222540E+03  0.00000000000E+00 0.  1.
</event>
<event>
12    1  0.1597826E-001  0.2157273E+03  0.7818608E-02  0.1137185E+00
         21   -1    0    0  501  502  0.00000000000E+00  0.00000000000E+00  0.14658471387E+04  0.14658471387E+04  0.00000000000E+00 0. -1.
         21   -1    0    0  502  503 -0.00000000000E+00 -0.00000000000E+00 -0.67010490363E+02  0.67010490363E+02  0.00000000000E+00 0.  1.
         -6    2    1    2    0  503 -0.12867108372E+03 -0.20939127999E+02  0.14268492163E+03  0.25831636321E+03  0.17138746097E+03 0.  0.
        -24    2    3    3    0    0 -0.24034860295E+02  0.24666367575E+02  0.10246218548E+03  0.13720253666E+03  0.84498120776E+02 0.  0.
          6    2    1    2  501    0  0.12867108372E+03  0.20939127999E+02  0.12561517267E+04  0.12745412659E+04  0.17188246849E+03 0.  0.
         24    2    5    5    0    0  0.20776781680E+01  0.36290460090E+02  0.46245870515E+03  0.47065554251E+03  0.79544148008E+02 0.  0.
          5    1    5    5  501    0  0.12659340555E+03 -0.15351332090E+02  0.79369302157E+03  0.80388572336E+03  0.47000000000E+01 0. -1.
        -13    1    6    6    0    0  0.35683998628E+02  0.19146588028E+02  0.13258756200E+03  0.13863405493E+03  0.00000000000E+00 0.  1.
         14    1    6    6    0    0 -0.33606320460E+02  0.17143872062E+02  0.32987114316E+03  0.33202148758E+03  0.00000000000E+00 0. -1.
         -5    1    3    3    0  503 -0.10463622342E+03 -0.45605495574E+02  0.40222736153E+02  0.12111382655E+03  0.47000000000E+01 0.  1.
         13    1    4    4    0    0 -0.14143551832E+02  0.55198905539E+02  0.79180854810E+02  0.97552893342E+02  0.00000000000E+00 0. -1.
        -14    1    4    4    0    0 -0.98913084634E+01 -0.30532537964E+02  0.23281330668E+02  0.39649643319E+02  0.00000000000E+00 0.  1.
</event>
<event>
12    1  0.1597826E-001  0.2866658E+03  0.7818608E-02  0.1092413E+00
         21   -1    0    0  501  502  0.00000000000E+00  0.00000000000E+00  0.53357207146E+02  0.53357207146E+02  0.00000000000E+00 0.  1.
         21   -1    0    0  502  503 -0.00000000000E+00 -0.00000000000E+00 -0.15987229646E+04  0.15987229646E+04  0.00000000000E+00 0. -1.
         -6    2    1    2    0  503  0.13933544575E+03  0.18227162322E+03 -0.94385409744E+03  0.98575176518E+03  0.16795438142E+03 0.  0.
        -24    2    3    3    0    0  0.11736608143E+03  0.11933895031E+03 -0.84727615302E+03  0.86831001947E+03  0.89826656980E+02 0.  0.
          6    2    1    2  501    0 -0.13933544575E+03 -0.18227162322E+03 -0.60151165997E+03  0.66632840652E+03  0.17187192087E+03 0.  0.
         24    2    5    5    0    0 -0.99635080882E+02 -0.43139408669E+02 -0.36268578616E+03  0.38705474128E+03  0.80512330373E+02 0.  0.
          5    1    5    5  501    0 -0.39700364865E+02 -0.13913221455E+03 -0.23882587381E+03  0.27927366524E+03  0.47000000000E+01 0. -1.
        -13    1    6    6    0    0 -0.54081840333E+01  0.85613161814E+01 -0.15248384265E+01  0.10240591854E+02  0.00000000000E+00 0.  1.
         14    1    6    6    0    0 -0.94226896849E+02 -0.51700724851E+02 -0.36116094773E+03  0.37681414942E+03  0.00000000000E+00 0. -1.
         -5    1    3    3    0  503  0.21969364316E+02  0.62932672909E+02 -0.96577944419E+02  0.11744174571E+03  0.47000000000E+01 0.  1.
         13    1    4    4    0    0 -0.86417348727E+01  0.34724664265E+02 -0.11377256037E+03  0.11926725193E+03  0.00000000000E+00 0. -1.
        -14    1    4    4    0    0  0.12600781630E+03  0.84614286042E+02 -0.73350359265E+03  0.74904276754E+03  0.00000000000E+00 0.  1.
</event>
<event>
12    1  0.1597826E-001  0.2138524E+03  0.7818608E-02  0.1139772E+00
         21   -1    0    0  503  502  0.00000000000E+00  0.00000000000E+00  0.29197572229E+03  0.29197572229E+03  0.00000000000E+00 0. -1.
         21   -1    0    0  501  503 -0.00000000000E+00 -0.00000000000E+00 -0.15930162112E+03  0.15930162112E+03  0.00000000000E+00 0.  1.
          6    2    1    2  501    0  0.10033597190E+03 -0.57181600503E+02  0.11332550393E+03  0.23655140966E+03  0.17255971975E+03 0.  0.
         24    2    3    3    0    0 -0.12228273361E+02 -0.35072198868E+02  0.28006509794E+02  0.93509612581E+02  0.81117773955E+02 0.  0.
         -6    2    1    2    0  502 -0.10033597190E+03  0.57181600503E+02  0.19348597238E+02  0.21472593374E+03  0.17998837660E+03 0.  0.
        -24    2    5    5    0    0 -0.97657123132E+02  0.10601204183E+03  0.11215162982E+02  0.16492803233E+03  0.79372597643E+02 0.  0.
          5    1    3    3  501    0  0.11256424526E+03 -0.22109401635E+02  0.85318994137E+02  0.14304179708E+03  0.47000000000E+01 0. -1.
        -11    1    4    4    0    0 -0.84577775641E+01  0.69954943722E+01 -0.24072342327E+02  0.26456541874E+02  0.00000000000E+00 0.  1.
         12    1    4    4    0    0 -0.37704957970E+01 -0.42067693240E+02  0.52078852121E+02  0.67053070707E+02  0.00000000000E+00 0. -1.
         -5    1    5    5    0  502 -0.26788487699E+01 -0.48830441332E+02  0.81334342558E+01  0.49797901404E+02  0.47000000000E+01 0.  1.
         13    1    6    6    0    0 -0.62264489437E+02  0.19628428998E+02  0.26263834274E+02  0.70369957088E+02  0.00000000000E+00 0. -1.
        -14    1    6    6    0    0 -0.35392633695E+02  0.86383612837E+02 -0.15048671292E+02  0.94558075247E+02  0.00000000000E+00 0.  1.
</event>
<event>
12    1  0.1597826E-001  0.2813576E+03  0.7818608E-02  0.1095014E+00
         21   -1    0    0  503  502  0.00000000000E+00  0.00000000000E+00  0.56809629372E+03  0.56809629372E+03  0.00000000000E+00 0. -1.
         21   -1    0    0  501  503 -0.00000000000E+00 -0.00000000000E+00 -0.14531914227E+03  0.14531914227E+03  0.00000000000E+00 0.  1.
          6    2    1    2  501    0 -0.19937514623E+03 -0.96097044042E+02  0.28493593821E+03  0.40010681127E+03  0.17295051527E+03 0.  0.
         24    2    3    3    0    0 -0.10657989742E+03  0.13791467184E+02  0.14037486548E+03  0.19613025171E+03  0.84926401526E+02 0.  0.
         -6    2    1    2    0  502  0.19937514623E+03  0.96097044042E+02  0.13784121324E+03  0.31330862472E+03  0.17371529422E+03 0.  0.
        -24    2    5    5    0    0  0.41918599773E+02 -0.76211221822E+01  0.27849873058E+02  0.94973545210E+02  0.80181720798E+02 0.  0.
          5    1    3    3  501    0 -0.92795248816E+02 -0.10988851123E+03  0.14456107274E+03  0.20397655957E+03  0.47000000000E+01 0. -1.
        -11    1    4    4    0    0 -0.11707516171E+03 -0.50666028597E+00  0.13223430329E+03  0.17661472521E+03  0.00000000000E+00 0.  1.
         12    1    4    4    0    0  0.10495264292E+02  0.14298127470E+02  0.81405621854E+01  0.19515526496E+02  0.00000000000E+00 0. -1.
         -5    1    5    5    0  502  0.15745654646E+03  0.10371816622E+03  0.10999134018E+03  0.21833507951E+03  0.47000000000E+01 0.  1.
         11    1    6    6    0    0  0.52115841577E+02  0.85476963596E+01  0.44930146405E+02  0.69338604776E+02  0.00000000000E+00 0. -1.
        -12    1    6    6    0    0 -0.10197241804E+02 -0.16168818542E+02 -0.17080273347E+02  0.25634940434E+02  0.00000000000E+00 0.  1.
</event>
<event>
12    1  0.1597826E-001  0.3019998E+03  0.7818608E-02  0.1084289E+00
         21   -1    0    0  503  502  0.00000000000E+00  0.00000000000E+00  0.37509072844E+03  0.37509072844E+03  0.00000000000E+00 0.  1.
         21   -1    0    0  501  503 -0.00000000000E+00 -0.00000000000E+00 -0.49578005949E+03  0.49578005949E+03  0.00000000000E+00 0.  1.
          6    2    1    2  501    0 -0.24447988677E+03 -0.37269754120E+02 -0.37132970090E+03  0.47841128545E+03  0.17271989367E+03 0.  0.
         24    2    3    3    0    0 -0.18828569915E+03  0.36409716189E+02 -0.27506056480E+03  0.34470905049E+03  0.79930239871E+02 0.  0.
         -6    2    1    2    0  502  0.24447988677E+03  0.37269754120E+02  0.25064036986E+03  0.39245950248E+03  0.17333325268E+03 0.  0.
        -24    2    5    5    0    0  0.14074790879E+03 -0.15750543892E-02  0.22833921572E+03  0.27990326450E+03  0.79981661721E+02 0.  0.
          5    1    3    3  501    0 -0.56194187617E+02 -0.73679470310E+02 -0.96269136101E+02  0.13370223496E+03  0.47000000000E+01 0. -1.
        -11    1    4    4    0    0 -0.17140898379E+03  0.60051642087E+01 -0.21196369063E+03  0.27266409347E+03  0.00000000000E+00 0.  1.
         12    1    4    4    0    0 -0.16876715355E+02  0.30404551981E+02 -0.63096874162E+02  0.72044957016E+02  0.00000000000E+00 0. -1.
         -5    1    5    5    0  502  0.10373197798E+03  0.37271329174E+02  0.22301154136E+02  0.11255623799E+03  0.47000000000E+01 0.  1.
         13    1    6    6    0    0  0.18802558723E+02 -0.27679020664E+02  0.27476235482E+02  0.43296742553E+02  0.00000000000E+00 0. -1.
        -14    1    6    6    0    0  0.12194535006E+03  0.27677445609E+02  0.20086298024E+03  0.23660652195E+03  0.00000000000E+00 0.  1.
</event>
<event>
12    1  0.1597826E-001  0.1801493E+03  0.7818608E-02  0.1167868E+00
         21   -1    0    0  501  502  0.00000000000E+00  0.00000000000E+00  0.33600023732E+03  0.33600023732E+03  0.00000000000E+00 0. -1.
         21   -1    0    0  502  503 -0.00000000000E+00 -0.00000000000E+00 -0.10890541508E+03  0.10890541508E+03  0.00000000000E+00 0.  1.
         -6    2    1    2    0  503 -0.50799713814E+02  0.17451776147E+02  0.18999351732E+03  0.26182303272E+03  0.17195519307E+03 0.  0.
        -24    2    3    3    0    0 -0.33529785532E+02 -0.19860937711E+02  0.20030757248E+03  0.21917377983E+03  0.79970737192E+02 0.  0.
          6    2    1    2  501    0  0.50799713814E+02 -0.17451776147E+02  0.37101304920E+02  0.18308261969E+03  0.17104842411E+03 0.  0.
         24    2    5    5    0    0  0.50960101004E+02 -0.57635609891E+02 -0.20841057521E+02  0.11241315256E+03  0.79268983649E+02 0.  0.
          5    1    5    5  501    0 -0.16038719050E+00  0.40183833744E+02  0.57942362441E+02  0.70669467125E+02  0.47000000000E+01 0. -1.
        -11    1    6    6    0    0  0.58317898724E+02 -0.52830271068E+02  0.10933886740E+02  0.79445356894E+02  0.00000000000E+00 0.  1.
         12    1    6    6    0    0 -0.73577977199E+01 -0.48053388233E+01 -0.31774944262E+02  0.32967795670E+02  0.00000000000E+00 0. -1.
         -5    1    3    3    0  503 -0.17269928282E+02  0.37312713858E+02 -0.10314055160E+02  0.42649252891E+02  0.47000000000E+01 0.  1.
         11    1    4    4    0    0 -0.47270614743E+02  0.14165816775E+02  0.14147825122E+03  0.14983750182E+03  0.00000000000E+00 0. -1.
        -12    1    4    4    0    0  0.13740829211E+02 -0.34026754486E+02  0.58829321257E+02  0.69336278007E+02  0.00000000000E+00 0.  1.
</event>
<event>
12    1  0.1597826E-001  0.1814141E+03  0.7818608E-02  0.1168080E+00
         21   -1    0    0  501  502  0.00000000000E+00  0.00000000000E+00  0.18935061357E+03  0.18935061357E+03  0.00000000000E+00 0.  1.
         21   -1    0    0  502  503 -0.00000000000E+00 -0.00000000000E+00 -0.54412817816E+03  0.54412817816E+03  0.00000000000E+00 0.  1.
         -6    2    1    2    0  503 -0.16481001350E+02  0.60226000511E+02 -0.48353727873E+03  0.51644879942E+03  0.17032987982E+03 0.  0.
        -24    2    3    3    0    0  0.32038043739E+02  0.24630910004E+01 -0.13584113668E+03  0.16063234583E+03  0.79482281346E+02 0.  0.
          6    2    1    2  501    0  0.16481001350E+02 -0.60226000511E+02  0.12875971414E+03  0.21702999231E+03  0.16316911176E+03 0.  0.
         24    2    5    5    0    0  0.50976545170E+02 -0.47018264663E+02  0.14163617083E+03  0.17763100797E+03  0.81747444843E+02 0.  0.
          5    1    5    5  501    0 -0.34495543820E+02 -0.13207735848E+02 -0.12876456687E+02  0.39398984333E+02  0.47000000000E+01 0. -1.
        -11    1    6    6    0    0 -0.32602299354E+01  0.19693686191E+02  0.38424140851E+02  0.43299941976E+02  0.00000000000E+00 0.  1.
         12    1    6    6    0    0  0.54236775106E+02 -0.66711950854E+02  0.10321202998E+03  0.13433106600E+03  0.00000000000E+00 0. -1.
         -5    1    3    3    0  503 -0.48519045090E+02  0.57762909510E+02 -0.34769614204E+03  0.35581645359E+03  0.47000000000E+01 0.  1.
         13    1    4    4    0    0  0.70850509708E+01 -0.32480914366E+02 -0.97695355122E+02  0.10319685149E+03  0.00000000000E+00 0. -1.
        -14    1    4    4    0    0  0.24952992769E+02  0.34944005366E+02 -0.38145781560E+02  0.57435494339E+02  0.00000000000E+00 0.  1.
</event>
<event>
12    1  0.1597826E-001  0.2263991E+03  0.7818608E-02  0.1129356E+00
         21   -1    0    0  503  502  0.00000000000E+00  0.00000000000E+00  0.18591184536E+03  0.18591184536E+03  0.00000000000E+00 0.  1.
         21   -1    0    0  501  503 -0.00000000000E+00 -0.00000000000E+00 -0.73216155376E+03  0.73216155376E+03  0.00000000000E+00 0. -1.
          6    2    1    2  501    0  0.11464521809E+03  0.92092008735E+02 -0.63579360345E+03  0.67460953825E+03  0.17099724797E+03 0.  0.
         24    2    3    3    0    0  0.14797536834E+03  0.85657303330E+02 -0.57413517012E+03  0.60406765885E+03  0.77670197998E+02 0.  0.
         -6    2    1    2    0  502 -0.11464521809E+03 -0.92092008735E+02  0.89543895045E+02  0.24346386086E+03  0.17213970576E+03 0.  0.
        -24    2    5    5    0    0 -0.12664710083E+03 -0.11565919311E+03  0.53434792941E+02  0.19845925417E+03  0.84346080924E+02 0.  0.
          5    1    3    3  501    0 -0.33330150243E+02  0.64347054042E+01 -0.61658433329E+02  0.70541879402E+02  0.47000000000E+01 0. -1.
        -13    1    4    4    0    0  0.90999335177E+02  0.15074106114E+02 -0.22118523207E+03  0.23964768841E+03  0.00000000000E+00 0.  1.
         14    1    4    4    0    0  0.56976033158E+02  0.70583197217E+02 -0.35294993805E+03  0.36441997044E+03  0.00000000000E+00 0. -1.
         -5    1    5    5    0  502  0.12001882738E+02  0.23567184379E+02  0.36109102104E+02  0.45004606693E+02  0.47000000000E+01 0.  1.
         13    1    6    6    0    0 -0.52440750010E+02 -0.10300664200E+03  0.27230267978E+02  0.11875137074E+03  0.00000000000E+00 0. -1.
        -14    1    6    6    0    0 -0.74206350821E+02 -0.12652551109E+02  0.26204524963E+02  0.79707883426E+02  0.00000000000E+00 0.  1.
</event>
<event>
12    1  0.1597826E-001  0.2796717E+03  0.7818608E-02  0.1095928E+00
         21   -1    0    0  501  502  0.00000000000E+00  0.00000000000E+00  0.73900354079E+03  0.73900354079E+03  0.00000000000E+00 0.  1.
         21   -1    0    0  502  503 -0.00000000000E+00 -0.00000000000E+00 -0.15405029301E+03  0.15405029301E+03  0.00000000000E+00 0. -1.
         -6    2    1    2    0  503 -0.11321637799E+03 -0.18893777733E+03  0.42100186243E+02  0.28239377349E+03  0.17163445364E+03 0.  0.
        -24    2    3    3    0    0 -0.47933617903E+01 -0.11190596274E+03  0.57406995843E+02  0.14843169184E+03  0.78679623508E+02 0.  0.
          6    2    1    2  501    0  0.11321637799E+03  0.18893777733E+03  0.54285306154E+03  0.61066006031E+03  0.17233929001E+03 0.  0.
         24    2    5    5    0    0  0.13973010186E+02  0.14316063191E+03  0.38000113259E+03  0.41447740598E+03  0.81856262764E+02 0.  0.
          5    1    5    5  501    0  0.99243367807E+02  0.45777145419E+02  0.16285192895E+03  0.19618265433E+03  0.47000000000E+01 0. -1.
        -13    1    6    6    0    0 -0.27484969092E+02  0.24528370845E+02  0.12298318455E+03  0.12838196207E+03  0.00000000000E+00 0.  1.
         14    1    6    6    0    0  0.41457979278E+02  0.11863226107E+03  0.25701794804E+03  0.28609544391E+03  0.00000000000E+00 0. -1.
         -5    1    3    3    0  503 -0.10842301620E+03 -0.77031814589E+02 -0.15306809600E+02  0.13396208166E+03  0.47000000000E+01 0.  1.
         11    1    4    4    0    0 -0.18001757383E+02 -0.86234443857E+02  0.45579877158E+01  0.88211211466E+02  0.00000000000E+00 0. -1.
        -12    1    4    4    0    0  0.13208395593E+02 -0.25671518883E+02  0.52849008127E+02  0.60220480370E+02  0.00000000000E+00 0.  1.
</event>
<event>
12    1  0.1597826E-001  0.1789429E+03  0.7818608E-02  0.1169028E+00
         21   -1    0    0  503  502  0.00000000000E+00  0.00000000000E+00  0.34010720689E+03  0.34010720689E+03  0.00000000000E+00 0.  1.
         21   -1    0    0  501  503 -0.00000000000E+00 -0.00000000000E+00 -0.12121495259E+03  0.12121495259E+03  0.00000000000E+00 0.  1.
          6    2    1    2  501    0 -0.47202250763E+02  0.68551170905E+01 -0.21234758681E+00  0.17894299315E+03  0.17246885109E+03 0.  0.
         24    2    3    3    0    0  0.29502045448E+02 -0.30406990321E+02 -0.16873904803E+02  0.91927412963E+02  0.79818323991E+02 0.  0.
         -6    2    1    2    0  502  0.47202250763E+02 -0.68551170905E+01  0.21910460189E+03  0.28237916633E+03  0.17162785876E+03 0.  0.
        -24    2    5    5    0    0 -0.27477483608E+02  0.35751152462E+02  0.12426062031E+03  0.15427831632E+03  0.79548350831E+02 0.  0.
          5    1    3    3  501    0 -0.76704296211E+02  0.37262107411E+02  0.16661557216E+02  0.87015580185E+02  0.47000000000E+01 0. -1.
        -13    1    4    4    0    0 -0.23703738733E+02  0.73316059319E+01 -0.81494375033E+01  0.26115761660E+02  0.00000000000E+00 0.  1.
         14    1    4    4    0    0  0.53205784181E+02 -0.37738596253E+02 -0.87244672994E+01  0.65811651302E+02  0.00000000000E+00 0. -1.
         -5    1    5    5    0  502  0.74679734371E+02 -0.42606269553E+02  0.94843981581E+02  0.12810085001E+03  0.47000000000E+01 0.  1.
         11    1    6    6    0    0 -0.69963861060E+01  0.47245939902E+02  0.12159810303E+03  0.13064159719E+03  0.00000000000E+00 0. -1.
        -12    1    6    6    0    0 -0.20481097502E+02 -0.11494787440E+02  0.26625172808E+01  0.23636719134E+02  0.00000000000E+00 0.  1.
</event>
<event>
12    1  0.1597826E-001  0.2560163E+03  0.7818608E-02  0.1110911E+00
         21   -1    0    0  501  502  0.00000000000E+00  0.00000000000E+00  0.53715745285E+03  0.53715745285E+03  0.00000000000E+00 0.  1.
         21   -1    0    0  502  503 -0.00000000000E+00 -0.00000000000E+00 -0.15170378573E+03  0.15170378573E+03  0.00000000000E+00 0. -1.
         -6    2    1    2    0  503  0.51126825751E+02 -0.18104763946E+03  0.32811311446E+02  0.25811028921E+03  0.17364371331E+03 0.  0.
        -24    2    3    3    0    0  0.54821779003E+02 -0.15307925283E+03 -0.35880701041E+02  0.18370218542E+03  0.77591127850E+02 0.  0.
          6    2    1    2  501    0 -0.51126825751E+02  0.18104763946E+03  0.35264235567E+03  0.43075094937E+03  0.16061615517E+03 0.  0.
         24    2    5    5    0    0 -0.10495666874E+02  0.18407784392E+03  0.25554511436E+03  0.32534678683E+03  0.80946986235E+02 0.  0.
          5    1    5    5  501    0 -0.40631158877E+02 -0.30302044578E+01  0.97097241309E+02  0.10540416254E+03  0.47000000000E+01 0. -1.
        -11    1    6    6    0    0 -0.43094201303E+02  0.78082062995E+02  0.13231407426E+03  0.15956482380E+03  0.00000000000E+00 0.  1.
         12    1    6    6    0    0  0.32598534428E+02  0.10599578092E+03  0.12323104010E+03  0.16578196302E+03  0.00000000000E+00 0. -1.
         -5    1    3    3    0  503 -0.36949532519E+01 -0.27968386632E+02  0.68692012488E+02  0.74408103792E+02  0.47000000000E+01 0.  1.
         11    1    4    4    0    0  0.30411954051E+02 -0.85372141926E+02 -0.58961354765E+02  0.10811905901E+03  0.00000000000E+00 0. -1.
        -12    1    4    4    0    0  0.24409824953E+02 -0.67707110902E+02  0.23080653724E+02  0.75583126406E+02  0.00000000000E+00 0.  1.
</event>
<event>
12    1  0.1597826E-001  0.2320731E+03  0.7818608E-02  0.1125248E+00
         21   -1    0    0  501  502  0.00000000000E+00  0.00000000000E+00  0.17859407744E+03  0.17859407744E+03  0.00000000000E+00 0. -1.
         21   -1    0    0  502  503 -0.00000000000E+00 -0.00000000000E+00 -0.37138689703E+03  0.37138689703E+03  0.00000000000E+00 0.  1.
         -6    2    1    2    0  503 -0.15450566608E+03  0.18668488345E+02 -0.21606048506E+03  0.31708050208E+03  0.17215515758E+03 0.  0.
        -24    2    3    3    0    0 -0.12525154729E+03 -0.50782770798E+02 -0.12283463025E+03  0.19711204427E+03  0.74148308800E+02 0.  0.
          6    2    1    2  501    0  0.15450566608E+03 -0.18668488345E+02  0.23267665473E+02  0.23290047239E+03  0.17169954128E+03 0.  0.
         24    2    5    5    0    0  0.12477567504E+03 -0.42911950083E+02  0.72701626331E+02  0.17015157367E+03  0.79092521835E+02 0.  0.
          5    1    5    5  501    0  0.29729991041E+02  0.24243461739E+02 -0.49433960858E+02  0.62748898719E+02  0.47000000000E+01 0. -1.
        -11    1    6    6    0    0  0.52250439201E+02 -0.56612995893E+02  0.20412089687E+02  0.79698137406E+02  0.00000000000E+00 0.  1.
         12    1    6    6    0    0  0.72525235842E+02  0.13701045810E+02  0.52289536644E+02  0.90453436268E+02  0.00000000000E+00 0. -1.
         -5    1    3    3    0  503 -0.29254118791E+02  0.69451259143E+02 -0.93225854814E+02  0.11996845781E+03  0.47000000000E+01 0.  1.
         13    1    4    4    0    0 -0.11009466568E+03 -0.53154932432E+02 -0.13145227219E+03  0.17951596619E+03  0.00000000000E+00 0. -1.
        -14    1    4    4    0    0 -0.15156881615E+02  0.23721616341E+01  0.86176419422E+01  0.17596078078E+02  0.00000000000E+00 0.  1.
</event>
<event>
12    1  0.1597826E-001  0.1821506E+03  0.7818608E-02  0.1166069E+00
         21   -1    0    0  501  502  0.00000000000E+00  0.00000000000E+00  0.25667240811E+03  0.25667240811E+03  0.00000000000E+00 0.  1.
         21   -1    0    0  502  503 -0.00000000000E+00 -0.00000000000E+00 -0.14533861065E+03  0.14533861065E+03  0.00000000000E+00 0.  1.
         -6    2    1    2    0  503 -0.20189341065E+02  0.46883409590E+02 -0.13375674654E+02  0.18125938256E+03  0.17340816448E+03 0.  0.
        -24    2    3    3    0    0 -0.41678103825E+02  0.11964952530E+01  0.47270914488E+02  0.10220775487E+03  0.80457379149E+02 0.  0.
          6    2    1    2  501    0  0.20189341065E+02 -0.46883409590E+02  0.12470947211E+03  0.22075163620E+03  0.17485184833E+03 0.  0.
         24    2    5    5    0    0 -0.27031813143E+02 -0.87878766663E+02  0.11409595066E+03  0.15714980019E+03  0.56787121694E+02 0.  0.
          5    1    5    5  501    0  0.47221154208E+02  0.40995357074E+02  0.10613521445E+02  0.63601836010E+02  0.47000000000E+01 0. -1.
        -11    1    6    6    0    0  0.18815866245E+01 -0.39833861804E+02  0.85194434427E+02  0.94065767268E+02  0.00000000000E+00 0.  1.
         12    1    6    6    0    0 -0.28913399768E+02 -0.48044904859E+02  0.28901516237E+02  0.63084032923E+02  0.00000000000E+00 0. -1.
         -5    1    3    3    0  503  0.21488762760E+02  0.45686914336E+02 -0.60646589142E+02  0.79051627694E+02  0.47000000000E+01 0.  1.
         11    1    4    4    0    0 -0.65978017792E+02 -0.19472215268E+01  0.36688076216E+02  0.75517583647E+02  0.00000000000E+00 0. -1.
        -12    1    4    4    0    0  0.24299913967E+02  0.31437167798E+01  0.10582838272E+02  0.26690171223E+02  0.00000000000E+00 0.  1.
</event>
<event>
12    1  0.1597826E-001  0.2139604E+03  0.7818608E-02  0.1139506E+00
         21   -1    0    0  503  502  0.00000000000E+00  0.00000000000E+00  0.88539285178E+03  0.88539285178E+03  0.00000000000E+00 0.  1.
         21   -1    0    0  501  503 -0.00000000000E+00 -0.00000000000E+00 -0.73708570536E+02  0.73708570536E+02  0.00000000000E+00 0.  1.
          6    2    1    2  501    0  0.12103020253E+03 -0.35940345684E+01  0.67880362195E+03  0.71172565798E+03  0.17640246045E+03 0.  0.
         24    2    3    3    0    0  0.96232120777E+02  0.11169718309E+02  0.66856433092E+03  0.68074427102E+03  0.83959003454E+02 0.  0.
         -6    2    1    2    0  502 -0.12103020253E+03  0.35940345684E+01  0.13288065930E+03  0.24737576433E+03  0.16993019789E+03 0.  0.
        -24    2    5    5    0    0 -0.91349327963E+02  0.20581792345E+02  0.13270482939E+02  0.12288390710E+03  0.78460429586E+02 0.  0.
          5    1    3    3  501    0  0.24798081755E+02 -0.14763752877E+02  0.10239291023E+02  0.30981386967E+02  0.47000000000E+01 0. -1.
        -13    1    4    4    0    0  0.11173903725E+03  0.12556687987E+02  0.59852211561E+03  0.60899261550E+03  0.00000000000E+00 0.  1.
         14    1    4    4    0    0 -0.15506916471E+02 -0.13869696779E+01  0.70042215310E+02  0.71751655513E+02  0.00000000000E+00 0. -1.
         -5    1    5    5    0  502 -0.29680874569E+02 -0.16987757776E+02  0.11961017636E+03  0.12449185723E+03  0.47000000000E+01 0.  1.
         11    1    6    6    0    0 -0.28150443841E+02 -0.12191099635E+02  0.36796162727E+02  0.47906450403E+02  0.00000000000E+00 0. -1.
        -12    1    6    6    0    0 -0.63198884122E+02  0.32772891980E+02 -0.23525679788E+02  0.74977456695E+02  0.00000000000E+00 0.  1.
</event>
<event>
12    1  0.1597826E-001  0.1769514E+03  0.7818608E-02  0.1171143E+00
         21   -1    0    0  501  502  0.00000000000E+00  0.00000000000E+00  0.11066107133E+04  0.11066107133E+04  0.00000000000E+00 0. -1.
         21   -1    0    0  502  503 -0.00000000000E+00 -0.00000000000E+00 -0.93112182448E+02  0.93112182448E+02  0.00000000000E+00 0. -1.
         -6    2    1    2    0  503  0.10586044092E+01 -0.40642429981E+02  0.60031680423E+01  0.17705315777E+03  0.17221746395E+03 0.  0.
        -24    2    3    3    0    0 -0.14014863755E+00  0.16254811697E+02 -0.55458917412E+02  0.93157919119E+02  0.73064819367E+02 0.  0.
          6    2    1    2  501    0 -0.10586044092E+01  0.40642429981E+02  0.10074953628E+04  0.10226697380E+04  0.17074413355E+03 0.  0.
         24    2    5    5    0    0  0.49608710371E+02  0.44792994027E+01  0.36870017050E+03  0.38083149004E+03  0.81312482512E+02 0.  0.
          5    1    5    5  501    0 -0.50667314780E+02  0.36163130578E+02  0.63879519234E+03  0.64183824797E+03  0.47000000000E+01 0. -1.
        -13    1    6    6    0    0  0.62123054679E+02 -0.17032325230E+02  0.19516041221E+03  0.20551632665E+03  0.00000000000E+00 0.  1.
         14    1    6    6    0    0 -0.12514344308E+02  0.21511624633E+02  0.17353975829E+03  0.17531516339E+03  0.00000000000E+00 0. -1.
         -5    1    3    3    0  503  0.11987530468E+01 -0.56897241678E+02  0.61462085454E+02  0.83895238648E+02  0.47000000000E+01 0.  1.
         11    1    4    4    0    0  0.32088037188E+02  0.20554627066E+02 -0.45078852734E+02  0.59027432505E+02  0.00000000000E+00 0. -1.
        -12    1    4    4    0    0 -0.32228185825E+02 -0.42998153692E+01 -0.10380064678E+02  0.34130486614E+02  0.00000000000E+00 0.  1.
</event>
<event>
12    1  0.1597826E-001  0.2035713E+03  0.7818608E-02  0.1147123E+00
         21   -1    0    0  503  502  0.00000000000E+00  0.00000000000E+00  0.63732004942E+03  0.63732004942E+03  0.00000000000E+00 0.  1.
         21   -1    0    0  501  503 -0.00000000000E+00 -0.00000000000E+00 -0.11514982389E+03  0.11514982389E+03  0.00000000000E+00 0. -1.
          6    2    1    2  501    0 -0.10588396379E+03 -0.10219315156E+02  0.10846945039E+02  0.20211291336E+03  0.17151129800E+03 0.  0.
         24    2    3    3    0    0 -0.13399306186E+03  0.20982363232E+02 -0.92601825959E+01  0.15531491436E+03  0.75117051646E+02 0.  0.
         -6    2    1    2    0  502  0.10588396379E+03  0.10219315156E+02  0.51132328049E+03  0.55035695995E+03  0.17356681136E+03 0.  0.
        -24    2    5    5    0    0  0.13114300339E+03  0.38470506787E+02  0.33528571792E+03  0.37022516835E+03  0.77276745586E+02 0.  0.
          5    1    3    3  501    0  0.28109098075E+02 -0.31201678389E+02  0.20107127635E+02  0.46797999002E+02  0.47000000000E+01 0. -1.
        -13    1    4    4    0    0  0.79959036911E+01  0.22228716673E+01 -0.87934056613E+01  0.12091303379E+02  0.00000000000E+00 0.  1.
         14    1    4    4    0    0 -0.14198896555E+03  0.18759491565E+02 -0.46677693453E+00  0.14322361098E+03  0.00000000000E+00 0. -1.
         -5    1    5    5    0  502 -0.25259039602E+02 -0.28251191630E+02  0.17603756257E+03  0.18013179160E+03  0.47000000000E+01 0.  1.
         13    1    6    6    0    0  0.71482500479E+02 -0.16647082588E+02  0.12731140417E+03  0.14695260075E+03  0.00000000000E+00 0. -1.
        -14    1    6    6    0    0  0.59660502908E+02  0.55117589375E+02  0.20797431375E+03  0.22327256760E+03  0.00000000000E+00 0.  1.
</event>
<event>
12    1  0.1597826E-001  0.1982754E+03  0.7818608E-02  0.1151322E+00
         21   -1    0    0  501  502  0.00000000000E+00  0.00000000000E+00  0.75833398119E+02  0.75833398119E+02  0.00000000000E+00 0.  1.
         21   -1    0    0  502  503 -0.00000000000E+00 -0.00000000000E+00 -0.54078262464E+03  0.54078262464E+03  0.00000000000E+00 0.  1.
         -6    2    1    2    0  503 -0.89493674859E+00  0.97657775602E+02 -0.29687850868E+03  0.35669118719E+03  0.17191251280E+03 0.  0.
        -24    2    3    3    0    0  0.50457153920E+02  0.76754631229E+02 -0.26513176845E+03  0.29262930948E+03  0.83065397890E+02 0.  0.
          6    2    1    2  501    0  0.89493674859E+00 -0.97657775602E+02 -0.16807071784E+03  0.25992483557E+03  0.17255524305E+03 0.  0.
         24    2    5    5    0    0  0.55865450315E+02 -0.97259319287E+02 -0.10188619770E+03  0.17375989585E+03  0.85037523479E+02 0.  0.
          5    1    5    5  501    0 -0.54970513566E+02 -0.39845631572E+00 -0.66184520148E+02  0.86164939717E+02  0.47000000000E+01 0. -1.
        -13    1    6    6    0    0  0.43874715540E+02 -0.73417638593E+01 -0.57699647759E+02  0.72856993568E+02  0.00000000000E+00 0.  1.
         14    1    6    6    0    0  0.11990734774E+02 -0.89917555427E+02 -0.44186549938E+02  0.10090290229E+03  0.00000000000E+00 0. -1.
         -5    1    3    3    0  503 -0.51352090669E+02  0.20903144374E+02 -0.31746740223E+02  0.64061877708E+02  0.47000000000E+01 0.  1.
         13    1    4    4    0    0 -0.50553575226E+00 -0.12447910703E+01 -0.12098157455E+03  0.12098903443E+03  0.00000000000E+00 0. -1.
        -14    1    4    4    0    0  0.50962689672E+02  0.77999422299E+02 -0.14415019391E+03  0.17164027506E+03  0.00000000000E+00 0.  1.
</event>
<event>
12    1  0.1597826E-001  0.1953299E+03  0.7818608E-02  0.1153859E+00
         21   -1    0    0  501  502  0.00000000000E+00  0.00000000000E+00  0.16154515513E+03  0.16154515513E+03  0.00000000000E+00 0.  1.
         21   -1    0    0  502  503 -0.00000000000E+00 -0.00000000000E+00 -0.28402108320E+03  0.28402108320E+03  0.00000000000E+00 0. -1.
         -6    2    1    2    0  503 -0.42584303694E+02 -0.80181970514E+02 -0.15322956978E+03  0.24783015435E+03  0.17233082439E+03 0.  0.
        -24    2    3    3    0    0  0.42520789895E+02 -0.59264285283E+02 -0.76485005908E+02  0.13124437222E+03  0.77812955402E+02 0.  0.
          6    2    1    2  501    0  0.42584303694E+02  0.80181970514E+02  0.30753641712E+02  0.19773608397E+03  0.17294855047E+03 0.  0.
         24    2    5    5    0    0 -0.24907549864E+02  0.94839684636E+02  0.15801449950E+02  0.12691478125E+03  0.79010911007E+02 0.  0.
          5    1    5    5  501    0  0.67491853558E+02 -0.14657714122E+02  0.14952191761E+02  0.70821302716E+02  0.47000000000E+01 0. -1.
        -13    1    6    6    0    0 -0.39910551617E+02  0.32586517727E+02 -0.17909301228E+02  0.54547926985E+02  0.00000000000E+00 0.  1.
         14    1    6    6    0    0  0.15003001753E+02  0.62253166909E+02  0.33710751178E+02  0.72366854269E+02  0.00000000000E+00 0. -1.
         -5    1    3    3    0  503 -0.85105093589E+02 -0.20917685231E+02 -0.76744563874E+02  0.11658578213E+03  0.47000000000E+01 0.  1.
         13    1    4    4    0    0  0.23072576200E+02 -0.43327781935E+02 -0.90134540631E+02  0.10263467189E+03  0.00000000000E+00 0. -1.
        -14    1    4    4    0    0  0.19448213695E+02 -0.15936503348E+02  0.13649534723E+02  0.28609700331E+02  0.00000000000E+00 0.  1.
</event>
<event>
12    1  0.1597826E-001  0.2166002E+03  0.7818608E-02  0.1136766E+00
         21   -1    0    0  501  502  0.00000000000E+00  0.00000000000E+00  0.24643416716E+03  0.24643416716E+03  0.00000000000E+00 0. -1.
         21   -1    0    0  502  503 -0.00000000000E+00 -0.00000000000E+00 -0.39357510335E+03  0.39357510335E+03  0.00000000000E+00 0. -1.
         -6    2    1    2    0  503 -0.13101324204E+03 -0.31963163334E+01 -0.30447761422E+03  0.37366064498E+03  0.17245571609E+03 0.  0.
        -24    2    3    3    0    0 -0.81209554175E+02  0.59764128132E+02 -0.13429470171E+03  0.18543541127E+03  0.78641478531E+02 0.  0.
          6    2    1    2  501    0  0.13101324204E+03  0.31963163334E+01  0.15733667803E+03  0.26634862553E+03  0.17032931058E+03 0.  0.
         24    2    5    5    0    0  0.21885720026E+02 -0.12562773357E+02  0.12938031801E+02  0.84606434505E+02  0.79712283101E+02 0.  0.
          5    1    5    5  501    0  0.10912752201E+03  0.15759089691E+02  0.14439864622E+03  0.18174219103E+03  0.47000000000E+01 0. -1.
        -11    1    6    6    0    0 -0.15672865135E+02 -0.21300632708E+02  0.32063668241E+02  0.41562416633E+02  0.00000000000E+00 0.  1.
         12    1    6    6    0    0  0.37558585161E+02  0.87378593506E+01 -0.19125636439E+02  0.43044017872E+02  0.00000000000E+00 0. -1.
         -5    1    3    3    0  503 -0.49803687864E+02 -0.62960444465E+02 -0.17018291251E+03  0.18822523370E+03  0.47000000000E+01 0.  1.
         13    1    4    4    0    0  0.26887608957E+01  0.11094242606E+02 -0.65585306908E+02  0.66571346211E+02  0.00000000000E+00 0. -1.
        -14    1    4    4    0    0 -0.83898315071E+02  0.48669885526E+02 -0.68709394806E+02  0.11886406506E+03  0.00000000000E+00 0.  1.
</event>
<event>
12    1  0.1597826E-001  0.2444967E+03  0.7818608E-02  0.1117274E+00
         21   -1    0    0  503  502  0.00000000000E+00  0.00000000000E+00  0.17229506118E+03  0.17229506118E+03  0.00000000000E+00 0. -1.
         21   -1    0    0  501  503 -0.00000000000E+00 -0.00000000000E+00 -0.15471715465E+04  0.15471715465E+04  0.00000000000E+00 0. -1.
          6    2    1    2  501    0  0.15023453387E+03 -0.87600217300E+02 -0.14467078223E+04  0.14672225938E+04  0.17185576298E+03 0.  0.
         24    2    3    3    0    0  0.83164963967E+02 -0.53894248458E+02 -0.47054110552E+03  0.48816285682E+03  0.84101376561E+02 0.  0.
         -6    2    1    2    0  502 -0.15023453387E+03  0.87600217300E+02  0.71831336981E+02  0.25224401392E+03  0.16799728673E+03 0.  0.
        -24    2    5    5    0    0 -0.88774508434E+02 -0.11889244020E+02  0.59930144044E+02  0.13460381657E+03  0.80649226892E+02 0.  0.
          5    1    3    3  501    0  0.67069569902E+02 -0.33705968842E+02 -0.97616671679E+03  0.97905973695E+03  0.47000000000E+01 0. -1.
        -13    1    4    4    0    0  0.86640127615E+02 -0.11581423703E+02 -0.30711046557E+03  0.31930781254E+03  0.00000000000E+00 0.  1.
         14    1    4    4    0    0 -0.34751636483E+01 -0.42312824754E+02 -0.16343063996E+03  0.16885504428E+03  0.00000000000E+00 0. -1.
         -5    1    5    5    0  502 -0.61460025434E+02  0.99489461319E+02  0.11901192937E+02  0.11764019735E+03  0.47000000000E+01 0.  1.
         13    1    6    6    0    0 -0.75399861352E+01  0.43390763698E+01  0.50483192889E+02  0.51227255821E+02  0.00000000000E+00 0. -1.
        -14    1    6    6    0    0 -0.81234522299E+02 -0.16228320389E+02  0.94469511548E+01  0.83376560747E+02  0.00000000000E+00 0.  1.
</event>
<event>
12    1  0.1597826E-001  0.1796245E+03  0.7818608E-02  0.1168325E+00
         21   -1    0    0  503  502  0.00000000000E+00  0.00000000000E+00  0.72222728913E+03  0.72222728913E+03  0.00000000000E+00 0.  1.
         21   -1    0    0  501  503 -0.00000000000E+00 -0.00000000000E+00 -0.97951359811E+02  0.97951359811E+02  0.00000000000E+00 0.  1.
          6    2    1    2  501    0 -0.36980477755E+01 -0.49620030648E+02  0.89791540071E+01  0.17919887808E+03  0.17191797375E+03 0.  0.
         24    2    3    3    0    0 -0.36494119330E+02 -0.24514444116E+01 -0.46223835688E+02  0.99387112604E+02  0.80020777556E+02 0.  0.
         -6    2    1    2    0  502  0.36980477755E+01  0.49620030648E+02  0.61529677531E+03  0.64097977086E+03  0.17259525470E+03 0.  0.
        -24    2    5    5    0    0 -0.51457918982E+01  0.95388176835E+02  0.34435635882E+03  0.36601843540E+03  0.79137915974E+02 0.  0.
          5    1    3    3  501    0  0.32796071554E+02 -0.47168586237E+02  0.55202989695E+02  0.79811765475E+02  0.47000000000E+01 0. -1.
        -13    1    4    4    0    0 -0.61359026542E+02 -0.83064069619E+01 -0.27697202542E+02  0.67831125330E+02  0.00000000000E+00 0.  1.
         14    1    4    4    0    0  0.24864907212E+02  0.58549625503E+01 -0.18526633145E+02  0.31555987274E+02  0.00000000000E+00 0. -1.
         -5    1    5    5    0  502  0.88438396737E+01 -0.45768146186E+02  0.27094041649E+03  0.27496133546E+03  0.47000000000E+01 0.  1.
         13    1    6    6    0    0  0.36532538958E+02  0.47429412290E+02  0.14851191378E+03  0.16012483907E+03  0.00000000000E+00 0. -1.
        -14    1    6    6    0    0 -0.41678330856E+02  0.47958764545E+02  0.19584444504E+03  0.20589359634E+03  0.00000000000E+00 0.  1.
</event>
<event>
12    1  0.1597826E-001  0.2252649E+03  0.7818608E-02  0.1130733E+00
         21   -1    0    0  501  502  0.00000000000E+00  0.00000000000E+00  0.10448511730E+04  0.10448511730E+04  0.00000000000E+00 0. -1.
         21   -1    0    0  502  503 -0.00000000000E+00 -0.00000000000E+00 -0.50772526957E+02  0.50772526957E+02  0.00000000000E+00 0.  1.
         -6    2    1    2    0  503  0.13737677252E+03 -0.19448323056E+02  0.36692314091E+03  0.43055412399E+03  0.17746449631E+03 0.  0.
        -24    2    3    3    0    0  0.15920756038E+03 -0.50093004240E+02  0.31105795181E+03  0.36303605873E+03  0.84745349093E+02 0.  0.
          6    2    1    2  501    0 -0.13737677252E+03  0.19448323056E+02  0.62715550517E+03  0.66506957600E+03  0.17246129527E+03 0.  0.
         24    2    5    5    0    0 -0.12626056306E+03  0.37687391985E-01  0.27254066337E+03  0.30971887752E+03  0.75535678316E+02 0.  0.
          5    1    5    5  501    0 -0.11116209458E+02  0.19410635664E+02  0.35461484179E+03  0.35535069848E+03  0.47000000000E+01 0. -1.
        -11    1    6    6    0    0 -0.83764991505E+02  0.10985831773E+02  0.24181615166E+03  0.25614900645E+03  0.00000000000E+00 0.  1.
         12    1    6    6    0    0 -0.42495571552E+02 -0.10948144381E+02  0.30724511716E+02  0.53569871076E+02  0.00000000000E+00 0. -1.
         -5    1    3    3    0  503 -0.21830787868E+02  0.30644681184E+02  0.55865189093E+02  0.67518065258E+02  0.47000000000E+01 0.  1.
         13    1    4    4    0    0  0.31871083147E+02 -0.50357271967E+02  0.10810630161E+03  0.12344469704E+03  0.00000000000E+00 0. -1.
        -14    1    4    4    0    0  0.12733647724E+03  0.26426772656E+00  0.20295165021E+03  0.23959136169E+03  0.00000000000E+00 0.  1.
</event>
<event>
12    1  0.1597826E-001  0.1890507E+03  0.7818608E-02  0.1161181E+00
         21   -1    0    0  503  502  0.00000000000E+00  0.00000000000E+00  0.71447986736E+02  0.71447986736E+02  0.00000000000E+00 0.  1.
         21   -1    0    0  501  503 -0.00000000000E+00 -0.00000000000E+00 -0.58180930668E+03  0.58180930668E+03  0.00000000000E+00 0.  1.
          6    2    1    2  501    0  0.39126117988E+02 -0.40851578853E+02 -0.38773733797E+03  0.42792016652E+03  0.17197593160E+03 0.  0.
         24    2    3    3    0    0  0.34737684306E+02 -0.75972790382E+02 -0.37126872162E+03  0.38860015667E+03  0.78683203583E+02 0.  0.
         -6    2    1    2    0  502 -0.39126117988E+02  0.40851578853E+02 -0.12262398197E+03  0.22533712690E+03  0.18038978686E+03 0.  0.
        -24    2    5    5    0    0  0.14749305869E+02  0.57853100178E+02 -0.13449306977E+03  0.16741840568E+03  0.79849943770E+02 0.  0.
          5    1    3    3  501    0  0.43884336819E+01  0.35121211529E+02 -0.16468616356E+02  0.39320009844E+02  0.47000000000E+01 0. -1.
        -11    1    4    4    0    0  0.58753220884E+02 -0.38604660289E+02 -0.23235028687E+03  0.24275278901E+03  0.00000000000E+00 0.  1.
         12    1    4    4    0    0 -0.24015536578E+02 -0.37368130094E+02 -0.13891843474E+03  0.14584736767E+03  0.00000000000E+00 0. -1.
         -5    1    5    5    0  502 -0.53875423857E+02 -0.17001521324E+02  0.11869087796E+02  0.57918721224E+02  0.47000000000E+01 0.  1.
         13    1    6    6    0    0  0.34424735894E+02  0.46938372025E+02 -0.40856026051E+02  0.71116018409E+02  0.00000000000E+00 0. -1.
        -14    1    6    6    0    0 -0.19675430025E+02  0.10914728152E+02 -0.93637043719E+02  0.96302387269E+02  0.00000000000E+00 0.  1.
</event>
<event>
12    1  0.1597826E-001  0.2640752E+03  0.7818608E-02  0.1104762E+00
         21   -1    0    0  501  502  0.00000000000E+00  0.00000000000E+00  0.73020189096E+03  0.73020189096E+03  0.00000000000E+00 0.  1.
         21   -1    0    0  502  503 -0.00000000000E+00 -0.00000000000E+00 -0.15194504377E+03  0.15194504377E+03  0.00000000000E+00 0. -1.
         -6    2    1    2    0  503  0.69851335808E+01 -0.19933286458E+03  0.20150874933E+02  0.26484290584E+03  0.17307028636E+03 0.  0.
        -24    2    3    3    0    0  0.43369086094E+02 -0.45005872877E+02  0.28726753885E+02  0.10598369752E+03  0.80628230349E+02 0.  0.
          6    2    1    2  501    0 -0.69851335808E+01  0.19933286458E+03  0.55810597226E+03  0.61730402889E+03  0.17262562040E+03 0.  0.
         24    2    5    5    0    0  0.58512479291E+02  0.79942483879E+02  0.24548498503E+03  0.27627914424E+03  0.79074500968E+02 0.  0.
          5    1    5    5  501    0 -0.65497612872E+02  0.11939038070E+03  0.31262098723E+03  0.34102488465E+03  0.47000000000E+01 0. -1.
        -13    1    6    6    0    0  0.55661661773E+02  0.74448572565E+02  0.25120447906E+03  0.26785163962E+03  0.00000000000E+00 0.  1.
         14    1    6    6    0    0  0.28508175180E+01  0.54939113138E+01 -0.57194940309E+01  0.84275046137E+01  0.00000000000E+00 0. -1.
         -5    1    3    3    0  503 -0.36383952514E+02 -0.15432699170E+03 -0.85758789521E+01  0.15885920832E+03  0.47000000000E+01 0.  1.
         11    1    4    4    0    0 -0.23982668227E+02 -0.12944279648E+02  0.50025476329E+01  0.27708270132E+02  0.00000000000E+00 0. -1.
        -12    1    4    4    0    0  0.67351754321E+02 -0.32061593229E+02  0.23724206252E+02  0.78275427388E+02  0.00000000000E+00 0.  1.
</event>
<event>
12    1  0.1597826E-001  0.2056458E+03  0.7818608E-02  0.1145839E+00
         21   -1    0    0  501  502  0.00000000000E+00  0.00000000000E+00  0.54974768776E+03  0.54974768776E+03  0.00000000000E+00 0. -1.
         21   -1    0    0  502  503 -0.00000000000E+00 -0.00000000000E+00 -0.84208812819E+02  0.84208812819E+02  0.00000000000E+00 0. -1.
         -6    2    1    2    0  503  0.80874077860E+02  0.77206970491E+02  0.12899449883E+03  0.23955530257E+03  0.16806436118E+03 0.  0.
        -24    2    3    3    0    0  0.11169677061E+03  0.49464726609E+02  0.13378651061E+03  0.19754668606E+03  0.78758713859E+02 0.  0.
          6    2    1    2  501    0 -0.80874077860E+02 -0.77206970491E+02  0.33654437611E+03  0.39440119801E+03  0.17259390238E+03 0.  0.
         24    2    5    5    0    0 -0.10407490512E+03 -0.42125313187E+02  0.32188864687E+03  0.34961412996E+03  0.77534579404E+02 0.  0.
          5    1    5    5  501    0  0.23200827256E+02 -0.35081657303E+02  0.14655729247E+02  0.44787068047E+02  0.47000000000E+01 0. -1.
        -13    1    6    6    0    0 -0.41358502494E+02  0.21850627721E+02  0.11621325413E+03  0.12527368477E+03  0.00000000000E+00 0.  1.
         14    1    6    6    0    0 -0.62716402622E+02 -0.63975940908E+02  0.20567539273E+03  0.22434044519E+03  0.00000000000E+00 0. -1.
         -5    1    3    3    0  503 -0.30822692751E+02  0.27742243881E+02 -0.47920117791E+01  0.42008616508E+02  0.47000000000E+01 0.  1.
         11    1    4    4    0    0  0.42258635899E+02  0.61344279287E+02  0.76154381485E+02  0.10652888213E+03  0.00000000000E+00 0. -1.
        -12    1    4    4    0    0  0.69438134712E+02 -0.11879552678E+02  0.57632129121E+02  0.91017803924E+02  0.00000000000E+00 0.  1.
</event>
<event>
12    1  0.1597826E-001  0.1814235E+03  0.7818608E-02  0.1171575E+00
         21   -1    0    0  501  502  0.00000000000E+00  0.00000000000E+00  0.12729560268E+02  0.12729560268E+02  0.00000000000E+00 0. -1.
         21   -1    0    0  502  503 -0.00000000000E+00 -0.00000000000E+00 -0.29687353154E+04  0.29687353154E+04  0.00000000000E+00 0. -1.
         -6    2    1    2    0  503  0.43428141896E+01  0.52191880338E+02 -0.21136917405E+04  0.21198342235E+04  0.15251724132E+03 0.  0.
        -24    2    3    3    0    0 -0.50980010105E+02  0.40236353838E+02 -0.12304704644E+04  0.12347887659E+04  0.80173605397E+02 0.  0.
          6    2    1    2  501    0 -0.43428141896E+01 -0.52191880338E+02 -0.84231401461E+03  0.86163065214E+03  0.17369982465E+03 0.  0.
         24    2    5    5    0    0  0.88763346830E+01  0.39119936785E+02 -0.35530032747E+03  0.36593213963E+03  0.77838610852E+02 0.  0.
          5    1    5    5  501    0 -0.13219148873E+02 -0.91311817123E+02 -0.48701368713E+03  0.49569851251E+03  0.47000000000E+01 0. -1.
        -13    1    6    6    0    0 -0.33127898902E+02  0.82630744828E+01 -0.17251294835E+03  0.17585918638E+03  0.00000000000E+00 0.  1.
         14    1    6    6    0    0  0.42004233586E+02  0.30856862303E+02 -0.18278737913E+03  0.19007295325E+03  0.00000000000E+00 0. -1.
         -5    1    3    3    0  503  0.55322824295E+02  0.11955526499E+02 -0.88322127607E+03  0.88504545759E+03  0.47000000000E+01 0.  1.
         13    1    4    4    0    0 -0.36962886886E+02  0.50576752245E+02 -0.11745254958E+04  0.11761948831E+04  0.00000000000E+00 0. -1.
        -14    1    4    4    0    0 -0.14017123219E+02 -0.10340398407E+02 -0.55944968679E+02  0.58593882813E+02  0.00000000000E+00 0.  1.
</event>
<event>
12    1  0.1597826E-001  0.1728958E+03  0.7818608E-02  0.1175477E+00
         21   -1    0    0  503  502  0.00000000000E+00  0.00000000000E+00  0.38973748918E+02  0.38973748918E+02  0.00000000000E+00 0. -1.
         21   -1    0    0  501  503 -0.00000000000E+00 -0.00000000000E+00 -0.19712257414E+04  0.19712257414E+04  0.00000000000E+00 0. -1.
          6    2    1    2  501    0 -0.33985565664E+01 -0.31181517149E+01 -0.17577422165E+04  0.17662249747E+04  0.17283428046E+03 0.  0.
         24    2    3    3    0    0  0.43949633925E+02  0.36515217869E+02 -0.72961120601E+03  0.73623074177E+03  0.80238779459E+02 0.  0.
         -6    2    1    2    0  502  0.33985565664E+01  0.31181517149E+01 -0.17450977595E+03  0.24397451559E+03  0.17043658440E+03 0.  0.
        -24    2    5    5    0    0 -0.38761332954E+02  0.25009000463E+02 -0.16928302131E+03  0.19595291100E+03  0.87251997060E+02 0.  0.
          5    1    3    3  501    0 -0.47348190491E+02 -0.39633369584E+02 -0.10281310105E+04  0.10299942330E+04  0.47000000000E+01 0. -1.
        -11    1    4    4    0    0  0.53165844345E+01  0.41212282334E+02 -0.16055085934E+03  0.16584117920E+03  0.00000000000E+00 0.  1.
         12    1    4    4    0    0  0.38633049490E+02 -0.46970644654E+01 -0.56906034667E+03  0.57038956256E+03  0.00000000000E+00 0. -1.
         -5    1    5    5    0  502  0.42159889520E+02 -0.21890848748E+02 -0.52267546400E+01  0.48021604589E+02  0.47000000000E+01 0.  1.
         13    1    6    6    0    0  0.90132078308E+01  0.40760614087E+02 -0.11300758993E+03  0.12047149437E+03  0.00000000000E+00 0. -1.
        -14    1    6    6    0    0 -0.47774540785E+02 -0.15751613624E+02 -0.56275431385E+02  0.75481416630E+02  0.00000000000E+00 0.  1.
</event>
<event>
12    1  0.1597826E-001  0.1863609E+03  0.7818608E-02  0.1161975E+00
         21   -1    0    0  501  502  0.00000000000E+00  0.00000000000E+00  0.19024352124E+03  0.19024352124E+03  0.00000000000E+00 0.  1.
         21   -1    0    0  502  503 -0.00000000000E+00 -0.00000000000E+00 -0.18777702037E+03  0.18777702037E+03  0.00000000000E+00 0.  1.
         -6    2    1    2    0  503 -0.36910472431E+02 -0.60510648352E+02 -0.32613518894E+02  0.18919309579E+03  0.17235563333E+03 0.  0.
        -24    2    3    3    0    0  0.19388291030E+02 -0.77906912020E+02  0.15143244121E+02  0.11319981207E+03  0.78354877580E+02 0.  0.
          6    2    1    2  501    0  0.36910472431E+02  0.60510648352E+02  0.35080019766E+02  0.18882744582E+03  0.17146799984E+03 0.  0.
         24    2    5    5    0    0  0.56166097989E+02  0.80736790464E+02  0.73848158664E+02  0.14081771208E+03  0.68578550580E+02 0.  0.
          5    1    5    5  501    0 -0.19255625557E+02 -0.20226142112E+02 -0.38768138899E+02  0.48009733742E+02  0.47000000000E+01 0. -1.
        -11    1    6    6    0    0 -0.25541071939E+01 -0.10577007987E+02  0.34036461927E+01  0.11400937195E+02  0.00000000000E+00 0.  1.
         12    1    6    6    0    0  0.58720205183E+02  0.91313798451E+02  0.70444512472E+02  0.12941677489E+03  0.00000000000E+00 0. -1.
         -5    1    3    3    0  503 -0.56298763461E+02  0.17396263668E+02 -0.47756763015E+02  0.75993283720E+02  0.47000000000E+01 0.  1.
         11    1    4    4    0    0 -0.21331501480E+02  0.21579961940E+01  0.87195462472E+01  0.23145634356E+02  0.00000000000E+00 0. -1.
        -12    1    4    4    0    0  0.40719792510E+02 -0.80064908214E+02  0.64236978737E+01  0.90054177714E+02  0.00000000000E+00 0.  1.
</event>
<event>
12    1  0.1597826E-001  0.2591638E+03  0.7818608E-02  0.1108310E+00
         21   -1    0    0  503  502  0.00000000000E+00  0.00000000000E+00  0.23334981061E+03  0.23334981061E+03  0.00000000000E+00 0.  1.
         21   -1    0    0  501  503 -0.00000000000E+00 -0.00000000000E+00 -0.43618999509E+03  0.43618999509E+03  0.00000000000E+00 0. -1.
          6    2    1    2  501    0 -0.18805364076E+03 -0.93164996108E+01 -0.29924158217E+03  0.39302738614E+03  0.17168003027E+03 0.  0.
         24    2    3    3    0    0 -0.91159520137E+02  0.41460244434E+02 -0.87543983267E+02  0.15468999561E+03  0.78968574475E+02 0.  0.
         -6    2    1    2    0  502  0.18805364076E+03  0.93164996108E+01  0.96401397689E+02  0.27651241956E+03  0.17808683198E+03 0.  0.
        -24    2    5    5    0    0  0.55108565127E+02  0.27314293251E+02  0.98901066061E+02  0.14224905131E+03  0.81672193344E+02 0.  0.
          5    1    3    3  501    0 -0.96894120618E+02 -0.50776744045E+02 -0.21169759890E+03  0.23833739054E+03  0.47000000000E+01 0. -1.
        -13    1    4    4    0    0 -0.63804733916E+02  0.58303900466E+02 -0.86892201534E+02  0.12255873517E+03  0.00000000000E+00 0.  1.
         14    1    4    4    0    0 -0.27354786221E+02 -0.16843656032E+02 -0.65178173289E+00  0.32131260435E+02  0.00000000000E+00 0. -1.
         -5    1    5    5    0  502  0.13294507563E+03 -0.17997793641E+02 -0.24996683719E+01  0.13426336824E+03  0.47000000000E+01 0.  1.
         13    1    6    6    0    0 -0.16513451082E+02  0.41503632572E+01 -0.11239140054E+01  0.17064078191E+02  0.00000000000E+00 0. -1.
        -14    1    6    6    0    0  0.71622016209E+02  0.23163929994E+02  0.10002498007E+03  0.12518497312E+03  0.00000000000E+00 0.  1.
</event>
<event>
12    1  0.1597826E-001  0.1834420E+03  0.7818608E-02  0.1164924E+00
         21   -1    0    0  501  502  0.00000000000E+00  0.00000000000E+00  0.12419828547E+04  0.12419828547E+04  0.00000000000E+00 0.  1.
         21   -1    0    0  502  503 -0.00000000000E+00 -0.00000000000E+00 -0.28233952033E+02  0.28233952033E+02  0.00000000000E+00 0.  1.
         -6    2    1    2    0  503  0.50182276725E+02 -0.34790193407E+02  0.46298357659E+03  0.49736523608E+03  0.17114253537E+03 0.  0.
        -24    2    3    3    0    0  0.47642489388E+02  0.40176483856E+02  0.32264418274E+03  0.33816822391E+03  0.79840605908E+02 0.  0.
          6    2    1    2  501    0 -0.50182276725E+02  0.34790193407E+02  0.75076532609E+03  0.77285157067E+03  0.17298079942E+03 0.  0.
         24    2    5    5    0    0  0.16439757459E+02  0.71052811040E+01  0.59403369364E+03  0.60024842928E+03  0.84269787125E+02 0.  0.
          5    1    5    5  501    0 -0.66622034184E+02  0.27684912303E+02  0.15673163245E+03  0.17260314139E+03  0.47000000000E+01 0. -1.
        -11    1    6    6    0    0  0.15980840154E+02  0.44645063489E+02  0.28120877587E+03  0.28517879404E+03  0.00000000000E+00 0.  1.
         12    1    6    6    0    0  0.45891730515E+00 -0.37539782385E+02  0.31282491777E+03  0.31506963523E+03  0.00000000000E+00 0. -1.
         -5    1    3    3    0  503  0.25397873363E+01 -0.74966677263E+02  0.14033939384E+03  0.15919701217E+03  0.47000000000E+01 0.  1.
         13    1    4    4    0    0  0.35037670461E+01  0.31051807961E+02  0.34613878275E+02  0.46632732393E+02  0.00000000000E+00 0. -1.
        -14    1    4    4    0    0  0.44138722342E+02  0.91246758954E+01  0.28803030447E+03  0.29153549151E+03  0.00000000000E+00 0.  1.
</event>
<event>
12    1  0.1597826E-001  0.1813933E+03  0.7818608E-02  0.1166470E+00
         21   -1    0    0  501  502  0.00000000000E+00  0.00000000000E+00  0.67092158051E+02  0.67092158051E+02  0.00000000000E+00 0.  1.
         21   -1    0    0  502  503 -0.00000000000E+00 -0.00000000000E+00 -0.49108237548E+03  0.49108237548E+03  0.00000000000E+00 0. -1.
         -6    2    1    2    0  503 -0.54908215116E+02 -0.13167881060E+02 -0.22294228509E+03  0.28741396278E+03  0.17238102662E+03 0.  0.
        -24    2    3    3    0    0 -0.74812972553E+02 -0.15744585743E+02 -0.23766426281E+03  0.26208284746E+03  0.79738599637E+02 0.  0.
          6    2    1    2  501    0  0.54908215116E+02  0.13167881060E+02 -0.20104793233E+03  0.27076057075E+03  0.17234474288E+03 0.  0.
         24    2    5    5    0    0 -0.37302618484E+02  0.14518870267E+01 -0.10220696355E+03  0.13499706512E+03  0.79902133087E+02 0.  0.
          5    1    5    5  501    0  0.92210833600E+02  0.11715994033E+02 -0.98840968782E+02  0.13576350562E+03  0.47000000000E+01 0. -1.
        -13    1    6    6    0    0  0.20914405171E+02  0.58738121615E+01 -0.57483722415E+02  0.61451544778E+02  0.00000000000E+00 0.  1.
         14    1    6    6    0    0 -0.58217023655E+02 -0.44219251348E+01 -0.44723241135E+02  0.73545520344E+02  0.00000000000E+00 0. -1.
         -5    1    3    3    0  503  0.19904757437E+02  0.25767046830E+01  0.14721977716E+02  0.25331115323E+02  0.47000000000E+01 0.  1.
         11    1    4    4    0    0 -0.71270985776E+02 -0.41956620665E+02 -0.19596646126E+03  0.21270346817E+03  0.00000000000E+00 0. -1.
        -12    1    4    4    0    0 -0.35419867775E+01  0.26212034923E+02 -0.41697801549E+02  0.49379379291E+02  0.00000000000E+00 0.  1.
</event>
<event>
12    1  0.1597826E-001  0.3517899E+03  0.7818608E-02  0.1061992E+00
         21   -1    0    0  503  502  0.00000000000E+00  0.00000000000E+00  0.14517503562E+03  0.14517503562E+03  0.00000000000E+00 0. -1.
         21   -1    0    0  501  503 -0.00000000000E+00 -0.00000000000E+00 -0.97966832345E+03  0.97966832345E+03  0.00000000000E+00 0.  1.
          6    2    1    2  501    0  0.23314956241E+03 -0.19901783248E+03 -0.62141880421E+03  0.71355651820E+03  0.17039588713E+03 0.  0.
         24    2    3    3    0    0  0.12444063060E+03 -0.54649861818E+02 -0.38369149897E+03  0.41489934942E+03  0.80313297954E+02 0.  0.
         -6    2    1    2    0  502 -0.23314956241E+03  0.19901783248E+03 -0.21307448362E+03  0.41128684087E+03  0.17259581050E+03 0.  0.
        -24    2    5    5    0    0 -0.80813138319E+02  0.11360980407E+03 -0.16159147478E+03  0.22915088170E+03  0.83428837686E+02 0.  0.
          5    1    3    3  501    0  0.10870893180E+03 -0.14436797067E+03 -0.23772730524E+03  0.29865716878E+03  0.47000000000E+01 0. -1.
        -13    1    4    4    0    0  0.32421042230E+02 -0.57223285429E+02 -0.16468037537E+03  0.17732809819E+03  0.00000000000E+00 0.  1.
         14    1    4    4    0    0  0.92019588372E+02  0.25734236109E+01 -0.21901112360E+03  0.23757125123E+03  0.00000000000E+00 0. -1.
         -5    1    5    5    0  502 -0.15233642409E+03  0.85408028414E+02 -0.51483008842E+02  0.18213595916E+03  0.47000000000E+01 0.  1.
         13    1    6    6    0    0 -0.77218248230E+02  0.43970026630E+02 -0.11480767029E+03  0.14517858746E+03  0.00000000000E+00 0. -1.
        -14    1    6    6    0    0 -0.35948900891E+01  0.69639777440E+02 -0.46783804493E+02  0.83972294238E+02  0.00000000000E+00 0.  1.
</event>
<event>
12    1  0.1597826E-001  0.2143939E+03  0.7818608E-02  0.1138626E+00
         21   -1    0    0  501  502  0.00000000000E+00  0.00000000000E+00  0.53506147221E+03  0.53506147221E+03  0.00000000000E+00 0.  1.
         21   -1    0    0  502  503 -0.00000000000E+00 -0.00000000000E+00 -0.13482218563E+03  0.13482218563E+03  0.00000000000E+00 0.  1.
         -6    2    1    2    0  503  0.11583650328E+03  0.46495782335E+02 -0.44651936927E+01  0.21189844138E+03  0.17117551880E+03 0.  0.
        -24    2    3    3    0    0 -0.80296761994E+01 -0.92711148738E+01 -0.16549257037E+02  0.75440052739E+02  0.72573372376E+02 0.  0.
          6    2    1    2  501    0 -0.11583650328E+03 -0.46495782335E+02  0.40470448028E+03  0.45798521647E+03  0.17431233142E+03 0.  0.
         24    2    5    5    0    0 -0.13270286744E+03 -0.39054774249E+02  0.21879549924E+03  0.27110535648E+03  0.80568712314E+02 0.  0.
          5    1    5    5  501    0  0.16866364164E+02 -0.74410080857E+01  0.18590898103E+03  0.18687985999E+03  0.47000000000E+01 0. -1.
        -13    1    6    6    0    0 -0.71962023762E+02 -0.20767025357E+02  0.48123657169E+02  0.89026336470E+02  0.00000000000E+00 0.  1.
         14    1    6    6    0    0 -0.60740843680E+02 -0.18287748892E+02  0.17067184207E+03  0.18207902001E+03  0.00000000000E+00 0. -1.
         -5    1    3    3    0  503  0.12386617948E+03  0.55766897208E+02  0.12084063344E+02  0.13645838864E+03  0.47000000000E+01 0.  1.
         11    1    4    4    0    0 -0.30814321010E+02  0.25499320424E+01  0.15329943137E+02  0.34511326971E+02  0.00000000000E+00 0. -1.
        -12    1    4    4    0    0  0.22784644810E+02 -0.11821046916E+02 -0.31879200174E+02  0.40928725768E+02  0.00000000000E+00 0.  1.
</event>
<event>
12    1  0.1597826E-001  0.1789104E+03  0.7818608E-02  0.1169434E+00
         21   -1    0    0  503  502  0.00000000000E+00  0.00000000000E+00  0.83764553994E+02  0.83764553994E+02  0.00000000000E+00 0.  1.
         21   -1    0    0  501  503 -0.00000000000E+00 -0.00000000000E+00 -0.63049939955E+03  0.63049939955E+03  0.00000000000E+00 0.  1.
          6    2    1    2  501    0  0.51941859058E+02  0.14072449172E+02 -0.49866889339E+03  0.52900938225E+03  0.16817928151E+03 0.  0.
         24    2    3    3    0    0  0.41333768136E+02  0.40869241305E+02 -0.15517858644E+03  0.18428009625E+03  0.80622483901E+02 0.  0.
         -6    2    1    2    0  502 -0.51941859058E+02 -0.14072449172E+02 -0.48065952168E+02  0.18525457129E+03  0.17062511503E+03 0.  0.
        -24    2    5    5    0    0 -0.13576841273E+02 -0.33932626271E+02 -0.90293898369E+02  0.12466091928E+03  0.77792049518E+02 0.  0.
          5    1    3    3  501    0  0.10608090923E+02 -0.26796792132E+02 -0.34349030695E+03  0.34472928601E+03  0.47000000000E+01 0. -1.
        -13    1    4    4    0    0  0.52798577419E+02  0.57450840030E+02 -0.11058461105E+03  0.13534121692E+03  0.00000000000E+00 0.  1.
         14    1    4    4    0    0 -0.11464809284E+02 -0.16581598725E+02 -0.44593975395E+02  0.48938879327E+02  0.00000000000E+00 0. -1.
         -5    1    5    5    0  502 -0.38365017785E+02  0.19860177099E+02  0.42227946201E+02  0.60593652014E+02  0.47000000000E+01 0.  1.
         13    1    6    6    0    0 -0.19537277152E+02 -0.34871652844E+02 -0.63173152393E+01  0.40467837135E+02  0.00000000000E+00 0. -1.
        -14    1    6    6    0    0  0.59604358790E+01  0.93902657224E+00 -0.83976583130E+02  0.84193082144E+02  0.00000000000E+00 0.  1.
</event>
<event>
12    1  0.1597826E-001  0.2135704E+03  0.7818608E-02  0.1139062E+00
         21   -1    0    0  501  502  0.00000000000E+00  0.00000000000E+00  0.11006828359E+03  0.11006828359E+03  0.00000000000E+00 0. -1.
         21   -1    0    0  502  503 -0.00000000000E+00 -0.00000000000E+00 -0.55544863347E+03  0.55544863347E+03  0.00000000000E+00 0. -1.
         -6    2    1    2    0  503 -0.69100355438E+02  0.10517683407E+03 -0.39268204763E+03  0.44700282666E+03  0.17255524033E+03 0.  0.
        -24    2    3    3    0    0 -0.10794139133E+03  0.78936607461E+02 -0.35157522637E+03  0.38448054011E+03  0.79610388540E+02 0.  0.
          6    2    1    2  501    0  0.69100355438E+02 -0.10517683407E+03 -0.52698302246E+02  0.21851409040E+03  0.17068764189E+03 0.  0.
         24    2    5    5    0    0  0.21301358166E+02 -0.64598128614E+02  0.33016875518E+02  0.11221001157E+03  0.82911437972E+02 0.  0.
          5    1    5    5  501    0  0.47798997272E+02 -0.40578705457E+02 -0.85715177764E+02  0.10630407883E+03  0.47000000000E+01 0. -1.
        -13    1    6    6    0    0  0.32838865229E+02 -0.39811614062E+02 -0.17728750807E+02  0.54567978604E+02  0.00000000000E+00 0.  1.
         14    1    6    6    0    0 -0.11537507063E+02 -0.24786514552E+02  0.50745626325E+02  0.57642032962E+02  0.00000000000E+00 0. -1.
         -5    1    3    3    0  503  0.38841035894E+02  0.26240226610E+02 -0.41106821257E+02  0.62522286552E+02  0.47000000000E+01 0.  1.
         11    1    4    4    0    0 -0.14649841017E+02  0.57878608441E+02 -0.14660124651E+03  0.15829237706E+03  0.00000000000E+00 0. -1.
        -12    1    4    4    0    0 -0.93291550316E+02  0.21057999020E+02 -0.20497397986E+03  0.22618816305E+03  0.00000000000E+00 0.  1.
</event>
<event>
12    1  0.1597826E-001  0.1959534E+03  0.7818608E-02  0.1153442E+00
         21   -1    0    0  501  502  0.00000000000E+00  0.00000000000E+00  0.71796826289E+02  0.71796826289E+02  0.00000000000E+00 0. -1.
         21   -1    0    0  502  503 -0.00000000000E+00 -0.00000000000E+00 -0.93856886259E+03  0.93856886259E+03  0.00000000000E+00 0. -1.
         -6    2    1    2    0  503  0.82695923652E+02  0.43508812282E+02 -0.76668023042E+03  0.79132566246E+03  0.17223848531E+03 0.  0.
        -24    2    3    3    0    0  0.85039266405E+02 -0.13511256389E+01 -0.29024081790E+03  0.31275016258E+03  0.79620534086E+02 0.  0.
          6    2    1    2  501    0 -0.82695923652E+02 -0.43508812282E+02 -0.10009180589E+03  0.21904002642E+03  0.17096353715E+03 0.  0.
         24    2    5    5    0    0  0.14747205172E+02  0.12076653624E+02 -0.43112159622E+02  0.93128639075E+02  0.80317865295E+02 0.  0.
          5    1    5    5  501    0 -0.97443128824E+02 -0.55585465906E+02 -0.56979646266E+02  0.12591138735E+03  0.47000000000E+01 0. -1.
        -11    1    6    6    0    0  0.20696744279E+02 -0.25860452482E+02  0.28391328788E+01  0.33244231106E+02  0.00000000000E+00 0.  1.
         12    1    6    6    0    0 -0.59495391069E+01  0.37937106106E+02 -0.45951292501E+02  0.59884407969E+02  0.00000000000E+00 0. -1.
         -5    1    3    3    0  503 -0.23433427527E+01  0.44859937921E+02 -0.47643941251E+03  0.47857549988E+03  0.47000000000E+01 0.  1.
         13    1    4    4    0    0  0.70610587194E+02 -0.23006919878E+02 -0.26928864664E+03  0.27934127622E+03  0.00000000000E+00 0. -1.
        -14    1    4    4    0    0  0.14428679211E+02  0.21655794240E+02 -0.20952171258E+02  0.33408886368E+02  0.00000000000E+00 0.  1.
</event>
<event>
12    1  0.1597826E-001  0.3567529E+03  0.7818608E-02  0.1059881E+00
         21   -1    0    0  501  502  0.00000000000E+00  0.00000000000E+00  0.40742109469E+03  0.40742109469E+03  0.00000000000E+00 0.  1.
         21   -1    0    0  502  503 -0.00000000000E+00 -0.00000000000E+00 -0.31335676997E+03  0.31335676997E+03  0.00000000000E+00 0. -1.
         -6    2    1    2    0  503 -0.29534695663E+03  0.10141688943E+03  0.67417888315E+02  0.36303123915E+03  0.17242766216E+03 0.  0.
        -24    2    3    3    0    0 -0.20777643335E+03  0.57266837708E+01  0.16649674407E+02  0.22365866814E+03  0.80883539807E+02 0.  0.
          6    2    1    2  501    0  0.29534695663E+03 -0.10141688943E+03  0.26646436406E+02  0.35774662552E+03  0.17250334850E+03 0.  0.
         24    2    5    5    0    0  0.11181756364E+03 -0.96317794580E+02  0.36030115455E+02  0.17384670085E+03  0.84523494281E+02 0.  0.
          5    1    5    5  501    0  0.18352939299E+03 -0.50990948510E+01 -0.93836790487E+01  0.18389992467E+03  0.47000000000E+01 0. -1.
        -11    1    6    6    0    0  0.72167866758E+02 -0.94263112803E+02 -0.21894337428E+01  0.11873722688E+03  0.00000000000E+00 0.  1.
         12    1    6    6    0    0  0.39649696882E+02 -0.20546817772E+01  0.38219549197E+02  0.55109473966E+02  0.00000000000E+00 0. -1.
         -5    1    3    3    0  503 -0.87570523281E+02  0.95690205660E+02  0.50768213908E+02  0.13937257101E+03  0.47000000000E+01 0.  1.
         11    1    4    4    0    0 -0.11322154884E+03 -0.24280466744E+02  0.38594792411E+02  0.12205825735E+03  0.00000000000E+00 0. -1.
        -12    1    4    4    0    0 -0.94554884515E+02  0.30007150515E+02 -0.21945118004E+02  0.10160041079E+03  0.00000000000E+00 0.  1.
</event>
<event>
12    1  0.1597826E-001  0.2124875E+03  0.7818608E-02  0.1141012E+00
         21   -1    0    0  503  502  0.00000000000E+00  0.00000000000E+00  0.28190499375E+02  0.28190499375E+02  0.00000000000E+00 0.  1.
         21   -1    0    0  501  503 -0.00000000000E+00 -0.00000000000E+00 -0.15516189785E+04  0.15516189785E+04  0.00000000000E+00 0.  1.
          6    2    1    2  501    0  0.92466714994E+02  0.65039421078E+02 -0.74154262776E+03  0.77138602144E+03  0.17991860828E+03 0.  0.
         24    2    3    3    0    0  0.12775626919E+03  0.67322823333E+02 -0.68321936227E+03  0.70301746245E+03  0.81183918746E+02 0.  0.
         -6    2    1    2    0  502 -0.92466714994E+02 -0.65039421078E+02 -0.78188585134E+03  0.80842345642E+03  0.17153069894E+03 0.  0.
        -24    2    5    5    0    0  0.10805544840E+02 -0.27139982274E+02 -0.46801781985E+03  0.47580241333E+03  0.80584852136E+02 0.  0.
          5    1    3    3  501    0 -0.35289554194E+02 -0.22834022550E+01 -0.58323265489E+02  0.68368558990E+02  0.47000000000E+01 0. -1.
        -13    1    4    4    0    0  0.64183670755E+02  0.52498564931E+02 -0.21794066010E+03  0.23318184800E+03  0.00000000000E+00 0.  1.
         14    1    4    4    0    0  0.63572598433E+02  0.14824258402E+02 -0.46527870217E+03  0.46983561444E+03  0.00000000000E+00 0. -1.
         -5    1    5    5    0  502 -0.10327225983E+03 -0.37899438804E+02 -0.31386803149E+03  0.33262104309E+03  0.47000000000E+01 0.  1.
         11    1    6    6    0    0 -0.14927581130E+02 -0.29030136681E+02 -0.42021032910E+03  0.42147633646E+03  0.00000000000E+00 0. -1.
        -12    1    6    6    0    0  0.25733125970E+02  0.18901544073E+01 -0.47807490751E+02  0.54326076867E+02  0.00000000000E+00 0.  1.
</event>
<event>
12    1  0.1597826E-001  0.1953065E+03  0.7818608E-02  0.1158674E+00
         21   -1    0    0  503  502  0.00000000000E+00  0.00000000000E+00  0.17971987850E+03  0.17971987850E+03  0.00000000000E+00 0.  1.
         21   -1    0    0  501  503 -0.00000000000E+00 -0.00000000000E+00 -0.23807617413E+03  0.23807617413E+03  0.00000000000E+00 0.  1.
          6    2    1    2  501    0 -0.30122811535E+02 -0.18723097866E+02 -0.12447015746E+03  0.23159760739E+03  0.19205908851E+03 0.  0.
         24    2    3    3    0    0  0.57159137885E+02 -0.24428089373E+02 -0.35217160448E+02  0.10654212730E+03  0.79038458399E+02 0.  0.
         -6    2    1    2    0  502  0.30122811535E+02  0.18723097866E+02  0.66113861839E+02  0.18619844525E+03  0.17041384954E+03 0.  0.
        -24    2    5    5    0    0 -0.46668057229E+02 -0.71664922565E+01  0.31221323195E+02  0.97842983303E+02  0.79807344166E+02 0.  0.
          5    1    3    3  501    0 -0.87281949420E+02  0.57049915065E+01 -0.89252997016E+02  0.12505548008E+03  0.47000000000E+01 0. -1.
        -13    1    4    4    0    0 -0.19115546725E+02 -0.10279674495E+02 -0.92239151534E+00  0.21723872593E+02  0.00000000000E+00 0.  1.
         14    1    4    4    0    0  0.76274684610E+02 -0.14148414878E+02 -0.34294768932E+02  0.84818254710E+02  0.00000000000E+00 0. -1.
         -5    1    5    5    0  502  0.76790868764E+02  0.25889590123E+02  0.34892538644E+02  0.88355461944E+02  0.47000000000E+01 0.  1.
         11    1    6    6    0    0 -0.48700230671E+02  0.52129310298E+01  0.53339116517E+02  0.72415112153E+02  0.00000000000E+00 0. -1.
        -12    1    6    6    0    0  0.20321734425E+01 -0.12379423286E+02 -0.22117793322E+02  0.25427871150E+02  0.00000000000E+00 0.  1.
</event>
<event>
12    1  0.1597826E-001  0.1878330E+03  0.7818608E-02  0.1160784E+00
         21   -1    0    0  503  502  0.00000000000E+00  0.00000000000E+00  0.21623704575E+03  0.21623704575E+03  0.00000000000E+00 0. -1.
         21   -1    0    0  501  503 -0.00000000000E+00 -0.00000000000E+00 -0.16622349290E+03  0.16622349290E+03  0.00000000000E+00 0. -1.
          6    2    1    2  501    0 -0.33026965049E+02 -0.62051514424E+02  0.56010301895E+02  0.19453186187E+03  0.17252339117E+03 0.  0.
         24    2    3    3    0    0  0.47860626005E+02 -0.37325548513E+02  0.32367995882E+02  0.10658173731E+03  0.81413410918E+02 0.  0.
         -6    2    1    2    0  502  0.33026965049E+02  0.62051514424E+02 -0.59967490521E+01  0.18792867678E+03  0.17418397083E+03 0.  0.
        -24    2    5    5    0    0  0.86407819327E+02  0.60805896032E+02 -0.17038342766E+02  0.13320140789E+03  0.79300956522E+02 0.  0.
          5    1    3    3  501    0 -0.80887591053E+02 -0.24725965911E+02  0.23642306013E+02  0.87950124561E+02  0.47000000000E+01 0. -1.
        -13    1    4    4    0    0  0.37320291222E+02  0.52205541634E+01 -0.16323655376E+02  0.41067262479E+02  0.00000000000E+00 0.  1.
         14    1    4    4    0    0  0.10540334782E+02 -0.42546102676E+02  0.48691651258E+02  0.65514474831E+02  0.00000000000E+00 0. -1.
         -5    1    5    5    0  502 -0.53380854278E+02  0.12456183917E+01  0.11041593714E+02  0.54727268892E+02  0.47000000000E+01 0.  1.
         13    1    6    6    0    0  0.56753615854E+02 -0.76254053313E+01 -0.11571523980E+02  0.58421056873E+02  0.00000000000E+00 0. -1.
        -14    1    6    6    0    0  0.29654203473E+02  0.68431301363E+02 -0.54668187865E+01  0.74780351012E+02  0.00000000000E+00 0.  1.
</event>
<event>
12    1  0.1597826E-001  0.2033329E+03  0.7818608E-02  0.1147843E+00
         21   -1    0    0  501  502  0.00000000000E+00  0.00000000000E+00  0.97994150186E+03  0.97994150186E+03  0.00000000000E+00 0.  1.
         21   -1    0    0  502  503 -0.00000000000E+00 -0.00000000000E+00 -0.44952810608E+02  0.44952810608E+02  0.00000000000E+00 0.  1.
         -6    2    1    2    0  503  0.92191312660E+02  0.57086214379E+02  0.32624729059E+03  0.38442366794E+03  0.17200635993E+03 0.  0.
        -24    2    3    3    0    0  0.28765183651E+02 -0.35065106744E+02  0.14715460073E+03  0.17321045484E+03  0.79311964104E+02 0.  0.
          6    2    1    2  501    0 -0.92191312660E+02 -0.57086214379E+02  0.60874140066E+03  0.64047064452E+03  0.16696849887E+03 0.  0.
         24    2    5    5    0    0 -0.12895705053E+03 -0.65591990485E+02  0.47905467325E+03  0.50532329910E+03  0.70185657736E+02 0.  0.
          5    1    5    5  501    0  0.36765737874E+02  0.85057761063E+01  0.12968672741E+03  0.13514734542E+03  0.47000000000E+01 0. -1.
        -13    1    6    6    0    0 -0.92588864520E+02 -0.67658120584E+02  0.42456434923E+03  0.43977858719E+03  0.00000000000E+00 0.  1.
         14    1    6    6    0    0 -0.36368186014E+02  0.20661300992E+01  0.54490324027E+02  0.65544711916E+02  0.00000000000E+00 0. -1.
         -5    1    3    3    0  503  0.63426129009E+02  0.92151321123E+02  0.17909268986E+03  0.21121321310E+03  0.47000000000E+01 0.  1.
         13    1    4    4    0    0 -0.25236721413E+02 -0.26461727514E+02  0.63254560054E+02  0.73063359479E+02  0.00000000000E+00 0. -1.
        -14    1    4    4    0    0  0.54001905064E+02 -0.86033792302E+01  0.83900040675E+02  0.10014709536E+03  0.00000000000E+00 0.  1.
</event>
<event>
12    1  0.1597826E-001  0.2876695E+03  0.7818608E-02  0.1091585E+00
         21   -1    0    0  503  502  0.00000000000E+00  0.00000000000E+00  0.60869022944E+03  0.60869022944E+03  0.00000000000E+00 0. -1.
         21   -1    0    0  501  503 -0.00000000000E+00 -0.00000000000E+00 -0.23537213122E+03  0.23537213122E+03  0.00000000000E+00 0.  1.
          6    2    1    2  501    0 -0.10955639081E+03  0.20234914323E+03 -0.87670779126E+02  0.30073226178E+03  0.17264399562E+03 0.  0.
         24    2    3    3    0    0 -0.11786971806E+02  0.15002481993E+03 -0.22700473920E+02  0.17212462335E+03  0.80406437232E+02 0.  0.
         -6    2    1    2    0  502  0.10955639081E+03 -0.20234914323E+03  0.46098887735E+03  0.54333009888E+03  0.17247919519E+03 0.  0.
        -24    2    5    5    0    0  0.95300680272E+02 -0.59715223165E+02  0.17278829880E+03  0.22141501083E+03  0.80750747865E+02 0.  0.
          5    1    3    3  501    0 -0.97769419009E+02  0.52324323302E+02 -0.64970305206E+02  0.12860763842E+03  0.47000000000E+01 0. -1.
        -13    1    4    4    0    0 -0.40136519674E+02  0.11110517630E+03 -0.33474692223E+02  0.12278377511E+03  0.00000000000E+00 0.  1.
         14    1    4    4    0    0  0.28349547868E+02  0.38919643634E+02  0.10774218304E+02  0.49340848239E+02  0.00000000000E+00 0. -1.
         -5    1    5    5    0  502  0.14255710542E+02 -0.14263392007E+03  0.28820057855E+03  0.32191508805E+03  0.47000000000E+01 0.  1.
         11    1    6    6    0    0  0.62895901662E+02 -0.63446048367E+02  0.16537668213E+03  0.18796473736E+03  0.00000000000E+00 0. -1.
        -12    1    6    6    0    0  0.32404778611E+02  0.37308252024E+01  0.74116166719E+01  0.33450273469E+02  0.00000000000E+00 0.  1.
</event>
<event>
12    1  0.1597826E-001  0.2470496E+03  0.7818608E-02  0.1115299E+00
         21   -1    0    0  503  502  0.00000000000E+00  0.00000000000E+00  0.56623343790E+03  0.56623343790E+03  0.00000000000E+00 0.  1.
         21   -1    0    0  501  503 -0.00000000000E+00 -0.00000000000E+00 -0.15920649380E+03  0.15920649380E+03  0.00000000000E+00 0.  1.
          6    2    1    2  501    0  0.15212337768E+03 -0.89906895696E+02 -0.34454498290E+01  0.24635633071E+03  0.17162400364E+03 0.  0.
         24    2    3    3    0    0  0.97885720115E+02 -0.11971925797E+03 -0.33538941965E+02  0.17737656040E+03  0.80145296935E+02 0.  0.
         -6    2    1    2    0  502 -0.15212337768E+03  0.89906895696E+02  0.41047239393E+03  0.47908360099E+03  0.17265207393E+03 0.  0.
        -24    2    5    5    0    0 -0.52277060326E+02  0.10113388354E+03  0.18541322396E+03  0.23256980355E+03  0.82156536356E+02 0.  0.
          5    1    3    3  501    0  0.54237657560E+02  0.29812362276E+02  0.30093492136E+02  0.68979770303E+02  0.47000000000E+01 0. -1.
        -13    1    4    4    0    0  0.77326067917E+02 -0.36139969102E+02 -0.32402767959E+02  0.91298179158E+02  0.00000000000E+00 0.  1.
         14    1    4    4    0    0  0.20559652198E+02 -0.83579288870E+02 -0.11361740059E+01  0.86078381246E+02  0.00000000000E+00 0. -1.
         -5    1    5    5    0  502 -0.99846317349E+02 -0.11226987841E+02  0.22505916997E+03  0.24651379745E+03  0.47000000000E+01 0.  1.
         11    1    6    6    0    0 -0.53373969235E+02  0.10021963293E+03  0.19350177520E+03  0.22435617314E+03  0.00000000000E+00 0. -1.
        -12    1    6    6    0    0  0.10969089087E+01  0.91425060233E+00 -0.80885512418E+01  0.82136304098E+01  0.00000000000E+00 0.  1.
</event>
<event>
12    1  0.1597826E-001  0.1747813E+03  0.7818608E-02  0.1174027E+00
         21   -1    0    0  503  502  0.00000000000E+00  0.00000000000E+00  0.54241765582E+03  0.54241765582E+03  0.00000000000E+00 0.  1.
         21   -1    0    0  501  503 -0.00000000000E+00 -0.00000000000E+00 -0.56327203667E+02  0.56327203667E+02  0.00000000000E+00 0.  1.
          6    2    1    2  501    0  0.30359591877E+02 -0.56888863010E+01  0.19362814551E+03  0.25803572102E+03  0.16773940010E+03 0.  0.
         24    2    3    3    0    0  0.77173263520E+02 -0.22017913089E+02  0.92733465689E+02  0.14551912943E+03  0.78331476890E+02 0.  0.
         -6    2    1    2    0  502 -0.30359591877E+02  0.56888863010E+01  0.29246230665E+03  0.34070913846E+03  0.17203036935E+03 0.  0.
        -24    2    5    5    0    0 -0.92196020138E+01 -0.28029511978E+02  0.28815134442E+03  0.30040400294E+03  0.79628594695E+02 0.  0.
          5    1    3    3  501    0 -0.46813671643E+02  0.16329026788E+02  0.10089467982E+03  0.11251659159E+03  0.47000000000E+01 0. -1.
        -11    1    4    4    0    0  0.86948237138E+02 -0.52938477237E+01  0.54763960385E+02  0.10289369331E+03  0.00000000000E+00 0.  1.
         12    1    4    4    0    0 -0.97749736180E+01 -0.16724065365E+02  0.37969505305E+02  0.42625436123E+02  0.00000000000E+00 0. -1.
         -5    1    5    5    0  502 -0.21139989863E+02  0.33718398279E+02  0.43109622307E+01  0.40305135520E+02  0.47000000000E+01 0.  1.
         13    1    6    6    0    0  0.43493635249E+01 -0.53182697260E+02  0.22236675605E+03  0.22867944911E+03  0.00000000000E+00 0. -1.
        -14    1    6    6    0    0 -0.13568965539E+02  0.25153185282E+02  0.65784588366E+02  0.71724553830E+02  0.00000000000E+00 0.  1.
</event>
<event>
12    1  0.1597826E-001  0.1733843E+03  0.7818608E-02  0.1174426E+00
         21   -1    0    0  501  502  0.00000000000E+00  0.00000000000E+00  0.16290990100E+03  0.16290990100E+03  0.00000000000E+00 0.  1.
         21   -1    0    0  502  503 -0.00000000000E+00 -0.00000000000E+00 -0.19562703269E+03  0.19562703269E+03  0.00000000000E+00 0.  1.
         -6    2    1    2    0  503  0.48999198120E+01 -0.15237302666E+02 -0.59556917159E+02  0.18332794736E+03  0.17264392632E+03 0.  0.
        -24    2    3    3    0    0  0.53637510964E+02 -0.52601838342E+02 -0.47730764918E+02  0.12061105016E+03  0.81393264603E+02 0.  0.
          6    2    1    2  501    0 -0.48999198120E+01  0.15237302666E+02  0.26839785474E+02  0.17520898633E+03  0.17239962355E+03 0.  0.
         24    2    5    5    0    0  0.62600242675E+02  0.30284178604E+02  0.69599627423E+01  0.10309811500E+03  0.75794844015E+02 0.  0.
          5    1    5    5  501    0 -0.67500162487E+02 -0.15046875938E+02  0.19879822732E+02  0.72110871324E+02  0.47000000000E+01 0. -1.
        -13    1    6    6    0    0  0.27233864737E+02  0.51313960554E+02 -0.93429538835E+01  0.58839584665E+02  0.00000000000E+00 0.  1.
         14    1    6    6    0    0  0.35366377938E+02 -0.21029781949E+02  0.16302916626E+02  0.44258530339E+02  0.00000000000E+00 0. -1.
         -5    1    3    3    0  503 -0.48737591152E+02  0.37364535676E+02 -0.11826152241E+02  0.62716897200E+02  0.47000000000E+01 0.  1.
         11    1    4    4    0    0  0.51110236202E+02 -0.16692227847E+02 -0.61840733981E+02  0.81946098714E+02  0.00000000000E+00 0. -1.
        -12    1    4    4    0    0  0.25272747614E+01 -0.35909610496E+02  0.14109969063E+02  0.38664951450E+02  0.00000000000E+00 0.  1.
</event>
<event>
12    1  0.1597826E-001  0.2323426E+03  0.7818608E-02  0.1125642E+00
         21   -1    0    0  503  502  0.00000000000E+00  0.00000000000E+00  0.15006906657E+04  0.15006906657E+04  0.00000000000E+00 0.  1.
         21   -1    0    0  501  503 -0.00000000000E+00 -0.00000000000E+00 -0.58257035968E+02  0.58257035968E+02  0.00000000000E+00 0. -1.
          6    2    1    2  501    0 -0.12703757438E+03  0.80565685094E+02  0.23654893296E+03  0.33156969970E+03  0.17706974093E+03 0.  0.
         24    2    3    3    0    0 -0.12368776850E+03  0.26617380688E+01  0.18921994556E+03  0.24023312865E+03  0.81252811509E+02 0.  0.
         -6    2    1    2    0  502  0.12703757438E+03 -0.80565685094E+02  0.12058846968E+04  0.12273780020E+04  0.17224831756E+03 0.  0.
        -24    2    5    5    0    0  0.96427345372E+02  0.60598196624E+01  0.51647567347E+03  0.53185815639E+03  0.82407662753E+02 0.  0.
          5    1    3    3  501    0 -0.33498058827E+01  0.77903947026E+02  0.47328987399E+02  0.91336571042E+02  0.47000000000E+01 0. -1.
        -11    1    4    4    0    0 -0.12638318953E+03 -0.12543804632E+02  0.14179476809E+03  0.19035706945E+03  0.00000000000E+00 0.  1.
         12    1    4    4    0    0  0.26954210368E+01  0.15205542701E+02  0.47425177472E+02  0.49876059203E+02  0.00000000000E+00 0. -1.
         -5    1    5    5    0  502  0.30610229008E+02 -0.86625504757E+02  0.68940902330E+03  0.69551984558E+03  0.47000000000E+01 0.  1.
         13    1    6    6    0    0  0.75521461971E+02  0.29350581839E+02  0.46183817159E+03  0.46889171949E+03  0.00000000000E+00 0. -1.
        -14    1    6    6    0    0  0.20905883401E+02 -0.23290762176E+02  0.54637501887E+02  0.62966436901E+02  0.00000000000E+00 0.  1.
</event>
<event>
12    1  0.1597826E-001  0.2408565E+03  0.7818608E-02  0.1119250E+00
         21   -1    0    0  501  502  0.00000000000E+00  0.00000000000E+00  0.15237232919E+03  0.15237232919E+03  0.00000000000E+00 0. -1.
         21   -1    0    0  502  503 -0.00000000000E+00 -0.00000000000E+00 -0.13446366920E+04  0.13446366920E+04  0.00000000000E+00 0. -1.
         -6    2    1    2    0  503  0.15423491243E+03 -0.68619707258E+02 -0.12298981186E+04  0.12532301105E+04  0.17157871490E+03 0.  0.
        -24    2    3    3    0    0  0.15097774252E+03 -0.87080611090E+02 -0.12079099217E+04  0.12239558056E+04  0.92973779086E+02 0.  0.
          6    2    1    2  501    0 -0.15423491243E+03  0.68619707258E+02  0.37633755761E+02  0.24377891068E+03  0.17179867660E+03 0.  0.
         24    2    5    5    0    0 -0.17937274051E+03  0.80856542548E+02  0.31657775222E+02  0.21480559741E+03  0.80167758082E+02 0.  0.
          5    1    5    5  501    0  0.25137828078E+02 -0.12236835290E+02  0.59759805391E+01  0.28973313269E+02  0.47000000000E+01 0. -1.
        -13    1    6    6    0    0 -0.53902864567E+02  0.45638551814E+02 -0.21847498828E+02  0.73930436393E+02  0.00000000000E+00 0.  1.
         14    1    6    6    0    0 -0.12546987594E+03  0.35217990733E+02  0.53505274050E+02  0.14087516102E+03  0.00000000000E+00 0. -1.
         -5    1    3    3    0  503  0.32571699073E+01  0.18460903832E+02 -0.21988196894E+02  0.29274304924E+02  0.47000000000E+01 0.  1.
         11    1    4    4    0    0  0.14595234241E+03 -0.61371802566E+02 -0.81895773874E+03  0.83412251033E+03  0.00000000000E+00 0. -1.
        -12    1    4    4    0    0  0.50254001163E+01 -0.25708808524E+02 -0.38895218293E+03  0.38983329526E+03  0.00000000000E+00 0.  1.
</event>
<event>
12    1  0.1597826E-001  0.1739555E+03  0.7818608E-02  0.1174473E+00
         21   -1    0    0  503  502  0.00000000000E+00  0.00000000000E+00  0.19083006585E+03  0.19083006585E+03  0.00000000000E+00 0.  1.
         21   -1    0    0  501  503 -0.00000000000E+00 -0.00000000000E+00 -0.16601321878E+03  0.16601321878E+03  0.00000000000E+00 0.  1.
          6    2    1    2  501    0 -0.53678837507E+01 -0.10978731799E+02  0.56051331097E+02  0.18276284639E+03  0.17352567411E+03 0.  0.
         24    2    3    3    0    0 -0.14641014606E+02  0.60554017564E+02  0.30059635567E+02  0.10594759124E+03  0.80250620225E+02 0.  0.
         -6    2    1    2    0  502  0.53678837507E+01  0.10978731799E+02 -0.31234484021E+02  0.17408043825E+03  0.17081879071E+03 0.  0.
        -24    2    5    5    0    0 -0.10766971615E+02  0.76867702100E+02 -0.38880855240E+02  0.10565349211E+03  0.60219333994E+02 0.  0.
          5    1    3    3  501    0  0.92731308556E+01 -0.71532749363E+02  0.25991695530E+02  0.76815255150E+02  0.47000000000E+01 0. -1.
        -13    1    4    4    0    0  0.15989449853E+02 -0.97500078350E+01 -0.79650614584E+01  0.20351102265E+02  0.00000000000E+00 0.  1.
         14    1    4    4    0    0 -0.30630464459E+02  0.70304025399E+02  0.38024697025E+02  0.85596488971E+02  0.00000000000E+00 0. -1.
         -5    1    5    5    0  502  0.16134855366E+02 -0.65888970301E+02  0.76463712189E+01  0.68426946138E+02  0.47000000000E+01 0.  1.
         13    1    6    6    0    0  0.23738080532E+02  0.21356525744E+02 -0.19768774806E+02  0.37555320749E+02  0.00000000000E+00 0. -1.
        -14    1    6    6    0    0 -0.34505052147E+02  0.55511176355E+02 -0.19112080435E+02  0.68098171360E+02  0.00000000000E+00 0.  1.
</event>
<event>
12    1  0.1597826E-001  0.3164622E+03  0.7818608E-02  0.1077378E+00
         21   -1    0    0  503  502  0.00000000000E+00  0.00000000000E+00  0.65694133014E+02  0.65694133014E+02  0.00000000000E+00 0. -1.
         21   -1    0    0  501  503 -0.00000000000E+00 -0.00000000000E+00 -0.20866564371E+04  0.20866564371E+04  0.00000000000E+00 0.  1.
          6    2    1    2  501    0  0.24170490314E+03  0.10970902251E+03 -0.15717896263E+04  0.16033312097E+04  0.17231079115E+03 0.  0.
         24    2    3    3    0    0  0.51322299746E+02  0.24415460228E+01 -0.56694493335E+03  0.57498944054E+03  0.80909577235E+02 0.  0.
         -6    2    1    2    0  502 -0.24170490314E+03 -0.10970902251E+03 -0.44917267777E+03  0.54901936042E+03  0.17090592103E+03 0.  0.
        -24    2    5    5    0    0 -0.22984116735E+03 -0.13434890781E+03 -0.43864009478E+03  0.51933944332E+03  0.80198088547E+02 0.  0.
          5    1    3    3  501    0  0.19038260339E+03  0.10726747648E+03 -0.10048446930E+04  0.10283417692E+04  0.47000000000E+01 0. -1.
        -11    1    4    4    0    0 -0.66666922194E+01  0.36432057517E+01 -0.35972390109E+03  0.35980411719E+03  0.00000000000E+00 0.  1.
         12    1    4    4    0    0  0.57988991965E+02 -0.12016597288E+01 -0.20722103226E+03  0.21518532336E+03  0.00000000000E+00 0. -1.
         -5    1    5    5    0  502 -0.11863735790E+02  0.24639885303E+02 -0.10532582991E+02  0.29679917100E+02  0.47000000000E+01 0.  1.
         11    1    6    6    0    0 -0.29622759212E+02  0.86330208290E+01 -0.35305302912E+02  0.46888178955E+02  0.00000000000E+00 0. -1.
        -12    1    6    6    0    0 -0.20021840814E+03 -0.14298192864E+03 -0.40333479186E+03  0.47245126437E+03  0.00000000000E+00 0.  1.
</event>
<event>
12    1  0.1597826E-001  0.2088984E+03  0.7818608E-02  0.1143594E+00
         21   -1    0    0  503  502  0.00000000000E+00  0.00000000000E+00  0.59819432052E+03  0.59819432052E+03  0.00000000000E+00 0. -1.
         21   -1    0    0  501  503 -0.00000000000E+00 -0.00000000000E+00 -0.22557823874E+03  0.22557823874E+03  0.00000000000E+00 0. -1.
          6    2    1    2  501    0 -0.72790271200E+02  0.81509394106E+02 -0.15385937092E+03  0.25944407432E+03  0.17803459431E+03 0.  0.
         24    2    3    3    0    0 -0.56106758622E+01  0.10095575436E+02 -0.42302158671E+01  0.80491551093E+02  0.79546179946E+02 0.  0.
         -6    2    1    2    0  502  0.72790271200E+02 -0.81509394106E+02  0.52647545270E+03  0.56432848494E+03  0.17131267236E+03 0.  0.
        -24    2    5    5    0    0 -0.18038674192E+01 -0.65295039450E+01  0.12555777356E+03  0.14966796729E+03  0.81177937732E+02 0.  0.
          5    1    3    3  501    0 -0.67179595338E+02  0.71413818670E+02 -0.14962915505E+03  0.17895252322E+03  0.47000000000E+01 0. -1.
        -11    1    4    4    0    0 -0.18762566160E+02 -0.31514683891E+02 -0.33299464908E+00  0.36678605141E+02  0.00000000000E+00 0.  1.
         12    1    4    4    0    0  0.13151890297E+02  0.41610259328E+02 -0.38972212180E+01  0.43812945951E+02  0.00000000000E+00 0. -1.
         -5    1    5    5    0  502  0.74594138619E+02 -0.74979890161E+02  0.40091767914E+03  0.41466051765E+03  0.47000000000E+01 0.  1.
         13    1    6    6    0    0 -0.63919861677E+01 -0.20578828453E+02  0.13185397684E+03  0.13360320684E+03  0.00000000000E+00 0. -1.
        -14    1    6    6    0    0  0.45881187486E+01  0.14049324508E+02 -0.62962032868E+01  0.16064760459E+02  0.00000000000E+00 0.  1.
</event>
<event>
12    1  0.1597826E-001  0.2690777E+03  0.7818608E-02  0.1102070E+00
         21   -1    0    0  501  502  0.00000000000E+00  0.00000000000E+00  0.46994100647E+02  0.46994100647E+02  0.00000000000E+00 0. -1.
         21   -1    0    0  502  503 -0.00000000000E+00 -0.00000000000E+00 -0.16794159608E+04  0.16794159608E+04  0.00000000000E+00 0.  1.
         -6    2    1    2    0  503 -0.15010207547E+03 -0.14009012651E+03 -0.10759013715E+04  0.11090385722E+04  0.17391640715E+03 0.  0.
        -24    2    3    3    0    0 -0.35563616617E+02 -0.12438960516E+03 -0.57360421443E+03  0.59358722727E+03  0.81156988973E+02 0.  0.
          6    2    1    2  501    0  0.15010207547E+03  0.14009012651E+03 -0.55652048859E+03  0.61737148925E+03  0.17110413471E+03 0.  0.
         24    2    5    5    0    0  0.32154034680E+02  0.11962717282E+03 -0.30050623153E+03  0.33471292735E+03  0.79901227285E+02 0.  0.
          5    1    5    5  501    0  0.11794804079E+03  0.20462953685E+02 -0.25601425705E+03  0.28265856190E+03  0.47000000000E+01 0. -1.
        -13    1    6    6    0    0  0.57461026315E+02  0.69332384273E+02 -0.20386327813E+03  0.22286539710E+03  0.00000000000E+00 0.  1.
         14    1    6    6    0    0 -0.25306991635E+02  0.50294788551E+02 -0.96642953403E+02  0.11184753025E+03  0.00000000000E+00 0. -1.
         -5    1    3    3    0  503 -0.11453845885E+03 -0.15700521350E+02 -0.50229715709E+03  0.51545134488E+03  0.47000000000E+01 0.  1.
         11    1    4    4    0    0 -0.53976117600E+02 -0.12282904029E+03 -0.51013231406E+03  0.52748021030E+03  0.00000000000E+00 0. -1.
        -12    1    4    4    0    0  0.18412500983E+02 -0.15605648687E+01 -0.63471900374E+02  0.66107016967E+02  0.00000000000E+00 0.  1.
</event>
<event>
12    1  0.1597826E-001  0.2077756E+03  0.7818608E-02  0.1143449E+00
         21   -1    0    0  503  502  0.00000000000E+00  0.00000000000E+00  0.12046446983E+04  0.12046446983E+04  0.00000000000E+00 0.  1.
         21   -1    0    0  501  503 -0.00000000000E+00 -0.00000000000E+00 -0.52175489832E+02  0.52175489832E+02  0.00000000000E+00 0.  1.
          6    2    1    2  501    0 -0.68134419911E+02 -0.93445007190E+02  0.22408732780E+03  0.30559097410E+03  0.17261646626E+03 0.  0.
         24    2    3    3    0    0  0.73422768934E+01 -0.84249112901E+02  0.77193880256E+02  0.14011870705E+03  0.80762211837E+02 0.  0.
         -6    2    1    2    0  502  0.68134419911E+02  0.93445007190E+02  0.92838188071E+03  0.95122921408E+03  0.17195881116E+03 0.  0.
        -24    2    5    5    0    0  0.57253047395E+00  0.84280941192E+02  0.77036912149E+03  0.77907024368E+03  0.79863986944E+02 0.  0.
          5    1    3    3  501    0 -0.75476696804E+02 -0.91958942895E+01  0.14689344755E+03  0.16547226706E+03  0.47000000000E+01 0. -1.
        -13    1    4    4    0    0 -0.15242815644E+02 -0.87191745684E+02  0.77035322746E+02  0.11734217015E+03  0.00000000000E+00 0.  1.
         14    1    4    4    0    0  0.22585092538E+02  0.29426327832E+01  0.15855750948E+00  0.22776536899E+02  0.00000000000E+00 0. -1.
         -5    1    5    5    0  502  0.67561889437E+02  0.91640659975E+01  0.15801275922E+03  0.17215897040E+03  0.47000000000E+01 0.  1.
         11    1    6    6    0    0  0.89765616727E+01  0.57649043101E+01  0.10033734841E+02  0.14645429869E+02  0.00000000000E+00 0. -1.
        -12    1    6    6    0    0 -0.84040311988E+01  0.78516036882E+02  0.76033538664E+03  0.76442481381E+03  0.00000000000E+00 0.  1.
</event>
<event>
12    1  0.1597826E-001  0.2017379E+03  0.7818608E-02  0.1148292E+00
         21   -1    0    0  503  502  0.00000000000E+00  0.00000000000E+00  0.32359253993E+03  0.32359253993E+03  0.00000000000E+00 0. -1.
         21   -1    0    0  501  503 -0.00000000000E+00 -0.00000000000E+00 -0.28711884112E+03  0.28711884112E+03  0.00000000000E+00 0. -1.
          6    2    1    2  501    0  0.23121137711E+02 -0.10319822070E+03 -0.21069320727E+03  0.29166646437E+03  0.17173595746E+03 0.  0.
         24    2    3    3    0    0 -0.15041977562E+02 -0.31131412807E+02 -0.29281916646E+02  0.92713719903E+02  0.80888672034E+02 0.  0.
         -6    2    1    2    0  502 -0.23121137711E+02  0.10319822070E+03  0.24716690607E+03  0.31904491667E+03  0.17179557512E+03 0.  0.
        -24    2    5    5    0    0 -0.14758171645E+02  0.79384176160E+02  0.26483746389E+03  0.28787784218E+03  0.78836024036E+02 0.  0.
          5    1    3    3  501    0  0.38163115272E+02 -0.72066807898E+02 -0.18141129062E+03  0.19895274447E+03  0.47000000000E+01 0. -1.
        -11    1    4    4    0    0  0.30577663740E+02  0.15838047134E+01 -0.17790698275E+02  0.35412016354E+02  0.00000000000E+00 0.  1.
         12    1    4    4    0    0 -0.45619641302E+02 -0.32715217520E+02 -0.11491218371E+02  0.57301703548E+02  0.00000000000E+00 0. -1.
         -5    1    5    5    0  502 -0.83629660660E+01  0.23814044545E+02 -0.17670557814E+02  0.31167074493E+02  0.47000000000E+01 0.  1.
         13    1    6    6    0    0  0.25221900579E+02  0.30779423219E+02  0.16600890703E+03  0.17071167030E+03  0.00000000000E+00 0. -1.
        -14    1    6    6    0    0 -0.39980072223E+02  0.48604752940E+02  0.98828556858E+02  0.11716617188E+03  0.00000000000E+00 0.  1.
</event>
<event>
12    1  0.1597826E-001  0.2139633E+03  0.7818608E-02  0.1138607E+00
         21   -1    0    0  501  502  0.00000000000E+00  0.00000000000E+00  0.19726410457E+04  0.19726410457E+04  0.00000000000E+00 0.  1.
         21   -1    0    0  502  503 -0.00000000000E+00 -0.00000000000E+00 -0.29830744749E+02  0.29830744749E+02  0.00000000000E+00 0. -1.
         -6    2    1    2    0  503  0.56798536433E+02 -0.11143594209E+03  0.49810775364E+03  0.54211772668E+03  0.17359796201E+03 0.  0.
        -24    2    3    3    0    0 -0.31654006449E+02 -0.84041868196E+02  0.25602681029E+03  0.28288894595E+03  0.80071320821E+02 0.  0.
          6    2    1    2  501    0 -0.56798536433E+02  0.11143594209E+03  0.14447025473E+04  0.14603540638E+04  0.17269770823E+03 0.  0.
         24    2    5    5    0    0 -0.42434025469E+02  0.58641425315E+02  0.13187374916E+04  0.13229390520E+04  0.76548680599E+02 0.  0.
          5    1    5    5  501    0 -0.14364510964E+02  0.52794516776E+02  0.12596505578E+03  0.13741501175E+03  0.47000000000E+01 0. -1.
        -11    1    6    6    0    0 -0.55746795452E+01  0.75463345142E+01  0.84250276667E+03  0.84255500477E+03  0.00000000000E+00 0.  1.
         12    1    6    6    0    0 -0.36859345924E+02  0.51095090801E+02  0.47623472489E+03  0.48038404727E+03  0.00000000000E+00 0. -1.
         -5    1    3    3    0  503  0.88452542882E+02 -0.27394073895E+02  0.24208094335E+03  0.25922878073E+03  0.47000000000E+01 0.  1.
         11    1    4    4    0    0  0.24640534711E+02 -0.85811582500E+01  0.51391161749E+02  0.57635438175E+02  0.00000000000E+00 0. -1.
        -12    1    4    4    0    0 -0.56294541160E+02 -0.75460709946E+02  0.20463564854E+03  0.22525350777E+03  0.00000000000E+00 0.  1.
</event>
<event>
12    1  0.1597826E-001  0.2348049E+03  0.7818608E-02  0.1123368E+00
         21   -1    0    0  503  502  0.00000000000E+00  0.00000000000E+00  0.15917013550E+03  0.15917013550E+03  0.00000000000E+00 0.  1.
         21   -1    0    0  501  503 -0.00000000000E+00 -0.00000000000E+00 -0.38818874858E+03  0.38818874858E+03  0.00000000000E+00 0.  1.
          6    2    1    2  501    0  0.10503824516E+03  0.11962339816E+03 -0.20484250628E+03  0.31131267677E+03  0.17208236403E+03 0.  0.
         24    2    3    3    0    0  0.76134721369E+01  0.10432659101E+02 -0.10936397630E+03  0.13652010376E+03  0.80687384912E+02 0.  0.
         -6    2    1    2    0  502 -0.10503824516E+03 -0.11962339816E+03 -0.24176106798E+02  0.23604620730E+03  0.17259935547E+03 0.  0.
        -24    2    5    5    0    0 -0.42776736789E+02 -0.14046517704E+03 -0.12755462621E+02  0.16923755304E+03  0.83176513276E+02 0.  0.
          5    1    3    3  501    0  0.97424773024E+02  0.10919073906E+03 -0.95478529972E+02  0.17479257301E+03  0.47000000000E+01 0. -1.
        -13    1    4    4    0    0  0.40924204232E+02  0.21835025097E+02 -0.58465924932E+02  0.74631248088E+02  0.00000000000E+00 0.  1.
         14    1    4    4    0    0 -0.33310732095E+02 -0.11402365996E+02 -0.50898051372E+02  0.61888855673E+02  0.00000000000E+00 0. -1.
         -5    1    5    5    0  502 -0.62261508372E+02  0.20841778880E+02 -0.11420644176E+02  0.66808654268E+02  0.47000000000E+01 0.  1.
         13    1    6    6    0    0 -0.16624994092E+02 -0.55580552133E+02  0.35640308026E+02  0.68086854533E+02  0.00000000000E+00 0. -1.
        -14    1    6    6    0    0 -0.26151742697E+02 -0.84884624904E+02 -0.48395770648E+02  0.10115069850E+03  0.00000000000E+00 0.  1.
</event>
<event>
12    1  0.1597826E-001  0.2552436E+03  0.7818608E-02  0.1110276E+00
         21   -1    0    0  503  502  0.00000000000E+00  0.00000000000E+00  0.75810033548E+03  0.75810033548E+03  0.00000000000E+00 0.  1.
         21   -1    0    0  501  503 -0.00000000000E+00 -0.00000000000E+00 -0.10020123294E+03  0.10020123294E+03  0.00000000000E+00 0.  1.
          6    2    1    2  501    0  0.15491549872E+03 -0.10319391461E+03  0.16493913190E+03  0.30389836219E+03  0.17464679084E+03 0.  0.
         24    2    3    3    0    0  0.16891025521E+03 -0.54353117805E+02  0.91593254788E+02  0.21455081420E+03  0.78471598803E+02 0.  0.
         -6    2    1    2    0  502 -0.15491549872E+03  0.10319391461E+03  0.49295997064E+03  0.55440320623E+03  0.17235308722E+03 0.  0.
        -24    2    5    5    0    0 -0.43499253104E+02 -0.29297138360E+01  0.25599531285E+03  0.27182552958E+03  0.80341459326E+02 0.  0.
          5    1    3    3  501    0 -0.13994756496E+02 -0.48840796808E+02  0.73345877113E+02  0.89347547989E+02  0.47000000000E+01 0. -1.
        -13    1    4    4    0    0  0.10579850641E+03 -0.70747830428E+02  0.73100310379E+02  0.14677273196E+03  0.00000000000E+00 0.  1.
         14    1    4    4    0    0  0.63111748806E+02  0.16394712624E+02  0.18492944408E+02  0.67778082241E+02  0.00000000000E+00 0. -1.
         -5    1    5    5    0  502 -0.11141624561E+03  0.10612362845E+03  0.23696465779E+03  0.28257767665E+03  0.47000000000E+01 0.  1.
         11    1    6    6    0    0 -0.63408396739E+02  0.20698246826E+01  0.23061900298E+03  0.23918619000E+03  0.00000000000E+00 0. -1.
        -12    1    6    6    0    0  0.19909143635E+02 -0.49995385186E+01  0.25376309873E+02  0.32639339583E+02  0.00000000000E+00 0.  1.
</event>
<event>
12    1  0.1597826E-001  0.2138565E+03  0.7818608E-02  0.1139514E+00
         21   -1    0    0  501  502  0.00000000000E+00  0.00000000000E+00  0.89181460280E+02  0.89181460280E+02  0.00000000000E+00 0. -1.
         21   -1    0    0  502  503 -0.00000000000E+00 -0.00000000000E+00 -0.54260552802E+03  0.54260552802E+03  0.00000000000E+00 0. -1.
         -6    2    1    2    0  503 -0.71424582849E+02  0.10096531794E+03 -0.31655806663E+03  0.38202566600E+03  0.17446814459E+03 0.  0.
        -24    2    3    3    0    0  0.30690853097E+02  0.34958673346E+02 -0.13852691968E+03  0.16638332630E+03  0.79559201158E+02 0.  0.
          6    2    1    2  501    0  0.71424582849E+02 -0.10096531794E+03 -0.13686600112E+03  0.24976132230E+03  0.16838334061E+03 0.  0.
         24    2    5    5    0    0  0.85864000905E+02 -0.24877042263E+02 -0.36288957233E+02  0.12273473356E+03  0.75864566979E+02 0.  0.
          5    1    5    5  501    0 -0.14439418057E+02 -0.76088275679E+02 -0.10057704388E+03  0.12702658874E+03  0.47000000000E+01 0. -1.
        -13    1    6    6    0    0 -0.32746007562E+01 -0.22616726458E+02 -0.23282578915E+02  0.32623883993E+02  0.00000000000E+00 0.  1.
         14    1    6    6    0    0  0.89138601661E+02 -0.22603158044E+01 -0.13006378317E+02  0.90110849572E+02  0.00000000000E+00 0. -1.
         -5    1    3    3    0  503 -0.10211543595E+03  0.66006644596E+02 -0.17803114694E+03  0.21564233970E+03  0.47000000000E+01 0.  1.
         13    1    4    4    0    0 -0.23103184377E+02 -0.63033051416E+01 -0.29503076399E+02  0.37998951316E+02  0.00000000000E+00 0. -1.
        -14    1    4    4    0    0  0.53794037474E+02  0.41261978487E+02 -0.10902384328E+03  0.12838437499E+03  0.00000000000E+00 0.  1.
</event>
<event>
12    1  0.1597826E-001  0.2342047E+03  0.7818608E-02  0.1123966E+00
         21   -1    0    0  501  502  0.00000000000E+00  0.00000000000E+00  0.34054342950E+03  0.34054342950E+03  0.00000000000E+00 0. -1.
         21   -1    0    0  502  503 -0.00000000000E+00 -0.00000000000E+00 -0.23948181861E+03  0.23948181861E+03  0.00000000000E+00 0.  1.
         -6    2    1    2    0  503  0.14055312545E+03  0.69481209533E+02 -0.11636369787E+03  0.26151933091E+03  0.17397997213E+03 0.  0.
        -24    2    3    3    0    0  0.63322795553E+02  0.86848360480E+02 -0.17546783569E+02  0.13481884022E+03  0.79472107747E+02 0.  0.
          6    2    1    2  501    0 -0.14055312545E+03 -0.69481209533E+02  0.21742530876E+03  0.31850591721E+03  0.17201579828E+03 0.  0.
         24    2    5    5    0    0 -0.20708968124E+02  0.48535183320E+01  0.12749394698E+03  0.15117984738E+03  0.78410597097E+02 0.  0.
          5    1    5    5  501    0 -0.11984415733E+03 -0.74334727865E+02  0.89931361779E+02  0.16732606983E+03  0.47000000000E+01 0. -1.
        -11    1    6    6    0    0 -0.25636521493E+01 -0.22243043680E+02  0.31260151116E+01  0.22607460604E+02  0.00000000000E+00 0.  1.
         12    1    6    6    0    0 -0.18145315975E+02  0.27096562012E+02  0.12436793187E+03  0.12857238678E+03  0.00000000000E+00 0. -1.
         -5    1    3    3    0  503  0.77230329899E+02 -0.17367150947E+02 -0.98816914301E+02  0.12670049069E+03  0.47000000000E+01 0.  1.
         13    1    4    4    0    0 -0.19077359828E+02  0.15084730743E+02 -0.13783017031E+01  0.24359689554E+02  0.00000000000E+00 0. -1.
        -14    1    4    4    0    0  0.82400155381E+02  0.71763629737E+02 -0.16168481866E+02  0.11045915066E+03  0.00000000000E+00 0.  1.
</event>
<event>
12    1  0.1597826E-001  0.2555778E+03  0.7818608E-02  0.1110058E+00
         21   -1    0    0  503  502  0.00000000000E+00  0.00000000000E+00  0.84494682326E+02  0.84494682326E+02  0.00000000000E+00 0.  1.
         21   -1    0    0  501  503 -0.00000000000E+00 -0.00000000000E+00 -0.11265412830E+04  0.11265412830E+04  0.00000000000E+00 0. -1.
          6    2    1    2  501    0  0.13693943904E+03  0.13101055052E+03 -0.86337704707E+03  0.90041098433E+03  0.17147548216E+03 0.  0.
         24    2    3    3    0    0  0.64161105349E+02  0.14708237451E+03 -0.55541630710E+03  0.58352473227E+03  0.79145225039E+02 0.  0.
         -6    2    1    2    0  502 -0.13693943904E+03 -0.13101055052E+03 -0.17866955356E+03  0.31062498095E+03  0.16925984495E+03 0.  0.
        -24    2    5    5    0    0 -0.87686111111E+02 -0.11159804680E+02 -0.58386496326E+02  0.13376290066E+03  0.81670896387E+02 0.  0.
          5    1    3    3  501    0  0.72778333691E+02 -0.16071823992E+02 -0.30796073997E+03  0.31688625205E+03  0.47000000000E+01 0. -1.
        -13    1    4    4    0    0  0.48612191957E+02  0.15333432647E+03 -0.52061205711E+03  0.54489583857E+03  0.00000000000E+00 0.  1.
         14    1    4    4    0    0  0.15548913392E+02 -0.62519519669E+01 -0.34804249991E+02  0.38628893700E+02  0.00000000000E+00 0. -1.
         -5    1    5    5    0  502 -0.49253327929E+02 -0.11985074583E+03 -0.12028305723E+03  0.17686208030E+03  0.47000000000E+01 0.  1.
         13    1    6    6    0    0 -0.19313735977E+02  0.17563925297E+02  0.14431187532E+02  0.29829030202E+02  0.00000000000E+00 0. -1.
        -14    1    6    6    0    0 -0.68372375133E+02 -0.28723729977E+02 -0.72817683858E+02  0.10393387045E+03  0.00000000000E+00 0.  1.
</event>
<event>
12    1  0.1597826E-001  0.4326956E+03  0.7818608E-02  0.1033168E+00
         21   -1    0    0  503  502  0.00000000000E+00  0.00000000000E+00  0.19891512382E+04  0.19891512382E+04  0.00000000000E+00 0.  1.
         21   -1    0    0  501  503 -0.00000000000E+00 -0.00000000000E+00 -0.93983383750E+02  0.93983383750E+02  0.00000000000E+00 0.  1.
          6    2    1    2  501    0 -0.47810650465E+02  0.39328670657E+03  0.10033879426E+04  0.10919248005E+04  0.16897371025E+03 0.  0.
         24    2    3    3    0    0 -0.96350940977E+02  0.26574109304E+03  0.65918642770E+03  0.72162652048E+03  0.79474878051E+02 0.  0.
         -6    2    1    2    0  502  0.47810650465E+02 -0.39328670657E+03  0.89177991185E+03  0.99120982144E+03  0.17396898308E+03 0.  0.
        -24    2    5    5    0    0  0.39064067323E+02 -0.39708711816E+03  0.78322469948E+03  0.88213521405E+03  0.74279372789E+02 0.  0.
          5    1    3    3  501    0  0.48540290512E+02  0.12754561354E+03  0.34420151493E+03  0.37029828006E+03  0.47000000000E+01 0. -1.
        -11    1    4    4    0    0 -0.22617621435E+02  0.16597871725E+03  0.33580200828E+03  0.37526454688E+03  0.00000000000E+00 0.  1.
         12    1    4    4    0    0 -0.73733319542E+02  0.99762375786E+02  0.32338441942E+03  0.34636197361E+03  0.00000000000E+00 0. -1.
         -5    1    5    5    0  502  0.87465831418E+01  0.38004115911E+01  0.10855521236E+03  0.10907460739E+03  0.47000000000E+01 0.  1.
         11    1    6    6    0    0  0.88257453162E+01 -0.61286400185E+01  0.80557856989E+01  0.13429433796E+02  0.00000000000E+00 0. -1.
        -12    1    6    6    0    0  0.30238322007E+02 -0.39095847814E+03  0.77516891378E+03  0.86870578026E+03  0.00000000000E+00 0.  1.
</event>
<event>
12    1  0.1597826E-001  0.2395796E+03  0.7818608E-02  0.1120109E+00
         21   -1    0    0  503  502  0.00000000000E+00  0.00000000000E+00  0.74061341081E+03  0.74061341081E+03  0.00000000000E+00 0.  1.
         21   -1    0    0  501  503 -0.00000000000E+00 -0.00000000000E+00 -0.92264140555E+02  0.92264140555E+02  0.00000000000E+00 0. -1.
          6    2    1    2  501    0  0.60560075410E+02  0.15525912871E+03  0.15732776513E+03  0.28661890445E+03  0.17212045470E+03 0.  0.
         24    2    3    3    0    0  0.22802974279E+02  0.17474820174E+03  0.10873581361E+03  0.22189881170E+03  0.79741431035E+02 0.  0.
         -6    2    1    2    0  502 -0.60560075410E+02 -0.15525912871E+03  0.49102150513E+03  0.54625864692E+03  0.17182395366E+03 0.  0.
        -24    2    5    5    0    0 -0.10020860227E+03 -0.70504265497E+02  0.29350668060E+03  0.32765034783E+03  0.78714442483E+02 0.  0.
          5    1    3    3  501    0  0.37757101131E+02 -0.19489073033E+02  0.48591951516E+02  0.64720092750E+02  0.47000000000E+01 0. -1.
        -13    1    4    4    0    0 -0.17367309675E+02  0.46037467773E+02  0.62094060819E+02  0.79225906579E+02  0.00000000000E+00 0.  1.
         14    1    4    4    0    0  0.40170283954E+02  0.12871073397E+03  0.46641752795E+02  0.14267290512E+03  0.00000000000E+00 0. -1.
         -5    1    5    5    0  502  0.39648526860E+02 -0.84754863213E+02  0.19751482453E+03  0.21860829908E+03  0.47000000000E+01 0.  1.
         13    1    6    6    0    0 -0.42922095031E+02 -0.74320303094E+02  0.14589890567E+03  0.16926991573E+03  0.00000000000E+00 0. -1.
        -14    1    6    6    0    0 -0.57286507239E+02  0.38160375973E+01  0.14760777493E+03  0.15838043211E+03  0.00000000000E+00 0.  1.
</event>
<event>
12    1  0.1597826E-001  0.2491854E+03  0.7818608E-02  0.1113892E+00
         21   -1    0    0  503  502  0.00000000000E+00  0.00000000000E+00  0.37666125327E+02  0.37666125327E+02  0.00000000000E+00 0. -1.
         21   -1    0    0  501  503 -0.00000000000E+00 -0.00000000000E+00 -0.30219637872E+04  0.30219637872E+04  0.00000000000E+00 0. -1.
          6    2    1    2  501    0 -0.14841406255E+03  0.10125638247E+03 -0.25238663100E+04  0.25360934648E+04  0.17201547108E+03 0.  0.
         24    2    3    3    0    0 -0.11070287919E+03  0.12419752249E+03 -0.23264931627E+04  0.23337900330E+04  0.79531941076E+02 0.  0.
         -6    2    1    2    0  502  0.14841406255E+03 -0.10125638247E+03 -0.46043135183E+03  0.52353644773E+03  0.17266671189E+03 0.  0.
        -24    2    5    5    0    0  0.14798752564E+03 -0.11424824547E+03 -0.31277036159E+03  0.37522991221E+03  0.89550089827E+02 0.  0.
          5    1    3    3  501    0 -0.37711183363E+02 -0.22941140021E+02 -0.19737314732E+03  0.20230343186E+03  0.47000000000E+01 0. -1.
        -13    1    4    4    0    0 -0.69323420181E+02  0.61498631342E+02 -0.17457993555E+04  0.17482571915E+04  0.00000000000E+00 0.  1.
         14    1    4    4    0    0 -0.41379459004E+02  0.62698891146E+02 -0.58069380727E+03  0.58553284142E+03  0.00000000000E+00 0. -1.
         -5    1    5    5    0  502  0.42653690388E+00  0.12991863001E+02 -0.14766099024E+03  0.14830653552E+03  0.47000000000E+01 0.  1.
         11    1    6    6    0    0  0.13170122726E+03 -0.80946452527E+02 -0.29724250855E+03  0.33503828188E+03  0.00000000000E+00 0. -1.
        -12    1    6    6    0    0  0.16286298387E+02 -0.33301792941E+02 -0.15527853040E+02  0.40191630326E+02  0.00000000000E+00 0.  1.
</event>
<event>
12    1  0.1597826E-001  0.2483278E+03  0.7818608E-02  0.1114561E+00
         21   -1    0    0  503  502  0.00000000000E+00  0.00000000000E+00  0.61938312941E+03  0.61938312941E+03  0.00000000000E+00 0. -1.
         21   -1    0    0  501  503 -0.00000000000E+00 -0.00000000000E+00 -0.23024995672E+03  0.23024995672E+03  0.00000000000E+00 0. -1.
          6    2    1    2  501    0 -0.12501892300E+03 -0.12635937043E+03 -0.12587530307E+03  0.27840853523E+03  0.17340789763E+03 0.  0.
         24    2    3    3    0    0 -0.28573421512E+01 -0.11837125877E+02 -0.43008793431E+02  0.91518875926E+02  0.79860292920E+02 0.  0.
         -6    2    1    2    0  502  0.12501892300E+03  0.12635937043E+03  0.51500847576E+03  0.57122455091E+03  0.17166052503E+03 0.  0.
        -24    2    5    5    0    0  0.42205170753E+02  0.12824566832E+03  0.39635244522E+03  0.42643843533E+03  0.80785211581E+02 0.  0.
          5    1    3    3  501    0 -0.12216158085E+03 -0.11452224455E+03 -0.82866509639E+02  0.18688965930E+03  0.47000000000E+01 0. -1.
        -11    1    4    4    0    0 -0.36684560403E+02 -0.53020346099E+01 -0.85328016094E+00  0.37075552997E+02  0.00000000000E+00 0.  1.
         12    1    4    4    0    0  0.33827218252E+02 -0.65350912670E+01 -0.42155513270E+02  0.54443322930E+02  0.00000000000E+00 0. -1.
         -5    1    5    5    0  502  0.82813752252E+02 -0.18862978974E+01  0.11865603054E+03  0.14478611558E+03  0.47000000000E+01 0.  1.
         11    1    6    6    0    0  0.50900046052E+02  0.10596345630E+03  0.37920530978E+03  0.39700848319E+03  0.00000000000E+00 0. -1.
        -12    1    6    6    0    0 -0.86948752989E+01  0.22282212022E+02  0.17147135443E+02  0.29429952139E+02  0.00000000000E+00 0.  1.
</event>
<event>
12    1  0.1597826E-001  0.2311244E+03  0.7818608E-02  0.1125865E+00
         21   -1    0    0  503  502  0.00000000000E+00  0.00000000000E+00  0.11476440126E+03  0.11476440126E+03  0.00000000000E+00 0.  1.
         21   -1    0    0  501  503 -0.00000000000E+00 -0.00000000000E+00 -0.61720093484E+03  0.61720093484E+03  0.00000000000E+00 0.  1.
          6    2    1    2  501    0 -0.15255217605E+03  0.24506646170E+02 -0.43281515595E+03  0.49066021269E+03  0.17188875174E+03 0.  0.
         24    2    3    3    0    0 -0.20729101060E+02  0.35204871235E+02 -0.81884992879E+02  0.11560575735E+03  0.70643191351E+02 0.  0.
         -6    2    1    2    0  502  0.15255217605E+03 -0.24506646170E+02 -0.69621377630E+02  0.24130512342E+03  0.17177975503E+03 0.  0.
        -24    2    5    5    0    0  0.47631600712E+02 -0.22615318332E+01  0.27068107312E+02  0.96826340408E+02  0.79804597930E+02 0.  0.
          5    1    3    3  501    0 -0.13182307499E+03 -0.10698225065E+02 -0.35093016307E+03  0.37505445534E+03  0.47000000000E+01 0. -1.
        -11    1    4    4    0    0  0.18348287437E+02  0.31088759941E+02 -0.61567095329E+02  0.71370006822E+02  0.00000000000E+00 0.  1.
         12    1    4    4    0    0 -0.39077388497E+02  0.41161112949E+01 -0.20317897550E+02  0.44235750528E+02  0.00000000000E+00 0. -1.
         -5    1    5    5    0  502  0.10492057534E+03 -0.22245114337E+02 -0.96689484942E+02  0.14447878301E+03  0.47000000000E+01 0.  1.
         13    1    6    6    0    0 -0.15317552577E+02 -0.43373614596E+00 -0.14719173682E+02  0.21247814426E+02  0.00000000000E+00 0. -1.
        -14    1    6    6    0    0  0.62949153288E+02 -0.18277956873E+01  0.41787280994E+02  0.75578525982E+02  0.00000000000E+00 0.  1.
</event>
<event>
12    1  0.1597826E-001  0.2013869E+03  0.7818608E-02  0.1148602E+00
         21   -1    0    0  503  502  0.00000000000E+00  0.00000000000E+00  0.64534186532E+03  0.64534186532E+03  0.00000000000E+00 0.  1.
         21   -1    0    0  501  503 -0.00000000000E+00 -0.00000000000E+00 -0.81924170666E+02  0.81924170666E+02  0.00000000000E+00 0.  1.
          6    2    1    2  501    0  0.70443387894E+02 -0.76157270848E+02  0.10596020375E+03  0.22744201866E+03  0.17245320024E+03 0.  0.
         24    2    3    3    0    0  0.52770162524E+02 -0.10938398014E+03  0.41448967583E+02  0.15260789077E+03  0.82593015725E+02 0.  0.
         -6    2    1    2    0  502 -0.70443387894E+02  0.76157270848E+02  0.45745749091E+03  0.49982401733E+03  0.17261080936E+03 0.  0.
        -24    2    5    5    0    0 -0.31764168710E+02  0.11297446513E+03  0.38035008011E+03  0.40591325867E+03  0.79543685724E+02 0.  0.
          5    1    3    3  501    0  0.17673225370E+02  0.33226709295E+02  0.64511236169E+02  0.74834127894E+02  0.47000000000E+01 0. -1.
        -13    1    4    4    0    0  0.54622580518E+02 -0.33100780204E+02 -0.36457915051E+01  0.63973273703E+02  0.00000000000E+00 0.  1.
         14    1    4    4    0    0 -0.18524179940E+01 -0.76283199939E+02  0.45094759088E+02  0.88634617067E+02  0.00000000000E+00 0. -1.
         -5    1    5    5    0  502 -0.38679219183E+02 -0.36817194285E+02  0.77107410795E+02  0.93910758655E+02  0.47000000000E+01 0.  1.
         13    1    6    6    0    0  0.21354932128E+02  0.90130633038E+01  0.90833451085E+02  0.93744249276E+02  0.00000000000E+00 0. -1.
        -14    1    6    6    0    0 -0.53119100838E+02  0.10396140183E+03  0.28951662903E+03  0.31216900940E+03  0.00000000000E+00 0.  1.
</event>
<event>
12    1  0.1597826E-001  0.2072873E+03  0.7818608E-02  0.1144148E+00
         21   -1    0    0  501  502  0.00000000000E+00  0.00000000000E+00  0.10545596570E+03  0.10545596570E+03  0.00000000000E+00 0.  1.
         21   -1    0    0  502  503 -0.00000000000E+00 -0.00000000000E+00 -0.60996771368E+03  0.60996771368E+03  0.00000000000E+00 0. -1.
         -6    2    1    2    0  503 -0.89390861329E+02  0.77667921420E+02 -0.46124166590E+03  0.50567964938E+03  0.17013230536E+03 0.  0.
        -24    2    3    3    0    0  0.10498140512E+02  0.14049739913E+02 -0.26167894722E+03  0.27357524530E+03  0.77845598954E+02 0.  0.
          6    2    1    2  501    0  0.89390861329E+02 -0.77667921420E+02 -0.43270082077E+02  0.20974403000E+03  0.16762227182E+03 0.  0.
         24    2    5    5    0    0  0.55461303544E+01 -0.27182054018E+02 -0.68266737428E+02  0.10862190335E+03  0.79804428612E+02 0.  0.
          5    1    5    5  501    0  0.83844730974E+02 -0.50485867402E+02  0.24996655350E+02  0.10112212665E+03  0.47000000000E+01 0. -1.
        -13    1    6    6    0    0  0.19089087836E+02 -0.18373678639E+00  0.12211924072E+02  0.22661820827E+02  0.00000000000E+00 0.  1.
         14    1    6    6    0    0 -0.13542957482E+02 -0.26998317232E+02 -0.80478661500E+02  0.85960082524E+02  0.00000000000E+00 0. -1.
         -5    1    3    3    0  503 -0.99889001840E+02  0.63618181507E+02 -0.19956271868E+03  0.23210440408E+03  0.47000000000E+01 0.  1.
         11    1    4    4    0    0  0.13770941622E+01 -0.14915168187E+02 -0.22694360080E+03  0.22743736847E+03  0.00000000000E+00 0. -1.
        -12    1    4    4    0    0  0.91210463493E+01  0.28964908100E+02 -0.34735346418E+02  0.46137876831E+02  0.00000000000E+00 0.  1.
</event>
<event>
12    1  0.1597826E-001  0.2044033E+03  0.7818608E-02  0.1146527E+00
         21   -1    0    0  503  502  0.00000000000E+00  0.00000000000E+00  0.92746603633E+02  0.92746603633E+02  0.00000000000E+00 0. -1.
         21   -1    0    0  501  503 -0.00000000000E+00 -0.00000000000E+00 -0.75317114203E+03  0.75317114203E+03  0.00000000000E+00 0.  1.
          6    2    1    2  501    0 -0.10666332357E+03 -0.20413782517E+01 -0.59941144627E+03  0.63260266298E+03  0.17178712255E+03 0.  0.
         24    2    3    3    0    0  0.10174543189E+02 -0.17318645863E+02 -0.29515856689E+03  0.30629546627E+03  0.79340256028E+02 0.  0.
         -6    2    1    2    0  502  0.10666332357E+03  0.20413782517E+01 -0.61013092132E+02  0.21331508268E+03  0.17435451032E+03 0.  0.
        -24    2    5    5    0    0  0.12724161405E+02  0.55083364324E+02 -0.20479530268E+02  0.97976112197E+02  0.77355194347E+02 0.  0.
          5    1    3    3  501    0 -0.11683786676E+03  0.15277267611E+02 -0.30425287938E+03  0.32630719671E+03  0.47000000000E+01 0. -1.
        -13    1    4    4    0    0  0.34522278615E+02 -0.10229179330E+02 -0.26244828029E+03  0.26490663196E+03  0.00000000000E+00 0.  1.
         14    1    4    4    0    0 -0.24347735426E+02 -0.70894665329E+01 -0.32710286603E+02  0.41388834312E+02  0.00000000000E+00 0. -1.
         -5    1    5    5    0  502  0.93939162169E+02 -0.53041986073E+02 -0.40533561864E+02  0.11533897049E+03  0.47000000000E+01 0.  1.
         13    1    6    6    0    0  0.38611176014E+02  0.25151515244E+02  0.11039585405E+02  0.47384534167E+02  0.00000000000E+00 0. -1.
        -14    1    6    6    0    0 -0.25887014609E+02  0.29931849081E+02 -0.31519115673E+02  0.50591578030E+02  0.00000000000E+00 0.  1.
</event>
<event>
12    1  0.1597826E-001  0.2175394E+03  0.7818608E-02  0.1136211E+00
         21   -1    0    0  501  502  0.00000000000E+00  0.00000000000E+00  0.58112796560E+03  0.58112796560E+03  0.00000000000E+00 0. -1.
         21   -1    0    0  502  503 -0.00000000000E+00 -0.00000000000E+00 -0.11827120448E+03  0.11827120448E+03  0.00000000000E+00 0. -1.
         -6    2    1    2    0  503  0.10209369972E+03  0.85665715281E+02  0.32872306955E+02  0.21751742544E+03  0.16873500973E+03 0.  0.
        -24    2    3    3    0    0  0.12489199317E+03  0.10762293546E+03  0.27336903525E+02  0.18504262916E+03  0.79452892444E+02 0.  0.
          6    2    1    2  501    0 -0.10209369972E+03 -0.85665715281E+02  0.42998445416E+03  0.48188174464E+03  0.17193500720E+03 0.  0.
         24    2    5    5    0    0 -0.53682835105E+02 -0.56996703245E+02  0.11177335924E+03  0.15870081236E+03  0.81007364113E+02 0.  0.
          5    1    5    5  501    0 -0.48410864620E+02 -0.28669012036E+02  0.31821109492E+03  0.32318093228E+03  0.47000000000E+01 0. -1.
        -11    1    6    6    0    0 -0.31311679588E+02 -0.74877699690E+02  0.97000503959E+02  0.12647604104E+03  0.00000000000E+00 0.  1.
         12    1    6    6    0    0 -0.22371155517E+02  0.17880996445E+02  0.14772855286E+02  0.32224771315E+02  0.00000000000E+00 0. -1.
         -5    1    3    3    0  503 -0.22798293447E+02 -0.21957220180E+02  0.55354034301E+01  0.32474796277E+02  0.47000000000E+01 0.  1.
         13    1    4    4    0    0  0.76776107690E+02  0.14708942909E+02  0.16041242561E+02  0.79801285556E+02  0.00000000000E+00 0. -1.
        -14    1    4    4    0    0  0.48115885482E+02  0.92913992552E+02  0.11295660964E+02  0.10524134361E+03  0.00000000000E+00 0.  1.
</event>
<event>
12    1  0.1597826E-001  0.2168389E+03  0.7818608E-02  0.1136732E+00
         21   -1    0    0  503  502  0.00000000000E+00  0.00000000000E+00  0.30265230085E+02  0.30265230085E+02  0.00000000000E+00 0. -1.
         21   -1    0    0  501  503 -0.00000000000E+00 -0.00000000000E+00 -0.21392859614E+04  0.21392859614E+04  0.00000000000E+00 0.  1.
          6    2    1    2  501    0 -0.11680426409E+03 -0.52011701732E+02 -0.16262507628E+04  0.16403197150E+04  0.17207199311E+03 0.  0.
         24    2    3    3    0    0 -0.47818570459E+02 -0.12844469573E+02 -0.36157764231E+03  0.37315228739E+03  0.77798728064E+02 0.  0.
         -6    2    1    2    0  502  0.11680426409E+03  0.52011701732E+02 -0.48276996853E+03  0.52923147646E+03  0.17513040837E+03 0.  0.
        -24    2    5    5    0    0  0.14469446953E+03  0.60586512399E+02 -0.34794073373E+03  0.39120103238E+03  0.85838677461E+02 0.  0.
          5    1    3    3  501    0 -0.68985693633E+02 -0.39167232159E+02 -0.12646731205E+04  0.12671674276E+04  0.47000000000E+01 0. -1.
        -13    1    4    4    0    0 -0.93046472168E+01  0.87632680479E+01 -0.28080366621E+03  0.28109441525E+03  0.00000000000E+00 0.  1.
         14    1    4    4    0    0 -0.38513923242E+02 -0.21607737621E+02 -0.80773976093E+02  0.92057872137E+02  0.00000000000E+00 0. -1.
         -5    1    5    5    0  502 -0.27890205434E+02 -0.85748106665E+01 -0.13482923480E+03  0.13803044408E+03  0.47000000000E+01 0.  1.
         13    1    6    6    0    0  0.13138101764E+03  0.16139645581E+02 -0.26165526237E+03  0.29323188143E+03  0.00000000000E+00 0. -1.
        -14    1    6    6    0    0  0.13313451882E+02  0.44446866818E+02 -0.86285471360E+02  0.97969150954E+02  0.00000000000E+00 0.  1.
</event>
<event>
12    1  0.1597826E-001  0.3211822E+03  0.7818608E-02  0.1075126E+00
         21   -1    0    0  503  502  0.00000000000E+00  0.00000000000E+00  0.65306586334E+03  0.65306586334E+03  0.00000000000E+00 0. -1.
         21   -1    0    0  501  503 -0.00000000000E+00 -0.00000000000E+00 -0.16986589919E+03  0.16986589919E+03  0.00000000000E+00 0. -1.
          6    2    1    2  501    0 -0.26383758495E+03 -0.62249185047E+02  0.13223212806E+03  0.34718347168E+03  0.17194707048E+03 0.  0.
         24    2    3    3    0    0 -0.86446245015E+02 -0.73089578339E+02  0.84697353876E+02  0.16315400022E+03  0.81428166471E+02 0.  0.
         -6    2    1    2    0  502  0.26383758495E+03  0.62249185047E+02  0.35096783609E+03  0.47574829085E+03  0.17225789388E+03 0.  0.
        -24    2    5    5    0    0  0.17477068143E+03  0.51672146582E+02  0.32711712322E+03  0.38281964322E+03  0.79564220066E+02 0.  0.
          5    1    3    3  501    0 -0.17739133993E+03  0.10840393293E+02  0.47534774189E+02  0.18402947146E+03  0.47000000000E+01 0. -1.
        -13    1    4    4    0    0 -0.27745720461E+02  0.87113871474E+01 -0.35162003977E+01  0.29292950264E+02  0.00000000000E+00 0.  1.
         14    1    4    4    0    0 -0.58700524554E+02 -0.81800965487E+02  0.88213554273E+02  0.13386104995E+03  0.00000000000E+00 0. -1.
         -5    1    5    5    0  502  0.89066903520E+02  0.10577038465E+02  0.23850712875E+02  0.92928647629E+02  0.47000000000E+01 0.  1.
         13    1    6    6    0    0  0.32264416194E+02 -0.20528995192E+02  0.49934634070E+02  0.62895944827E+02  0.00000000000E+00 0. -1.
        -14    1    6    6    0    0  0.14250626523E+03  0.72201141774E+02  0.27718248915E+03  0.31992369839E+03  0.00000000000E+00 0.  1.
</event>
<event>
12    1  0.1597826E-001  0.1769752E+03  0.7818608E-02  0.1170870E+00
         21   -1    0    0  503  502  0.00000000000E+00  0.00000000000E+00  0.14109924142E+03  0.14109924142E+03  0.00000000000E+00 0. -1.
         21   -1    0    0  501  503 -0.00000000000E+00 -0.00000000000E+00 -0.25822565908E+03  0.25822565908E+03  0.00000000000E+00 0. -1.
          6    2    1    2  501    0  0.31120172310E+02 -0.27560999241E+02 -0.13387192670E+03  0.22155920646E+03  0.17157714127E+03 0.  0.
         24    2    3    3    0    0 -0.93495085226E+01 -0.26556037300E+02 -0.59029833000E+01  0.87257510682E+02  0.82379557731E+02 0.  0.
         -6    2    1    2    0  502 -0.31120172310E+02  0.27560999241E+02  0.16745509042E+02  0.17776569403E+03  0.17202370795E+03 0.  0.
        -24    2    5    5    0    0 -0.19582506754E+02  0.83667805536E+02 -0.16890249054E+01  0.11740831270E+03  0.79988016805E+02 0.  0.
          5    1    3    3  501    0  0.40469680832E+02 -0.10049619410E+01 -0.12796894340E+03  0.13430169578E+03  0.47000000000E+01 0. -1.
        -13    1    4    4    0    0  0.14596570799E+02  0.25037471806E+02  0.48089298500E+01  0.29377894408E+02  0.00000000000E+00 0.  1.
         14    1    4    4    0    0 -0.23946079322E+02 -0.51593509106E+02 -0.10711913150E+02  0.57879616275E+02  0.00000000000E+00 0. -1.
         -5    1    5    5    0  502 -0.11537665556E+02 -0.56106806294E+02  0.18434533947E+02  0.60357381329E+02  0.47000000000E+01 0.  1.
         13    1    6    6    0    0 -0.48124399052E+02  0.36536865196E+02 -0.11318383738E+02  0.61473621277E+02  0.00000000000E+00 0. -1.
        -14    1    6    6    0    0  0.28541892298E+02  0.47130940340E+02  0.96293588326E+01  0.55934691425E+02  0.00000000000E+00 0.  1.
</event>
<event>
12    1  0.1597826E-001  0.2597227E+03  0.7818608E-02  0.1107319E+00
         21   -1    0    0  503  502  0.00000000000E+00  0.00000000000E+00  0.33332385709E+03  0.33332385709E+03  0.00000000000E+00 0. -1.
         21   -1    0    0  501  503 -0.00000000000E+00 -0.00000000000E+00 -0.25128629987E+03  0.25128629987E+03  0.00000000000E+00 0.  1.
          6    2    1    2  501    0 -0.16742508596E+03 -0.99365202287E+02 -0.88010913253E+02  0.27417118778E+03  0.17181186374E+03 0.  0.
         24    2    3    3    0    0  0.99494476657E+00 -0.40315057689E+02 -0.16827819164E+02  0.81969863090E+02  0.69351201617E+02 0.  0.
         -6    2    1    2    0  502  0.16742508596E+03  0.99365202287E+02  0.17004847047E+03  0.31043896918E+03  0.17190482379E+03 0.  0.
        -24    2    5    5    0    0  0.10699277857E+03 -0.73184842389E+01  0.11277340653E+03  0.17502849803E+03  0.80100680557E+02 0.  0.
          5    1    3    3  501    0 -0.16842003073E+03 -0.59050144599E+02 -0.71183094088E+02  0.19220132469E+03  0.47000000000E+01 0. -1.
        -11    1    4    4    0    0 -0.22020614068E+02 -0.11137448986E+02 -0.33195232161E+02  0.41362708471E+02  0.00000000000E+00 0.  1.
         12    1    4    4    0    0  0.23015558835E+02 -0.29177608702E+02  0.16367412996E+02  0.40607154619E+02  0.00000000000E+00 0. -1.
         -5    1    5    5    0  502  0.60432307392E+02  0.10668368653E+03  0.57275063940E+02  0.13541047115E+03  0.47000000000E+01 0.  1.
         13    1    6    6    0    0  0.84959307454E+02 -0.30663976612E+02  0.46955941628E+02  0.10179992062E+03  0.00000000000E+00 0. -1.
        -14    1    6    6    0    0  0.22033471118E+02  0.23345492373E+02  0.65817464900E+02  0.73228577410E+02  0.00000000000E+00 0.  1.
</event>
<event>
12    1  0.1597826E-001  0.2767572E+03  0.7818608E-02  0.1097480E+00
         21   -1    0    0  501  502  0.00000000000E+00  0.00000000000E+00  0.72030682973E+03  0.72030682973E+03  0.00000000000E+00 0. -1.
         21   -1    0    0  502  503 -0.00000000000E+00 -0.00000000000E+00 -0.20347835624E+03  0.20347835624E+03  0.00000000000E+00 0.  1.
         -6    2    1    2    0  503 -0.62836640370E+02 -0.20722014092E+03 -0.60770048906E+02  0.28330521868E+03  0.17227947618E+03 0.  0.
        -24    2    3    3    0    0  0.28823409669E+02 -0.63213116136E+02 -0.31226786564E+02  0.11000062466E+03  0.79362070472E+02 0.  0.
          6    2    1    2  501    0  0.62836640370E+02  0.20722014092E+03  0.57759852240E+03  0.64047996729E+03  0.17235401143E+03 0.  0.
         24    2    5    5    0    0 -0.10582670039E+02  0.17645260349E+03  0.36425982592E+03  0.41272455920E+03  0.80055148532E+02 0.  0.
          5    1    5    5  501    0  0.73419310409E+02  0.30767537428E+02  0.21333869648E+03  0.22775540809E+03  0.47000000000E+01 0. -1.
        -13    1    6    6    0    0 -0.17998460923E+02  0.11835096412E+03  0.31218227046E+03  0.33434811992E+03  0.00000000000E+00 0.  1.
         14    1    6    6    0    0  0.74157908845E+01  0.58101639372E+02  0.52077555456E+02  0.78376439282E+02  0.00000000000E+00 0. -1.
         -5    1    3    3    0  503 -0.91660050039E+02 -0.14400702478E+03 -0.29543262342E+02  0.17330459402E+03  0.47000000000E+01 0.  1.
         13    1    4    4    0    0  0.37119955162E+02 -0.15065711581E+02  0.14964897510E+02  0.42764645376E+02  0.00000000000E+00 0. -1.
        -14    1    4    4    0    0 -0.82965454936E+01 -0.48147404554E+02 -0.46191684073E+02  0.67235979282E+02  0.00000000000E+00 0.  1.
</event>
<event>
12    1  0.1597826E-001  0.1748767E+03  0.7818608E-02  0.1173844E+00
         21   -1    0    0  503  502  0.00000000000E+00  0.00000000000E+00  0.12008991185E+04  0.12008991185E+04  0.00000000000E+00 0. -1.
         21   -1    0    0  501  503 -0.00000000000E+00 -0.00000000000E+00 -0.32636061749E+02  0.32636061749E+02  0.00000000000E+00 0. -1.
          6    2    1    2  501    0  0.11909211883E+02 -0.34172895258E+02  0.28892950097E+03  0.33773085642E+03  0.17109137543E+03 0.  0.
         24    2    3    3    0    0  0.26560197577E+02 -0.85753578466E+02  0.19265297775E+03  0.22742910128E+03  0.80930253671E+02 0.  0.
         -6    2    1    2    0  502 -0.11909211883E+02  0.34172895258E+02  0.87933355581E+03  0.89580432386E+03  0.16711752804E+03 0.  0.
        -24    2    5    5    0    0 -0.67720488310E+02  0.88802272617E+01  0.43977720580E+03  0.45197272013E+03  0.78806256312E+02 0.  0.
          5    1    3    3  501    0 -0.14650985694E+02  0.51580683208E+02  0.96276523223E+02  0.11030175514E+03  0.47000000000E+01 0. -1.
        -11    1    4    4    0    0  0.27682949104E+02 -0.50745069889E+02  0.18178652780E+03  0.19075573249E+03  0.00000000000E+00 0.  1.
         12    1    4    4    0    0 -0.11227515270E+01 -0.35008508577E+02  0.10866449947E+02  0.36673368788E+02  0.00000000000E+00 0. -1.
         -5    1    5    5    0  502  0.55811276428E+02  0.25292667996E+02  0.43955635001E+03  0.44383160373E+03  0.47000000000E+01 0.  1.
         11    1    6    6    0    0 -0.37605947716E+02 -0.22199814496E+02  0.34536013661E+03  0.34811013060E+03  0.00000000000E+00 0. -1.
        -12    1    6    6    0    0 -0.30114540595E+02  0.31080041758E+02  0.94417069189E+02  0.10386258954E+03  0.00000000000E+00 0.  1.
</event>
<event>
12    1  0.1597826E-001  0.1822419E+03  0.7818608E-02  0.1165734E+00
         21   -1    0    0  503  502  0.00000000000E+00  0.00000000000E+00  0.11250215207E+03  0.11250215207E+03  0.00000000000E+00 0. -1.
         21   -1    0    0  501  503 -0.00000000000E+00 -0.00000000000E+00 -0.89116884139E+03  0.89116884139E+03  0.00000000000E+00 0. -1.
          6    2    1    2  501    0  0.28210553711E+01 -0.60650738047E+02 -0.80003468892E+03  0.82052887084E+03  0.17183030593E+03 0.  0.
         24    2    3    3    0    0  0.71330608842E+01  0.19564740747E+02 -0.26149660610E+03  0.27601213733E+03  0.85840347819E+02 0.  0.
         -6    2    1    2    0  502 -0.28210553711E+01  0.60650738047E+02  0.21367999599E+02  0.18314212262E+03  0.17145837772E+03 0.  0.
        -24    2    5    5    0    0  0.40759713130E+02  0.79758627216E+02 -0.18293762134E+02  0.12101692519E+03  0.79294650635E+02 0.  0.
          5    1    3    3  501    0 -0.43120055131E+01 -0.80215478794E+02 -0.53853808281E+03  0.54451673351E+03  0.47000000000E+01 0. -1.
        -13    1    4    4    0    0 -0.34704280794E+02  0.10736043901E+02 -0.18352624914E+03  0.18708696872E+03  0.00000000000E+00 0.  1.
         14    1    4    4    0    0  0.41837341679E+02  0.88286968458E+01 -0.77970356967E+02  0.88925168610E+02  0.00000000000E+00 0. -1.
         -5    1    5    5    0  502 -0.43580768501E+02 -0.19107889169E+02  0.39661761733E+02  0.62125197428E+02  0.47000000000E+01 0.  1.
         13    1    6    6    0    0  0.30776124579E+02  0.39383164991E+02  0.29199664791E+02  0.57886301943E+02  0.00000000000E+00 0. -1.
        -14    1    6    6    0    0  0.99835885513E+01  0.40375462226E+02 -0.47493426925E+02  0.63130623245E+02  0.00000000000E+00 0.  1.
</event>
<event>
12    1  0.1597826E-001  0.2417325E+03  0.7818608E-02  0.1118955E+00
         21   -1    0    0  503  502  0.00000000000E+00  0.00000000000E+00  0.15412518712E+03  0.15412518712E+03  0.00000000000E+00 0. -1.
         21   -1    0    0  501  503 -0.00000000000E+00 -0.00000000000E+00 -0.61857401018E+03  0.61857401018E+03  0.00000000000E+00 0.  1.
          6    2    1    2  501    0 -0.31536784896E+02  0.16684104971E+03 -0.47351429997E+03  0.53079676449E+03  0.16940752123E+03 0.  0.
         24    2    3    3    0    0 -0.50480589971E+02  0.13148234340E+03 -0.46080928492E+03  0.48845750056E+03  0.80060203555E+02 0.  0.
         -6    2    1    2    0  502  0.31536784896E+02 -0.16684104971E+03  0.90654769118E+01  0.24190243282E+03  0.17205841875E+03 0.  0.
        -24    2    5    5    0    0  0.16303683977E+01 -0.18774039253E+03  0.67653786392E+01  0.20504382825E+03  0.82146747159E+02 0.  0.
          5    1    3    3  501    0  0.18943805075E+02  0.35358706311E+02 -0.12705015045E+02  0.42339263928E+02  0.47000000000E+01 0. -1.
        -11    1    4    4    0    0 -0.63998058765E+02  0.13292431983E+03 -0.43416954638E+03  0.45854969342E+03  0.00000000000E+00 0.  1.
         12    1    4    4    0    0  0.13517468794E+02 -0.14419764287E+01 -0.26639738543E+02  0.29907807146E+02  0.00000000000E+00 0. -1.
         -5    1    5    5    0  502  0.29906416498E+02  0.20899342822E+02  0.23000982726E+01  0.36858604561E+02  0.47000000000E+01 0.  1.
         13    1    6    6    0    0  0.21574151264E+02 -0.17474869971E+03  0.20979000607E+02  0.17732081242E+03  0.00000000000E+00 0. -1.
        -14    1    6    6    0    0 -0.19943782866E+02 -0.12991692825E+02 -0.14213621968E+02  0.27723015833E+02  0.00000000000E+00 0.  1.
</event>
<event>
12    1  0.1597826E-001  0.1744939E+03  0.7818608E-02  0.1173251E+00
         21   -1    0    0  503  502  0.00000000000E+00  0.00000000000E+00  0.35364352955E+03  0.35364352955E+03  0.00000000000E+00 0. -1.
         21   -1    0    0  501  503 -0.00000000000E+00 -0.00000000000E+00 -0.86139132655E+02  0.86139132655E+02  0.00000000000E+00 0. -1.
          6    2    1    2  501    0  0.26448948649E+01 -0.25122124453E+02  0.13954470530E+03  0.22339921602E+03  0.17261624586E+03 0.  0.
         24    2    3    3    0    0 -0.28990557322E+02  0.21258227988E+01  0.71927838639E+01  0.84538229512E+02  0.79056970426E+02 0.  0.
         -6    2    1    2    0  502 -0.26448948649E+01  0.25122124453E+02  0.12795969159E+03  0.21638344619E+03  0.17265571669E+03 0.  0.
        -24    2    5    5    0    0 -0.45652222821E+02  0.65730713920E+02  0.10208857000E+03  0.15165252059E+03  0.78560541466E+02 0.  0.
          5    1    3    3  501    0  0.31635452187E+02 -0.27247947252E+02  0.13235192144E+03  0.13886098651E+03  0.47000000000E+01 0. -1.
        -11    1    4    4    0    0 -0.44189622751E+02  0.24061635340E+01  0.32575472891E+02  0.54951558812E+02  0.00000000000E+00 0.  1.
         12    1    4    4    0    0  0.15199065429E+02 -0.28034073514E+00 -0.25382689027E+02  0.29586670700E+02  0.00000000000E+00 0. -1.
         -5    1    5    5    0  502  0.43007327956E+02 -0.40608589467E+02  0.25871121590E+02  0.64730925597E+02  0.47000000000E+01 0.  1.
         13    1    6    6    0    0 -0.41321922169E+02  0.25490317109E+01  0.15133030731E+02  0.44079558000E+02  0.00000000000E+00 0. -1.
        -14    1    6    6    0    0 -0.43303006519E+01  0.63181682209E+02  0.86955539270E+02  0.10757296259E+03  0.00000000000E+00 0.  1.
</event>
<event>
12    1  0.1597826E-001  0.2023774E+03  0.7818608E-02  0.1147985E+00
         21   -1    0    0  501  502  0.00000000000E+00  0.00000000000E+00  0.73501222155E+02  0.73501222155E+02  0.00000000000E+00 0.  1.
         21   -1    0    0  502  503 -0.00000000000E+00 -0.00000000000E+00 -0.55416524255E+03  0.55416524255E+03  0.00000000000E+00 0. -1.
         -6    2    1    2    0  503 -0.10341453340E+03  0.11254243971E+02 -0.24431586808E+03  0.31724890614E+03  0.17359551067E+03 0.  0.
        -24    2    3    3    0    0 -0.40429013738E+01 -0.30739379782E+02 -0.65018924484E+02  0.10794608802E+03  0.80396783875E+02 0.  0.
          6    2    1    2  501    0  0.10341453340E+03 -0.11254243971E+02 -0.23634815231E+03  0.31041755857E+03  0.17227126237E+03 0.  0.
         24    2    5    5    0    0  0.98606874219E+02 -0.37549200829E+02 -0.89001064805E+02  0.16059168450E+03  0.82068516905E+02 0.  0.
          5    1    5    5  501    0  0.48076591852E+01  0.26294956858E+02 -0.14734708751E+03  0.14982587407E+03  0.47000000000E+01 0. -1.
        -13    1    6    6    0    0 -0.36904759284E+01  0.51913234238E+01 -0.38046256202E+02  0.38575731522E+02  0.00000000000E+00 0.  1.
         14    1    6    6    0    0  0.10229735015E+03 -0.42740524253E+02 -0.50954808603E+02  0.12201595297E+03  0.00000000000E+00 0. -1.
         -5    1    3    3    0  503 -0.99371632030E+02  0.41993623753E+02 -0.17929694359E+03  0.20930281811E+03  0.47000000000E+01 0.  1.
         11    1    4    4    0    0 -0.27293638610E+02 -0.10220148992E+02 -0.70653156494E+02  0.76428153690E+02  0.00000000000E+00 0. -1.
        -12    1    4    4    0    0  0.23250737236E+02 -0.20519230790E+02  0.56342320096E+01  0.31517934333E+02  0.00000000000E+00 0.  1.
</event>
<event>
12    1  0.1597826E-001  0.1745770E+03  0.7818608E-02  0.1174077E+00
         21   -1    0    0  503  502  0.00000000000E+00  0.00000000000E+00  0.62034560283E+02  0.62034560283E+02  0.00000000000E+00 0.  1.
         21   -1    0    0  501  503 -0.00000000000E+00 -0.00000000000E+00 -0.59982563494E+03  0.59982563494E+03  0.00000000000E+00 0.  1.
          6    2    1    2  501    0 -0.27685259905E+02  0.17071443202E+01 -0.41381456609E+03  0.44774035294E+03  0.16869955716E+03 0.  0.
         24    2    3    3    0    0 -0.60127334801E+02  0.43014195897E+02 -0.34542921370E+03  0.36138407259E+03  0.76233777353E+02 0.  0.
         -6    2    1    2    0  502  0.27685259905E+02 -0.17071443202E+01 -0.12397650856E+03  0.21411984228E+03  0.17235934620E+03 0.  0.
        -24    2    5    5    0    0  0.23112228815E+02 -0.55344220904E+02 -0.12096721818E+03  0.15999965726E+03  0.85846750318E+02 0.  0.
          5    1    3    3  501    0  0.32442074896E+02 -0.41307051577E+02 -0.68385352395E+02  0.86356280349E+02  0.47000000000E+01 0. -1.
        -13    1    4    4    0    0  0.15503048838E+02  0.20284315722E+02 -0.11493631229E+03  0.11773764848E+03  0.00000000000E+00 0.  1.
         14    1    4    4    0    0 -0.75630383640E+02  0.22729880175E+02 -0.23049290141E+03  0.24364642411E+03  0.00000000000E+00 0. -1.
         -5    1    5    5    0  502  0.45730310897E+01  0.53637076583E+02 -0.30092903794E+01  0.54120185018E+02  0.47000000000E+01 0.  1.
         11    1    6    6    0    0  0.15943325786E+02 -0.69915019465E+01 -0.10804587639E+03  0.10943939940E+03  0.00000000000E+00 0. -1.
        -12    1    6    6    0    0  0.71689030292E+01 -0.48352718957E+02 -0.12921341796E+02  0.50560257861E+02  0.00000000000E+00 0.  1.
</event>
<event>
12    1  0.1597826E-001  0.1960457E+03  0.7818608E-02  0.1155032E+00
         21   -1    0    0  501  502  0.00000000000E+00  0.00000000000E+00  0.31757987647E+03  0.31757987647E+03  0.00000000000E+00 0. -1.
         21   -1    0    0  502  503 -0.00000000000E+00 -0.00000000000E+00 -0.19646601146E+03  0.19646601146E+03  0.00000000000E+00 0. -1.
         -6    2    1    2    0  503 -0.89786073950E+02 -0.19478425032E+02 -0.10496188294E+03  0.21480656550E+03  0.16335212148E+03 0.  0.
        -24    2    3    3    0    0 -0.32415952120E+01 -0.22178757149E+02 -0.12158957691E+02  0.87795890634E+02  0.84011147783E+02 0.  0.
          6    2    1    2  501    0  0.89786073950E+02  0.19478425032E+02  0.22607574796E+03  0.29923932243E+03  0.17318481503E+03 0.  0.
         24    2    5    5    0    0  0.54769735452E+02 -0.56707018451E+02  0.13622825076E+03  0.17625546774E+03  0.79324925096E+02 0.  0.
          5    1    5    5  501    0  0.35016338499E+02  0.76185443484E+02  0.89847497200E+02  0.12298385469E+03  0.47000000000E+01 0. -1.
        -13    1    6    6    0    0  0.17971668466E+02 -0.70337194113E+02  0.88646586970E+02  0.11457975006E+03  0.00000000000E+00 0.  1.
         14    1    6    6    0    0  0.36798066985E+02  0.13630175661E+02  0.47581663789E+02  0.61675717680E+02  0.00000000000E+00 0. -1.
         -5    1    3    3    0  503 -0.86544478738E+02  0.27003321161E+01 -0.92802925253E+02  0.12701067486E+03  0.47000000000E+01 0.  1.
         11    1    4    4    0    0 -0.78971626480E+01  0.17749278191E+02  0.25942142634E+02  0.32409825958E+02  0.00000000000E+00 0. -1.
        -12    1    4    4    0    0  0.46555674360E+01 -0.39928035340E+02 -0.38101100325E+02  0.55386064676E+02  0.00000000000E+00 0.  1.
</event>
<event>
12    1  0.1597826E-001  0.1877574E+03  0.7818608E-02  0.1160757E+00
         21   -1    0    0  501  502  0.00000000000E+00  0.00000000000E+00  0.46127256008E+02  0.46127256008E+02  0.00000000000E+00 0. -1.
         21   -1    0    0  502  503 -0.00000000000E+00 -0.00000000000E+00 -0.85722692472E+03  0.85722692472E+03  0.00000000000E+00 0. -1.
         -6    2    1    2    0  503  0.63678028997E+02  0.41149703272E+02 -0.55896657362E+03  0.58965792522E+03  0.17176917328E+03 0.  0.
        -24    2    3    3    0    0  0.58720429921E+02 -0.32402029395E+02 -0.42178612141E+03  0.43385355546E+03  0.76337375974E+02 0.  0.
          6    2    1    2  501    0 -0.63678028997E+02 -0.41149703272E+02 -0.25213309509E+03  0.31369625551E+03  0.17054633865E+03 0.  0.
         24    2    5    5    0    0  0.94568418959E+01 -0.28987445815E+02 -0.49997789220E+02  0.98342124540E+02  0.79004371136E+02 0.  0.
          5    1    5    5  501    0 -0.73134870893E+02 -0.12162257457E+02 -0.20213530587E+03  0.21535413097E+03  0.47000000000E+01 0. -1.
        -13    1    6    6    0    0  0.40583644946E+01  0.23146878010E+02 -0.37830465152E+02  0.44535293617E+02  0.00000000000E+00 0.  1.
         14    1    6    6    0    0  0.53984774013E+01 -0.52134323825E+02 -0.12167324068E+02  0.53806830923E+02  0.00000000000E+00 0. -1.
         -5    1    3    3    0  503  0.49575990761E+01  0.73551732667E+02 -0.13718045221E+03  0.15580436976E+03  0.47000000000E+01 0.  1.
         11    1    4    4    0    0  0.29519829487E+02  0.13721796213E+02 -0.62753404032E+02  0.70694396820E+02  0.00000000000E+00 0. -1.
        -12    1    4    4    0    0  0.29200600435E+02 -0.46123825608E+02 -0.35903271738E+03  0.36315915864E+03  0.00000000000E+00 0.  1.
</event>
<event>
12    1  0.1597826E-001  0.1773955E+03  0.7818608E-02  0.1170654E+00
         21   -1    0    0  501  502  0.00000000000E+00  0.00000000000E+00  0.12023202959E+03  0.12023202959E+03  0.00000000000E+00 0.  1.
         21   -1    0    0  502  503 -0.00000000000E+00 -0.00000000000E+00 -0.45067326144E+03  0.45067326144E+03  0.00000000000E+00 0.  1.
         -6    2    1    2    0  503 -0.28391810252E+02 -0.31493884545E+02 -0.35126589403E+03  0.39351859482E+03  0.17225329173E+03 0.  0.
        -24    2    3    3    0    0 -0.22678330029E+02  0.28511899820E+02 -0.30712198686E+03  0.31865797398E+03  0.76757764951E+02 0.  0.
          6    2    1    2  501    0  0.28391810252E+02  0.31493884545E+02  0.20824662180E+02  0.17738669621E+03  0.17098074098E+03 0.  0.
         24    2    5    5    0    0  0.38007311861E+02  0.83519805702E+02  0.21062056714E+02  0.12427077864E+03  0.81114132499E+02 0.  0.
          5    1    5    5  501    0 -0.96155016087E+01 -0.52025921158E+02 -0.23739453478E+00  0.53115917574E+02  0.47000000000E+01 0. -1.
        -11    1    6    6    0    0  0.43563004333E+02  0.65178896412E+01  0.16140523922E+02  0.46911989346E+02  0.00000000000E+00 0.  1.
         12    1    6    6    0    0 -0.55556924719E+01  0.77001916061E+02  0.49215327922E+01  0.77358789294E+02  0.00000000000E+00 0. -1.
         -5    1    3    3    0  503 -0.57134802231E+01 -0.60005784365E+02 -0.44143907165E+02  0.74860620845E+02  0.47000000000E+01 0.  1.
         11    1    4    4    0    0  0.27129446686E+02  0.39942730148E+01 -0.71344448258E+02  0.76432920863E+02  0.00000000000E+00 0. -1.
        -12    1    4    4    0    0 -0.49807776715E+02  0.24517626805E+02 -0.23577753861E+03  0.24222505311E+03  0.00000000000E+00 0.  1.
</event>
<event>
12    1  0.1597826E-001  0.1746057E+03  0.7818608E-02  0.1174017E+00
         21   -1    0    0  501  502  0.00000000000E+00  0.00000000000E+00  0.26629042448E+03  0.26629042448E+03  0.00000000000E+00 0. -1.
         21   -1    0    0  502  503 -0.00000000000E+00 -0.00000000000E+00 -0.72169821648E+03  0.72169821648E+03  0.00000000000E+00 0. -1.
         -6    2    1    2    0  503  0.61793673216E+01 -0.28785148312E+02 -0.68131253534E+03  0.70247140339E+03  0.16856017446E+03 0.  0.
        -24    2    3    3    0    0  0.12552714515E+02 -0.76300546526E+02 -0.33603226528E+03  0.35384712495E+03  0.79440295073E+02 0.  0.
          6    2    1    2  501    0 -0.61793673216E+01  0.28785148312E+02  0.22590474335E+03  0.28551723757E+03  0.17210569584E+03 0.  0.
         24    2    5    5    0    0 -0.26866989049E+02  0.81549753067E+02  0.15653410203E+03  0.19581519142E+03  0.80426778902E+02 0.  0.
          5    1    5    5  501    0  0.20687621728E+02 -0.52764604755E+02  0.69370641318E+02  0.89702046156E+02  0.47000000000E+01 0. -1.
        -11    1    6    6    0    0 -0.40678460009E+02  0.62630081632E+02  0.58064775025E+02  0.94598003851E+02  0.00000000000E+00 0.  1.
         12    1    6    6    0    0  0.13811470960E+02  0.18919671435E+02  0.98469327009E+02  0.10121718757E+03  0.00000000000E+00 0. -1.
         -5    1    3    3    0  503 -0.63733471931E+01  0.47515398214E+02 -0.34528027006E+03  0.34862427844E+03  0.47000000000E+01 0.  1.
         13    1    4    4    0    0  0.13802523125E+01  0.46250601888E+01 -0.15680916068E+03  0.15688342535E+03  0.00000000000E+00 0. -1.
        -14    1    4    4    0    0  0.11172462202E+02 -0.80925606715E+02 -0.17922310460E+03  0.19696369959E+03  0.00000000000E+00 0.  1.
</event>
<event>
12    1  0.1597826E-001  0.2155509E+03  0.7818608E-02  0.1137593E+00
         21   -1    0    0  503  502  0.00000000000E+00  0.00000000000E+00  0.35079963262E+02  0.35079963262E+02  0.00000000000E+00 0.  1.
         21   -1    0    0  501  503 -0.00000000000E+00 -0.00000000000E+00 -0.15540743683E+04  0.15540743683E+04  0.00000000000E+00 0. -1.
          6    2    1    2  501    0 -0.10046627600E+03  0.78969695233E+02 -0.44405240871E+03  0.49281382691E+03  0.17132787553E+03 0.  0.
         24    2    3    3    0    0 -0.29095135840E+02  0.10700261193E+03 -0.25879599218E+03  0.29226030803E+03  0.78387729870E+02 0.  0.
         -6    2    1    2    0  502  0.10046627600E+03 -0.78969695233E+02 -0.10749419963E+04  0.10963405047E+04  0.17358721524E+03 0.  0.
        -24    2    5    5    0    0  0.11919076774E+03 -0.10698328749E+03 -0.95649259936E+03  0.97310204644E+03  0.79985231352E+02 0.  0.
          5    1    3    3  501    0 -0.71371140165E+02 -0.28032916702E+02 -0.18525641654E+03  0.20055351888E+03  0.47000000000E+01 0. -1.
        -13    1    4    4    0    0  0.77882650132E+00  0.77340796727E+02 -0.91798295954E+02  0.12003804626E+03  0.00000000000E+00 0.  1.
         14    1    4    4    0    0 -0.29873962342E+02  0.29661815208E+02 -0.16699769623E+03  0.17222226178E+03  0.00000000000E+00 0. -1.
         -5    1    5    5    0  502 -0.18724491731E+02  0.28013592254E+02 -0.11844939697E+03  0.12323845822E+03  0.47000000000E+01 0.  1.
         11    1    6    6    0    0  0.14177163844E+02 -0.63997748821E+02 -0.35325855034E+03  0.35928861270E+03  0.00000000000E+00 0. -1.
        -12    1    6    6    0    0  0.10501360389E+03 -0.42985538665E+02 -0.60323404902E+03  0.61381343373E+03  0.00000000000E+00 0.  1.
</event>
<event>
12    1  0.1597826E-001  0.4577449E+03  0.7818608E-02  0.1025458E+00
         21   -1    0    0  501  502  0.00000000000E+00  0.00000000000E+00  0.18979301504E+04  0.18979301504E+04  0.00000000000E+00 0.  1.
         21   -1    0    0  502  503 -0.00000000000E+00 -0.00000000000E+00 -0.11810856811E+03  0.11810856811E+03  0.00000000000E+00 0. -1.
         -6    2    1    2    0  503 -0.40270938732E+03  0.13337363288E+03  0.11488080493E+04  0.12366447846E+04  0.17195061037E+03 0.  0.
        -24    2    3    3    0    0 -0.37627986730E+03  0.72516679145E+02  0.99784571030E+03  0.10716787088E+04  0.77162076520E+02 0.  0.
          6    2    1    2  501    0  0.40270938732E+03 -0.13337363288E+03  0.63101353292E+03  0.77939393391E+03  0.17121170784E+03 0.  0.
         24    2    5    5    0    0  0.24958400396E+03 -0.14991225199E+03  0.43905611770E+03  0.53324225666E+03  0.82529821738E+02 0.  0.
          5    1    5    5  501    0  0.15312538336E+03  0.16538619106E+02  0.19195741523E+03  0.24615167725E+03  0.47000000000E+01 0. -1.
        -11    1    6    6    0    0  0.93320109132E+02 -0.89376205490E+02  0.14060894268E+03  0.19096498013E+03  0.00000000000E+00 0.  1.
         12    1    6    6    0    0  0.15626389482E+03 -0.60536046497E+02  0.29844717502E+03  0.34227727653E+03  0.00000000000E+00 0. -1.
         -5    1    3    3    0  503 -0.26429520015E+02  0.60856953736E+02  0.15096233903E+03  0.16496607576E+03  0.47000000000E+01 0.  1.
         11    1    4    4    0    0 -0.37524197842E+01  0.23882620429E+01  0.59375132755E+02  0.59541505183E+02  0.00000000000E+00 0. -1.
        -12    1    4    4    0    0 -0.37252744752E+03  0.70128417102E+02  0.93847057754E+03  0.10121372036E+04  0.00000000000E+00 0.  1.
</event>
<event>
12    1  0.1597826E-001  0.1864407E+03  0.7818608E-02  0.1162393E+00
         21   -1    0    0  501  502  0.00000000000E+00  0.00000000000E+00  0.46162661120E+03  0.46162661120E+03  0.00000000000E+00 0. -1.
         21   -1    0    0  502  503 -0.00000000000E+00 -0.00000000000E+00 -0.99502113181E+02  0.99502113181E+02  0.00000000000E+00 0. -1.
         -6    2    1    2    0  503 -0.49348362042E+02  0.40432699318E+02  0.38303597177E+02  0.18747098365E+03  0.17207016052E+03 0.  0.
        -24    2    3    3    0    0 -0.14982406076E+02 -0.24089667774E+02 -0.26412946531E+02  0.89723984645E+02  0.80919497593E+02 0.  0.
          6    2    1    2  501    0  0.49348362042E+02 -0.40432699318E+02  0.32382090085E+03  0.37365774074E+03  0.17518580815E+03 0.  0.
         24    2    5    5    0    0  0.20150915802E+02  0.17205674238E+02  0.63968769650E+02  0.10585204054E+03  0.80065950074E+02 0.  0.
          5    1    5    5  501    0  0.29197446240E+02 -0.57638373556E+02  0.25985213120E+03  0.26780570020E+03  0.47000000000E+01 0. -1.
        -13    1    6    6    0    0  0.12901255174E+02  0.46120554205E+02  0.18202541872E+02  0.51233586989E+02  0.00000000000E+00 0.  1.
         14    1    6    6    0    0  0.72496606282E+01 -0.28914879967E+02  0.45766227778E+02  0.54618453546E+02  0.00000000000E+00 0. -1.
         -5    1    3    3    0  503 -0.34365955966E+02  0.64522367092E+02  0.64716543709E+02  0.97746999004E+02  0.47000000000E+01 0.  1.
         13    1    4    4    0    0  0.19201914316E+02  0.50755538277E+01 -0.38386919431E+02  0.43220716601E+02  0.00000000000E+00 0. -1.
        -14    1    4    4    0    0 -0.34184320392E+02 -0.29165221602E+02  0.11973972900E+02  0.46503268044E+02  0.00000000000E+00 0.  1.
</event>
<event>
12    1  0.1597826E-001  0.2135628E+03  0.7818608E-02  0.1138918E+00
         21   -1    0    0  501  502  0.00000000000E+00  0.00000000000E+00  0.37877363059E+03  0.37877363059E+03  0.00000000000E+00 0.  1.
         21   -1    0    0  502  503 -0.00000000000E+00 -0.00000000000E+00 -0.14736815142E+03  0.14736815142E+03  0.00000000000E+00 0.  1.
         -6    2    1    2    0  503  0.42314061844E+02  0.11849000334E+03  0.24932859409E+01  0.21357738882E+03  0.17256512921E+03 0.  0.
        -24    2    3    3    0    0 -0.50055312815E+01  0.90897499294E+01  0.37845542071E+02  0.89161025935E+02  0.80060755643E+02 0.  0.
          6    2    1    2  501    0 -0.42314061844E+02 -0.11849000334E+03  0.22891219322E+03  0.31256439319E+03  0.17165473183E+03 0.  0.
         24    2    5    5    0    0 -0.65761503717E+02 -0.11625482579E+03  0.10847090855E+03  0.18975164303E+03  0.79999925873E+02 0.  0.
          5    1    5    5  501    0  0.23447441874E+02 -0.22351775583E+01  0.12044128467E+03  0.12281275016E+03  0.47000000000E+01 0. -1.
        -11    1    6    6    0    0 -0.75421241134E+00 -0.56735659695E+01  0.47289040574E+02  0.47634142645E+02  0.00000000000E+00 0.  1.
         12    1    6    6    0    0 -0.65007291306E+02 -0.11058125982E+03  0.61181867980E+02  0.14211750038E+03  0.00000000000E+00 0. -1.
         -5    1    3    3    0  503  0.47319593125E+02  0.10940025341E+03 -0.35352256130E+02  0.12441636289E+03  0.47000000000E+01 0.  1.
         13    1    4    4    0    0 -0.38896042749E+02  0.19991129756E+02  0.12580024042E+02  0.45506092068E+02  0.00000000000E+00 0. -1.
        -14    1    4    4    0    0  0.33890511468E+02 -0.10901379826E+02  0.25265518029E+02  0.43654933867E+02  0.00000000000E+00 0.  1.
</event>
<event>
12    1  0.1597826E-001  0.2244535E+03  0.7818608E-02  0.1132412E+00
         21   -1    0    0  503  502  0.00000000000E+00  0.00000000000E+00  0.19481264984E+03  0.19481264984E+03  0.00000000000E+00 0.  1.
         21   -1    0    0  501  503 -0.00000000000E+00 -0.00000000000E+00 -0.27040427728E+03  0.27040427728E+03  0.00000000000E+00 0. -1.
          6    2    1    2  501    0 -0.70709139347E+02 -0.13391062977E+03 -0.10619802700E+03  0.24830911279E+03  0.16567303764E+03 0.  0.
         24    2    3    3    0    0 -0.17261214180E+02 -0.31815972585E+02 -0.99797650018E+02  0.13279697249E+03  0.79782575335E+02 0.  0.
         -6    2    1    2    0  502  0.70709139347E+02  0.13391062977E+03  0.30606399558E+02  0.21690781433E+03  0.15225113816E+03 0.  0.
        -24    2    5    5    0    0  0.91378923241E+02  0.95199557662E+02 -0.15896402599E+02  0.15279550913E+03  0.75370475663E+02 0.  0.
          5    1    3    3  501    0 -0.53447925167E+02 -0.10209465719E+03 -0.64003769846E+01  0.11551214030E+03  0.47000000000E+01 0. -1.
        -11    1    4    4    0    0  0.19947578211E+02 -0.34765374421E+02 -0.20203691958E+02  0.44885702667E+02  0.00000000000E+00 0.  1.
         12    1    4    4    0    0 -0.37208792392E+02  0.29494018361E+01 -0.79593958059E+02  0.87911269823E+02  0.00000000000E+00 0. -1.
         -5    1    5    5    0  502 -0.20669783894E+02  0.38711072109E+02  0.46502802156E+02  0.64112305203E+02  0.47000000000E+01 0.  1.
         11    1    6    6    0    0 -0.35096195185E+01  0.26421564719E+02 -0.23253661371E+02  0.35371588578E+02  0.00000000000E+00 0. -1.
        -12    1    6    6    0    0  0.94888542759E+02  0.68777992943E+02  0.73572587717E+01  0.11742392055E+03  0.00000000000E+00 0.  1.
</event>
<event>
12    1  0.1597826E-001  0.1906528E+03  0.7818608E-02  0.1158614E+00
         21   -1    0    0  501  502  0.00000000000E+00  0.00000000000E+00  0.46964846276E+03  0.46964846276E+03  0.00000000000E+00 0.  1.
         21   -1    0    0  502  503 -0.00000000000E+00 -0.00000000000E+00 -0.17534257196E+03  0.17534257196E+03  0.00000000000E+00 0.  1.
         -6    2    1    2    0  503 -0.81377093782E+02 -0.23738049658E+02 -0.96045663107E+02  0.21056863637E+03  0.16711868485E+03 0.  0.
        -24    2    3    3    0    0 -0.16824953799E+02  0.46689269439E+02 -0.44887198947E+02  0.10209622279E+03  0.77109085899E+02 0.  0.
          6    2    1    2  501    0  0.81377093782E+02  0.23738049658E+02  0.39035155391E+03  0.43442239836E+03  0.17077106944E+03 0.  0.
         24    2    5    5    0    0  0.38485057195E+02 -0.46249354753E+02  0.27057137499E+03  0.28913872811E+03  0.82293576200E+02 0.  0.
          5    1    5    5  501    0  0.42892036587E+02  0.69987404411E+02  0.11978017892E+03  0.14528367025E+03  0.47000000000E+01 0. -1.
        -13    1    6    6    0    0  0.59812772911E+02 -0.33846286203E+02  0.24109875237E+03  0.25070250754E+03  0.00000000000E+00 0.  1.
         14    1    6    6    0    0 -0.21327715716E+02 -0.12403068550E+02  0.29472622620E+02  0.38436220564E+02  0.00000000000E+00 0. -1.
         -5    1    3    3    0  503 -0.64552139983E+02 -0.70427319097E+02 -0.51158464159E+02  0.10847241357E+03  0.47000000000E+01 0.  1.
         13    1    4    4    0    0 -0.36146139681E+00 -0.13292718893E+02 -0.37098976061E+02  0.39410164358E+02  0.00000000000E+00 0. -1.
        -14    1    4    4    0    0 -0.16463492402E+02  0.59981988332E+02 -0.77882228861E+01  0.62686058435E+02  0.00000000000E+00 0.  1.
</event>
<event>
12    1  0.1597826E-001  0.1959309E+03  0.7818608E-02  0.1154098E+00
         21   -1    0    0  503  502  0.00000000000E+00  0.00000000000E+00  0.10350218516E+03  0.10350218516E+03  0.00000000000E+00 0.  1.
         21   -1    0    0  501  503 -0.00000000000E+00 -0.00000000000E+00 -0.43805675905E+03  0.43805675905E+03  0.00000000000E+00 0. -1.
          6    2    1    2  501    0  0.85715853181E+02  0.75142746031E+01 -0.28054587519E+03  0.34219133139E+03  0.17602626902E+03 0.  0.
         24    2    3    3    0    0 -0.11515866666E+02  0.28595058911E+02 -0.18789895475E+03  0.20616211145E+03  0.79034843092E+02 0.  0.
         -6    2    1    2    0  502 -0.85715853181E+02 -0.75142746031E+01 -0.54008698708E+02  0.19936761282E+03  0.17154251279E+03 0.  0.
        -24    2    5    5    0    0 -0.72080605266E+02 -0.26291008069E+02  0.30029440931E+02  0.11205790763E+03  0.75949829361E+02 0.  0.
          5    1    3    3  501    0  0.97231719847E+02 -0.21080784308E+02 -0.92646920435E+02  0.13602921994E+03  0.47000000000E+01 0. -1.
        -11    1    4    4    0    0 -0.20012886627E+02 -0.23088578152E+02 -0.91296762916E+02  0.96274072269E+02  0.00000000000E+00 0.  1.
         12    1    4    4    0    0  0.84970199611E+01  0.51683637063E+02 -0.96602191834E+02  0.10988803918E+03  0.00000000000E+00 0. -1.
         -5    1    5    5    0  502 -0.13635247915E+02  0.18776733465E+02 -0.84038139639E+02  0.87309705184E+02  0.47000000000E+01 0.  1.
         11    1    6    6    0    0 -0.85134573593E+01 -0.26387832671E+02 -0.17410251653E+02  0.32740090591E+02  0.00000000000E+00 0. -1.
        -12    1    6    6    0    0 -0.63567147907E+02  0.96824602913E-01  0.47439692584E+02  0.79317817043E+02  0.00000000000E+00 0.  1.
</event>
<event>
12    1  0.1597826E-001  0.1956903E+03  0.7818608E-02  0.1153642E+00
         21   -1    0    0  503  502  0.00000000000E+00  0.00000000000E+00  0.91070893065E+03  0.91070893065E+03  0.00000000000E+00 0. -1.
         21   -1    0    0  501  503 -0.00000000000E+00 -0.00000000000E+00 -0.42312274190E+02  0.42312274190E+02  0.00000000000E+00 0. -1.
          6    2    1    2  501    0 -0.66990947643E+01  0.96576502054E+02  0.38262437746E+03  0.42931385429E+03  0.16892919417E+03 0.  0.
         24    2    3    3    0    0  0.85421593289E+01 -0.51344762592E+01  0.24412939517E+03  0.25674395815E+03  0.78860428147E+02 0.  0.
         -6    2    1    2    0  502  0.66990947643E+01 -0.96576502054E+02  0.48577227900E+03  0.52370735055E+03  0.17006699666E+03 0.  0.
        -24    2    5    5    0    0  0.11662413931E+02 -0.35160156672E+02  0.43316453219E+03  0.44255153103E+03  0.82753230466E+02 0.  0.
          5    1    3    3  501    0 -0.15241254093E+02  0.10171097831E+03  0.13849498229E+03  0.17256989615E+03  0.47000000000E+01 0. -1.
        -13    1    4    4    0    0 -0.91376291100E+01  0.98376828059E+01  0.22827793535E+03  0.22867245579E+03  0.00000000000E+00 0.  1.
         14    1    4    4    0    0  0.17679788439E+02 -0.14972159065E+02  0.15851459818E+02  0.28071502359E+02  0.00000000000E+00 0. -1.
         -5    1    5    5    0  502 -0.49633191662E+01 -0.61416345382E+02  0.52607746812E+02  0.81155819519E+02  0.47000000000E+01 0.  1.
         13    1    6    6    0    0 -0.33213356993E+01 -0.60828228218E+02  0.29604773169E+03  0.30225049885E+03  0.00000000000E+00 0. -1.
        -14    1    6    6    0    0  0.14983749630E+02  0.25668071546E+02  0.13711680050E+03  0.14030103217E+03  0.00000000000E+00 0.  1.
</event>
<event>
12    1  0.1597826E-001  0.1722171E+03  0.7818608E-02  0.1175793E+00
         21   -1    0    0  503  502  0.00000000000E+00  0.00000000000E+00  0.11276728683E+04  0.11276728683E+04  0.00000000000E+00 0.  1.
         21   -1    0    0  501  503 -0.00000000000E+00 -0.00000000000E+00 -0.29345356791E+02  0.29345356791E+02  0.00000000000E+00 0.  1.
          6    2    1    2  501    0 -0.41520429179E+01 -0.54516240962E+01  0.74107686043E+03  0.76082431899E+03  0.17208071253E+03 0.  0.
         24    2    3    3    0    0 -0.41208602112E+01 -0.64678763264E+02  0.59175668911E+03  0.60011819417E+03  0.75931179187E+02 0.  0.
         -6    2    1    2    0  502  0.41520429179E+01  0.54516240962E+01  0.35725065110E+03  0.39619390613E+03  0.17115672314E+03 0.  0.
        -24    2    5    5    0    0 -0.60536443290E+02 -0.18187562429E+02  0.22073327290E+03  0.24321516271E+03  0.80218384513E+02 0.  0.
          5    1    3    3  501    0 -0.31182706769E-01  0.59227139168E+02  0.14932017133E+03  0.16070612481E+03  0.47000000000E+01 0. -1.
        -13    1    4    4    0    0  0.22614088490E+01 -0.38202744184E+01  0.37129884263E+03  0.37132538158E+03  0.00000000000E+00 0.  1.
         14    1    4    4    0    0 -0.63822690602E+01 -0.60858488846E+02  0.22045784648E+03  0.22879281260E+03  0.00000000000E+00 0. -1.
         -5    1    5    5    0  502  0.64688486208E+02  0.23639186525E+02  0.13651737819E+03  0.15297874341E+03  0.47000000000E+01 0.  1.
         11    1    6    6    0    0  0.18860962632E+02 -0.17367563414E+01  0.64088026534E+02  0.66828342632E+02  0.00000000000E+00 0. -1.
        -12    1    6    6    0    0 -0.79397405923E+02 -0.16450806087E+02  0.15664524637E+03  0.17638682008E+03  0.00000000000E+00 0.  1.
</event>
<event>
12    1  0.1597826E-001  0.1915610E+03  0.7818608E-02  0.1158883E+00
         21   -1    0    0  501  502  0.00000000000E+00  0.00000000000E+00  0.61484218174E+03  0.61484218174E+03  0.00000000000E+00 0. -1.
         21   -1    0    0  502  503 -0.00000000000E+00 -0.00000000000E+00 -0.65223015204E+02  0.65223015204E+02  0.00000000000E+00 0.  1.
         -6    2    1    2    0  503  0.61208863729E+02 -0.20893674100E+02  0.16086406471E+03  0.25014565610E+03  0.18031231609E+03 0.  0.
        -24    2    3    3    0    0  0.16061912308E+02  0.97269348452E+01  0.21999751269E+01  0.82299737952E+02  0.80098743361E+02 0.  0.
          6    2    1    2  501    0 -0.61208863729E+02  0.20893674100E+02  0.38875510182E+03  0.42991954084E+03  0.17180573852E+03 0.  0.
         24    2    5    5    0    0  0.24846097759E+02  0.54427386774E+02  0.16286771785E+03  0.18583519780E+03  0.66551921216E+02 0.  0.
          5    1    5    5  501    0 -0.86054961487E+02 -0.33533712675E+02  0.22588738397E+03  0.24408434304E+03  0.47000000000E+01 0. -1.
        -11    1    6    6    0    0  0.58698178973E+01  0.42657949809E+02  0.15692867633E+03  0.16272911509E+03  0.00000000000E+00 0.  1.
         12    1    6    6    0    0  0.18976279861E+02  0.11769436965E+02  0.59390415233E+01  0.23106082707E+02  0.00000000000E+00 0. -1.
         -5    1    3    3    0  503  0.45146951420E+02 -0.30620608945E+02  0.15866408959E+03  0.16784591815E+03  0.47000000000E+01 0.  1.
         13    1    4    4    0    0  0.43593809002E+02  0.22465928922E+02  0.11872436579E+02  0.50458823767E+02  0.00000000000E+00 0. -1.
        -14    1    4    4    0    0 -0.27531896694E+02 -0.12738994076E+02 -0.96724614521E+01  0.31840914185E+02  0.00000000000E+00 0.  1.
</event>
<event>
12    1  0.1597826E-001  0.2369286E+03  0.7818608E-02  0.1122115E+00
         21   -1    0    0  501  502  0.00000000000E+00  0.00000000000E+00  0.43145572145E+02  0.43145572145E+02  0.00000000000E+00 0.  1.
         21   -1    0    0  502  503 -0.00000000000E+00 -0.00000000000E+00 -0.13707674493E+04  0.13707674493E+04  0.00000000000E+00 0. -1.
         -6    2    1    2    0  503 -0.16428037180E+03  0.26181840994E+01 -0.49713486454E+03  0.55070701838E+03  0.17070515839E+03 0.  0.
        -24    2    3    3    0    0 -0.18508652989E+03  0.15280424728E+01 -0.48658621685E+03  0.52688583891E+03  0.81136812578E+02 0.  0.
          6    2    1    2  501    0  0.16428037180E+03 -0.26181840994E+01 -0.83048701259E+03  0.86320600304E+03  0.16858537945E+03 0.  0.
         24    2    5    5    0    0  0.12541201659E+03 -0.43880124805E+02 -0.39038249572E+03  0.41944100605E+03  0.76672194004E+02 0.  0.
          5    1    5    5  501    0  0.38868355207E+02  0.41261940706E+02 -0.44010451687E+03  0.44376499699E+03  0.47000000000E+01 0. -1.
        -13    1    6    6    0    0  0.28646870854E+02  0.22179695868E+02 -0.90310929227E+02  0.97306968180E+02  0.00000000000E+00 0.  1.
         14    1    6    6    0    0  0.96765145735E+02 -0.66059820674E+02 -0.30007156650E+03  0.32213403787E+03  0.00000000000E+00 0. -1.
         -5    1    3    3    0  503  0.20806158090E+02  0.10901416266E+01 -0.10548647693E+02  0.23821179471E+02  0.47000000000E+01 0.  1.
         13    1    4    4    0    0 -0.47038250058E+02 -0.22387247033E+02 -0.21583359685E+03  0.22203136564E+03  0.00000000000E+00 0. -1.
        -14    1    4    4    0    0 -0.13804827983E+03  0.23915289506E+02 -0.27075261999E+03  0.30485447326E+03  0.00000000000E+00 0.  1.
</event>
<event>
12    1  0.1597826E-001  0.2376408E+03  0.7818608E-02  0.1121430E+00
         21   -1    0    0  501  502  0.00000000000E+00  0.00000000000E+00  0.12404948804E+03  0.12404948804E+03  0.00000000000E+00 0.  1.
         21   -1    0    0  502  503 -0.00000000000E+00 -0.00000000000E+00 -0.45632599817E+03  0.45632599817E+03  0.00000000000E+00 0. -1.
         -6    2    1    2    0  503 -0.16052428991E+03 -0.31010667729E+02 -0.18375370905E+03  0.30013955998E+03  0.17201343178E+03 0.  0.
        -24    2    3    3    0    0 -0.12454564598E+03 -0.14637736176E+01 -0.20017311174E+03  0.25054955539E+03  0.84805922401E+02 0.  0.
          6    2    1    2  501    0  0.16052428991E+03  0.31010667729E+02 -0.14852280108E+03  0.28023592623E+03  0.17246287352E+03 0.  0.
         24    2    5    5    0    0  0.12994959453E+03  0.34540961995E+02 -0.31873496803E+02  0.15950305927E+03  0.79657585604E+02 0.  0.
          5    1    5    5  501    0  0.30574695376E+02 -0.35302942654E+01 -0.11664930427E+03  0.12073286695E+03  0.47000000000E+01 0. -1.
        -13    1    6    6    0    0  0.55063789455E+02  0.19296487100E+02 -0.54459518488E+02  0.79813623383E+02  0.00000000000E+00 0.  1.
         14    1    6    6    0    0  0.74885805079E+02  0.15244474895E+02  0.22586021685E+02  0.79689435891E+02  0.00000000000E+00 0. -1.
         -5    1    3    3    0  503 -0.35978643934E+02 -0.29546894112E+02  0.16419402694E+02  0.49590004596E+02  0.47000000000E+01 0.  1.
         13    1    4    4    0    0 -0.49063082429E+02  0.37392550164E+02 -0.56412375023E+02  0.83592732465E+02  0.00000000000E+00 0. -1.
        -14    1    4    4    0    0 -0.75482563548E+02 -0.38856323782E+02 -0.14376073672E+03  0.16695682292E+03  0.00000000000E+00 0.  1.
</event>
<event>
12    1  0.1597826E-001  0.1783082E+03  0.7818608E-02  0.1169815E+00
         21   -1    0    0  503  502  0.00000000000E+00  0.00000000000E+00  0.56067488421E+03  0.56067488421E+03  0.00000000000E+00 0. -1.
         21   -1    0    0  501  503 -0.00000000000E+00 -0.00000000000E+00 -0.90093825766E+02  0.90093825766E+02  0.00000000000E+00 0. -1.
          6    2    1    2  501    0  0.14402864054E+02  0.45332783640E+02  0.35210399028E+02  0.18029935553E+03  0.17031025112E+03 0.  0.
         24    2    3    3    0    0  0.54015616900E+00 -0.36516914383E+02 -0.45996928845E+01  0.88112148418E+02  0.80055085532E+02 0.  0.
         -6    2    1    2    0  502 -0.14402864054E+02 -0.45332783640E+02  0.43537065942E+03  0.47046935445E+03  0.17184673005E+03 0.  0.
        -24    2    5    5    0    0  0.13886467885E+02  0.36638722646E+02  0.23509649679E+03  0.25217724658E+03  0.82387929336E+02 0.  0.
          5    1    3    3  501    0  0.13862707885E+02  0.81849698023E+02  0.39810091912E+02  0.92187207108E+02  0.47000000000E+01 0. -1.
        -11    1    4    4    0    0  0.36106424009E+02 -0.67176345683E+01  0.12299103410E+02  0.38730716668E+02  0.00000000000E+00 0.  1.
         12    1    4    4    0    0 -0.35566267840E+02 -0.29799279815E+02 -0.16898796294E+02  0.49381431750E+02  0.00000000000E+00 0. -1.
         -5    1    5    5    0  502 -0.28289331939E+02 -0.81971506286E+02  0.20027416263E+03  0.21829210787E+03  0.47000000000E+01 0.  1.
         11    1    6    6    0    0 -0.68964706898E+01 -0.22739146609E+02  0.34076533141E+02  0.41543232992E+02  0.00000000000E+00 0. -1.
        -12    1    6    6    0    0  0.20782938574E+02  0.59377869255E+02  0.20101996365E+03  0.21063401358E+03  0.00000000000E+00 0.  1.
</event>
<event>
12    1  0.1597826E-001  0.2608401E+03  0.7818608E-02  0.1107277E+00
         21   -1    0    0  503  502  0.00000000000E+00  0.00000000000E+00  0.16880034448E+03  0.16880034448E+03  0.00000000000E+00 0.  1.
         21   -1    0    0  501  503 -0.00000000000E+00 -0.00000000000E+00 -0.42826311733E+03  0.42826311733E+03  0.00000000000E+00 0.  1.
          6    2    1    2  501    0  0.13344341811E+03  0.13881773495E+03 -0.21193521367E+03  0.33608642765E+03  0.17595466088E+03 0.  0.
         24    2    3    3    0    0  0.13081734514E+03  0.16929366435E+03 -0.17606630685E+03  0.28871188799E+03  0.81127598782E+02 0.  0.
         -6    2    1    2    0  502 -0.13344341811E+03 -0.13881773495E+03 -0.47527559183E+02  0.26097703416E+03  0.16962498078E+03 0.  0.
        -24    2    5    5    0    0 -0.54619970836E+02 -0.14100884170E+02 -0.56591884761E+02  0.11308626127E+03  0.80023027422E+02 0.  0.
          5    1    3    3  501    0  0.26260729742E+01 -0.30475929394E+02 -0.35868906818E+02  0.47374539660E+02  0.47000000000E+01 0. -1.
        -11    1    4    4    0    0  0.10659894818E+03  0.16357276586E+03 -0.17738871366E+03  0.26379185207E+03  0.00000000000E+00 0.  1.
         12    1    4    4    0    0  0.24218396960E+02  0.57208984899E+01  0.13224068100E+01  0.24920035927E+02  0.00000000000E+00 0. -1.
         -5    1    5    5    0  502 -0.78823447273E+02 -0.12471685078E+03  0.90643255779E+01  0.14789077289E+03  0.47000000000E+01 0.  1.
         13    1    6    6    0    0 -0.74012585641E+02 -0.14105978423E+00 -0.42702421445E+02  0.85448110151E+02  0.00000000000E+00 0. -1.
        -14    1    6    6    0    0  0.19392614805E+02 -0.13959824386E+02 -0.13889463316E+02  0.27638151115E+02  0.00000000000E+00 0.  1.
</event>
<event>
12    1  0.1597826E-001  0.2278281E+03  0.7818608E-02  0.1132414E+00
         21   -1    0    0  501  502  0.00000000000E+00  0.00000000000E+00  0.37678008371E+03  0.37678008371E+03  0.00000000000E+00 0.  1.
         21   -1    0    0  502  503 -0.00000000000E+00 -0.00000000000E+00 -0.12486394590E+03  0.12486394590E+03  0.00000000000E+00 0. -1.
         -6    2    1    2    0  503 -0.79798173288E+02  0.10110423862E+03  0.13309888019E+03  0.24469427662E+03  0.15990672774E+03 0.  0.
        -24    2    3    3    0    0 -0.76007612448E+02  0.36404234921E+02  0.27216573391E+02  0.12046218849E+03  0.81657648247E+02 0.  0.
          6    2    1    2  501    0  0.79798173288E+02 -0.10110423862E+03  0.11881725762E+03  0.25694975298E+03  0.18792503644E+03 0.  0.
         24    2    5    5    0    0 -0.29000735731E+02 -0.65364249692E+02  0.87463059646E+02  0.13812330331E+03  0.79465289925E+02 0.  0.
          5    1    5    5  501    0  0.10879890902E+03 -0.35739988927E+02  0.31354197976E+02  0.11882644968E+03  0.47000000000E+01 0. -1.
        -11    1    6    6    0    0 -0.14450817127E+02 -0.37584903760E+02  0.97262757092E+02  0.10526868016E+03  0.00000000000E+00 0.  1.
         12    1    6    6    0    0 -0.14549918604E+02 -0.27779345932E+02 -0.97996974462E+01  0.32854623142E+02  0.00000000000E+00 0. -1.
         -5    1    3    3    0  503 -0.37905608395E+01  0.64700003698E+02  0.10588230680E+03  0.12423208814E+03  0.47000000000E+01 0.  1.
         11    1    4    4    0    0 -0.60989121435E+02 -0.53572663876E+01  0.41357528798E+02  0.73883817070E+02  0.00000000000E+00 0. -1.
        -12    1    4    4    0    0 -0.15018491013E+02  0.41761501309E+02 -0.14140955407E+02  0.46578371415E+02  0.00000000000E+00 0.  1.
</event>
<event>
12    1  0.1597826E-001  0.2042815E+03  0.7818608E-02  0.1146222E+00
         21   -1    0    0  503  502  0.00000000000E+00  0.00000000000E+00  0.30785179061E+02  0.30785179061E+02  0.00000000000E+00 0.  1.
         21   -1    0    0  501  503 -0.00000000000E+00 -0.00000000000E+00 -0.13702549758E+04  0.13702549758E+04  0.00000000000E+00 0.  1.
          6    2    1    2  501    0 -0.24336369694E+02 -0.10751634734E+03 -0.59399399258E+03  0.62813995725E+03  0.17198522855E+03 0.  0.
         24    2    3    3    0    0 -0.20363645314E+01 -0.11408148414E+03 -0.58668732825E+03  0.60332325733E+03  0.82329823860E+02 0.  0.
         -6    2    1    2    0  502  0.24336369694E+02  0.10751634734E+03 -0.74547580415E+03  0.77290019760E+03  0.17172220895E+03 0.  0.
        -24    2    5    5    0    0 -0.71474552869E+01  0.11143902019E+03 -0.71689167485E+03  0.72993787637E+03  0.80036795006E+02 0.  0.
          5    1    3    3  501    0 -0.22300005163E+02  0.65651368030E+01 -0.73066643306E+01  0.24816699925E+02  0.47000000000E+01 0. -1.
        -11    1    4    4    0    0 -0.38785701687E+02 -0.33701850787E+02 -0.18318320468E+03  0.19025307324E+03  0.00000000000E+00 0.  1.
         12    1    4    4    0    0  0.36749337156E+02 -0.80379633352E+02 -0.40350412358E+03  0.41307018409E+03  0.00000000000E+00 0. -1.
         -5    1    5    5    0  502  0.31483824981E+02 -0.39226728567E+01 -0.28584129306E+02  0.42962321236E+02  0.47000000000E+01 0.  1.
         11    1    6    6    0    0 -0.48603320574E+01 -0.10694585826E+02 -0.29080200764E+02  0.31363275821E+02  0.00000000000E+00 0. -1.
        -12    1    6    6    0    0 -0.22871232295E+01  0.12213360602E+03 -0.68781147408E+03  0.69857460055E+03  0.00000000000E+00 0.  1.
</event>
<event>
12    1  0.1597826E-001  0.1739002E+03  0.7818608E-02  0.1173854E+00
         21   -1    0    0  501  502  0.00000000000E+00  0.00000000000E+00  0.32359008569E+03  0.32359008569E+03  0.00000000000E+00 0.  1.
         21   -1    0    0  502  503 -0.00000000000E+00 -0.00000000000E+00 -0.95215736529E+02  0.95215736529E+02  0.00000000000E+00 0.  1.
         -6    2    1    2    0  503 -0.54128072355E+01  0.27909780851E+02  0.85463859304E+02  0.19371765187E+03  0.17150569393E+03 0.  0.
        -24    2    3    3    0    0 -0.31228219486E+02  0.74794781624E+02  0.31146576933E+02  0.11731676201E+03  0.78890128305E+02 0.  0.
          6    2    1    2  501    0  0.54128072355E+01 -0.27909780851E+02  0.14291048985E+03  0.22508817034E+03  0.17156054899E+03 0.  0.
         24    2    5    5    0    0  0.10643757970E+02 -0.29123575579E+02  0.17382812214E+03  0.19335764672E+03  0.78800325266E+02 0.  0.
          5    1    5    5  501    0 -0.52309507342E+01  0.12137947282E+01 -0.30917632284E+02  0.31730523621E+02  0.47000000000E+01 0. -1.
        -13    1    6    6    0    0  0.41008241062E+01 -0.55306056276E+02  0.13614871071E+03  0.14701036715E+03  0.00000000000E+00 0.  1.
         14    1    6    6    0    0  0.65429338635E+01  0.26182480697E+02  0.37679411422E+02  0.46347279576E+02  0.00000000000E+00 0. -1.
         -5    1    3    3    0  503  0.25815412251E+02 -0.46885000773E+02  0.54317282371E+02  0.76400889860E+02  0.47000000000E+01 0.  1.
         11    1    4    4    0    0 -0.24406694393E+02  0.72891673339E+00 -0.16056278700E+02  0.29223657138E+02  0.00000000000E+00 0. -1.
        -12    1    4    4    0    0 -0.68215250929E+01  0.74065864890E+02  0.47202855633E+02  0.88093104875E+02  0.00000000000E+00 0.  1.
</event>
<event>
12    1  0.1597826E-001  0.2234336E+03  0.7818608E-02  0.1131788E+00
         21   -1    0    0  501  502  0.00000000000E+00  0.00000000000E+00  0.63343491806E+02  0.63343491806E+02  0.00000000000E+00 0.  1.
         21   -1    0    0  502  503 -0.00000000000E+00 -0.00000000000E+00 -0.97778548155E+03  0.97778548155E+03  0.00000000000E+00 0. -1.
         -6    2    1    2    0  503 -0.13002561371E+03  0.57458905508E+02 -0.22097080769E+03  0.31255168611E+03  0.16926982187E+03 0.  0.
        -24    2    3    3    0    0 -0.87113701794E+02 -0.21716771684E+02 -0.17147798288E+03  0.20968356787E+03  0.80635505876E+02 0.  0.
          6    2    1    2  501    0  0.13002561371E+03 -0.57458905508E+02 -0.69347118205E+03  0.72857728725E+03  0.17237864458E+03 0.  0.
         24    2    5    5    0    0  0.10919736320E+03 -0.94740310221E+02 -0.63379098149E+03  0.65504134028E+03  0.80550349147E+02 0.  0.
          5    1    5    5  501    0  0.20828250511E+02  0.37281404713E+02 -0.59680200563E+02  0.73535946965E+02  0.47000000000E+01 0. -1.
        -13    1    6    6    0    0 -0.10665825484E+02 -0.22517045547E+02 -0.76837503639E+02  0.80776105000E+02  0.00000000000E+00 0.  1.
         14    1    6    6    0    0  0.11986318869E+03 -0.72223264674E+02 -0.55695347785E+03  0.57426523528E+03  0.00000000000E+00 0. -1.
         -5    1    3    3    0  503 -0.42911911920E+02  0.79175677191E+02 -0.49492824810E+02  0.10286811824E+03  0.47000000000E+01 0.  1.
         11    1    4    4    0    0 -0.56736122553E+02  0.13251067909E+02 -0.14514349908E+03  0.15640081115E+03  0.00000000000E+00 0. -1.
        -12    1    4    4    0    0 -0.30377579241E+02 -0.34967839592E+02 -0.26334483801E+02  0.53282756717E+02  0.00000000000E+00 0.  1.
</event>
<event>
12    1  0.1597826E-001  0.2001442E+03  0.7818608E-02  0.1151389E+00
         21   -1    0    0  501  502  0.00000000000E+00  0.00000000000E+00  0.13663686040E+03  0.13663686040E+03  0.00000000000E+00 0.  1.
         21   -1    0    0  502  503 -0.00000000000E+00 -0.00000000000E+00 -0.49495258146E+03  0.49495258146E+03  0.00000000000E+00 0. -1.
         -6    2    1    2    0  503  0.69397254594E+02 -0.50695800737E+02 -0.38450165472E+03  0.42973952039E+03  0.17160562271E+03 0.  0.
        -24    2    3    3    0    0  0.55671551471E+01 -0.58712205667E+02 -0.33191186298E+03  0.34651500153E+03  0.80181326951E+02 0.  0.
          6    2    1    2  501    0 -0.69397254594E+02  0.50695800737E+02  0.26185933655E+02  0.20184992147E+03  0.18075299311E+03 0.  0.
         24    2    5    5    0    0  0.45826545330E+01  0.81932766236E+02  0.38932264639E+02  0.12040463971E+03  0.79041616428E+02 0.  0.
          5    1    5    5  501    0 -0.73979909126E+02 -0.31236965499E+02 -0.12746330984E+02  0.81445281763E+02  0.47000000000E+01 0. -1.
        -13    1    6    6    0    0 -0.19878555640E+02  0.43533172480E+02  0.54274433679E+02  0.72360266940E+02  0.00000000000E+00 0.  1.
         14    1    6    6    0    0  0.24461210173E+02  0.38399593756E+02 -0.15342169040E+02  0.48044372767E+02  0.00000000000E+00 0. -1.
         -5    1    3    3    0  503  0.63830099446E+02  0.80164049301E+01 -0.52589791741E+02  0.83224518855E+02  0.47000000000E+01 0.  1.
         13    1    4    4    0    0  0.37641551239E+02 -0.32615702051E+02 -0.24819530040E+03  0.25314339324E+03  0.00000000000E+00 0. -1.
        -14    1    4    4    0    0 -0.32074396092E+02 -0.26096503615E+02 -0.83716562575E+02  0.93371608291E+02  0.00000000000E+00 0.  1.
</event>
<event>
12    1  0.1597826E-001  0.2114917E+03  0.7818608E-02  0.1140691E+00
         21   -1    0    0  501  502  0.00000000000E+00  0.00000000000E+00  0.12496004837E+03  0.12496004837E+03  0.00000000000E+00 0.  1.
         21   -1    0    0  502  503 -0.00000000000E+00 -0.00000000000E+00 -0.93756325826E+03  0.93756325826E+03  0.00000000000E+00 0.  1.
         -6    2    1    2    0  503  0.91579463791E+02  0.82258299031E+02 -0.82438587362E+03  0.85070366231E+03  0.17009240576E+03 0.  0.
        -24    2    3    3    0    0  0.64330506480E+00 -0.17776346851E+02 -0.26475841791E+03  0.27495953987E+03  0.72036909722E+02 0.  0.
          6    2    1    2  501    0 -0.91579463791E+02 -0.82258299031E+02  0.11782663729E+02  0.21181964432E+03  0.17197530232E+03 0.  0.
         24    2    5    5    0    0 -0.77151623960E+02 -0.49604570053E+02  0.80772064858E+02  0.13399897838E+03  0.54941908383E+02 0.  0.
          5    1    5    5  501    0 -0.14427839831E+02 -0.32653728978E+02 -0.68989401129E+02  0.77820665934E+02  0.47000000000E+01 0. -1.
        -13    1    6    6    0    0 -0.73773387034E+02 -0.32873741512E+02  0.40696568229E+02  0.90440069555E+02  0.00000000000E+00 0.  1.
         14    1    6    6    0    0 -0.33782369265E+01 -0.16730828541E+02  0.40075496628E+02  0.43558908829E+02  0.00000000000E+00 0. -1.
         -5    1    3    3    0  503  0.90936158726E+02  0.10003464588E+03 -0.55962745571E+03  0.57574412244E+03  0.47000000000E+01 0.  1.
         11    1    4    4    0    0  0.27363409086E+02 -0.33441452844E+02 -0.15712969236E+03  0.16296265568E+03  0.00000000000E+00 0. -1.
        -12    1    4    4    0    0 -0.26720104022E+02  0.15665105992E+02 -0.10762872556E+03  0.11199688419E+03  0.00000000000E+00 0.  1.
</event>
<event>
12    1  0.1597826E-001  0.2553854E+03  0.7818608E-02  0.1110082E+00
         21   -1    0    0  503  502  0.00000000000E+00  0.00000000000E+00  0.36215476674E+02  0.36215476674E+02  0.00000000000E+00 0.  1.
         21   -1    0    0  501  503 -0.00000000000E+00 -0.00000000000E+00 -0.18377888783E+04  0.18377888783E+04  0.00000000000E+00 0. -1.
          6    2    1    2  501    0 -0.12468033335E+03  0.13974127819E+03 -0.75594421348E+03  0.79763912717E+03  0.17234765139E+03 0.  0.
         24    2    3    3    0    0 -0.10479096047E+03  0.13815022330E+03 -0.42693371867E+03  0.46799065637E+03  0.81708167957E+02 0.  0.
         -6    2    1    2    0  502  0.12468033335E+03 -0.13974127819E+03 -0.10456291881E+04  0.10763652278E+04  0.17363436922E+03 0.  0.
        -24    2    5    5    0    0  0.30951061600E+02 -0.12254317012E+03 -0.47338756496E+03  0.49622428234E+03  0.78536328950E+02 0.  0.
          5    1    3    3  501    0 -0.19889372874E+02  0.15910548984E+01 -0.32901049481E+03  0.32964847080E+03  0.47000000000E+01 0. -1.
        -11    1    4    4    0    0 -0.10825913071E+03  0.12565105274E+03 -0.42312750634E+03  0.45447234575E+03  0.00000000000E+00 0.  1.
         12    1    4    4    0    0  0.34681702384E+01  0.12499170557E+02 -0.38062123371E+01  0.13518310611E+02  0.00000000000E+00 0. -1.
         -5    1    5    5    0  502  0.93729271748E+02 -0.17198108074E+02 -0.57224162317E+03  0.58014094545E+03  0.47000000000E+01 0.  1.
         11    1    6    6    0    0 -0.42592992618E+01 -0.10175833245E+03 -0.39368733038E+03  0.40664802220E+03  0.00000000000E+00 0. -1.
        -12    1    6    6    0    0  0.35210360862E+02 -0.20784837672E+02 -0.79700234580E+02  0.89576260143E+02  0.00000000000E+00 0.  1.
</event>
<event>
12    1  0.1597826E-001  0.3132884E+03  0.7818608E-02  0.1078846E+00
         21   -1    0    0  501  502  0.00000000000E+00  0.00000000000E+00  0.34067861733E+03  0.34067861733E+03  0.00000000000E+00 0. -1.
         21   -1    0    0  502  503 -0.00000000000E+00 -0.00000000000E+00 -0.50853549051E+03  0.50853549051E+03  0.00000000000E+00 0.  1.
         -6    2    1    2    0  503  0.93188412394E+02  0.24421014693E+03 -0.36376252073E+03  0.47971632227E+03  0.17170294784E+03 0.  0.
        -24    2    3    3    0    0  0.50261440061E+02  0.98725911836E+02 -0.78908632940E+02  0.15695911475E+03  0.78336283592E+02 0.  0.
          6    2    1    2  501    0 -0.93188412394E+02 -0.24421014693E+03  0.19590564755E+03  0.36949778558E+03  0.17270470386E+03 0.  0.
         24    2    5    5    0    0 -0.98592526815E+02 -0.13654188984E+03  0.58446776410E+02  0.19474456159E+03  0.78391610348E+02 0.  0.
          5    1    5    5  501    0  0.54041144212E+01 -0.10766825709E+03  0.13745887114E+03  0.17475322398E+03  0.47000000000E+01 0. -1.
        -11    1    6    6    0    0 -0.57420948451E+02 -0.18011483626E+02  0.22097398840E+02  0.64108298206E+02  0.00000000000E+00 0.  1.
         12    1    6    6    0    0 -0.41171578364E+02 -0.11853040621E+03  0.36349377571E+02  0.13063626339E+03  0.00000000000E+00 0. -1.
         -5    1    3    3    0  503  0.42926972333E+02  0.14548423509E+03 -0.28485388779E+03  0.32275720751E+03  0.47000000000E+01 0.  1.
         13    1    4    4    0    0  0.69202414538E+01 -0.12111013355E+02  0.38316207421E+00  0.13953967158E+02  0.00000000000E+00 0. -1.
        -14    1    4    4    0    0  0.43341198607E+02  0.11083692519E+03 -0.79291795014E+02  0.14300514760E+03  0.00000000000E+00 0.  1.
</event>
<event>
12    1  0.1597826E-001  0.2020495E+03  0.7818608E-02  0.1149004E+00
         21   -1    0    0  503  502  0.00000000000E+00  0.00000000000E+00  0.26064062045E+03  0.26064062045E+03  0.00000000000E+00 0.  1.
         21   -1    0    0  501  503 -0.00000000000E+00 -0.00000000000E+00 -0.15759800384E+03  0.15759800384E+03  0.00000000000E+00 0. -1.
          6    2    1    2  501    0  0.52116443812E+02 -0.81749637316E+02  0.16527852035E+02  0.20272438221E+03  0.17727063585E+03 0.  0.
         24    2    3    3    0    0  0.72474836157E+02 -0.78896585522E+02  0.66408135134E+02  0.14856963463E+03  0.78648730699E+02 0.  0.
         -6    2    1    2    0  502 -0.52116443812E+02  0.81749637316E+02  0.86514764579E+02  0.21551424208E+03  0.17193736398E+03 0.  0.
        -24    2    5    5    0    0  0.33790808433E+02  0.14290041199E+02  0.54458834501E+02  0.10158213181E+03  0.77505747118E+02 0.  0.
          5    1    3    3  501    0 -0.20358392345E+02 -0.28530517945E+01 -0.49880283099E+02  0.54154747580E+02  0.47000000000E+01 0. -1.
        -11    1    4    4    0    0  0.66741473835E+02 -0.67950371071E+02  0.15889425410E+02  0.96561644032E+02  0.00000000000E+00 0.  1.
         12    1    4    4    0    0  0.57333623224E+01 -0.10946214451E+02  0.50518709724E+02  0.52007990603E+02  0.00000000000E+00 0. -1.
         -5    1    5    5    0  502 -0.85907252245E+02  0.67459596118E+02  0.32055930078E+02  0.11393211027E+03  0.47000000000E+01 0.  1.
         13    1    6    6    0    0  0.28553421971E+02 -0.23998001308E+02  0.50434864779E+02  0.62728602394E+02  0.00000000000E+00 0. -1.
        -14    1    6    6    0    0  0.52373864625E+01  0.38288042506E+02  0.40239697217E+01  0.38853529418E+02  0.00000000000E+00 0.  1.
</event>
<event>
12    1  0.1597826E-001  0.2039366E+03  0.7818608E-02  0.1148135E+00
         21   -1    0    0  501  502  0.00000000000E+00  0.00000000000E+00  0.39692154431E+03  0.39692154431E+03  0.00000000000E+00 0. -1.
         21   -1    0    0  502  503 -0.00000000000E+00 -0.00000000000E+00 -0.10982117493E+03  0.10982117493E+03  0.00000000000E+00 0.  1.
         -6    2    1    2    0  503  0.80170546489E+02  0.54449608317E+02  0.73266076279E+02  0.21669810523E+03  0.17943821919E+03 0.  0.
        -24    2    3    3    0    0 -0.93207198365E+01  0.64640545604E+02  0.35340363602E+01  0.10269288893E+03  0.79171106283E+02 0.  0.
          6    2    1    2  501    0 -0.80170546489E+02 -0.54449608317E+02  0.21383429310E+03  0.29004461401E+03  0.17031939654E+03 0.  0.
         24    2    5    5    0    0 -0.15076237956E+02  0.24410629649E+02  0.14980650892E+03  0.16930583282E+03  0.73479950470E+02 0.  0.
          5    1    5    5  501    0 -0.65094308533E+02 -0.78860237966E+02  0.64027784179E+02  0.12073878119E+03  0.47000000000E+01 0. -1.
        -11    1    6    6    0    0 -0.19664664883E+02  0.33497542579E+02  0.30030490551E+02  0.49098011839E+02  0.00000000000E+00 0.  1.
         12    1    6    6    0    0  0.45884269268E+01 -0.90869129306E+01  0.11977601837E+03  0.12020782098E+03  0.00000000000E+00 0. -1.
         -5    1    3    3    0  503  0.89491266326E+02 -0.10190937286E+02  0.69732039919E+02  0.11400521630E+03  0.47000000000E+01 0.  1.
         11    1    4    4    0    0  0.87669438818E+01  0.33449607697E+02 -0.35497618221E+02  0.49556194966E+02  0.00000000000E+00 0. -1.
        -12    1    4    4    0    0 -0.18087663718E+02  0.31190937906E+02  0.39031654582E+02  0.53136693966E+02  0.00000000000E+00 0.  1.
</event>
<event>
12    1  0.1597826E-001  0.1910758E+03  0.7818608E-02  0.1157499E+00
         21   -1    0    0  503  502  0.00000000000E+00  0.00000000000E+00  0.16747888617E+03  0.16747888617E+03  0.00000000000E+00 0. -1.
         21   -1    0    0  501  503 -0.00000000000E+00 -0.00000000000E+00 -0.22834929330E+03  0.22834929330E+03  0.00000000000E+00 0.  1.
          6    2    1    2  501    0  0.79872524659E+02  0.56742810164E+01  0.11745882260E+02  0.19143652967E+03  0.17348821712E+03 0.  0.
         24    2    3    3    0    0  0.95515624653E+01 -0.59657265248E+02 -0.16473396128E+02  0.91278323142E+02  0.66408868784E+02 0.  0.
         -6    2    1    2    0  502 -0.79872524659E+02 -0.56742810164E+01 -0.72616289389E+02  0.20439164980E+03  0.17346758592E+03 0.  0.
        -24    2    5    5    0    0  0.52000849382E+01  0.41675294694E+02 -0.20650986603E+02  0.93929828719E+02  0.81440029496E+02 0.  0.
          5    1    3    3  501    0  0.70320962194E+02  0.65331546265E+02  0.28219278388E+02  0.10015820652E+03  0.47000000000E+01 0. -1.
        -13    1    4    4    0    0 -0.24372726322E+02 -0.74369001502E+01 -0.13730243353E+02  0.28945757112E+02  0.00000000000E+00 0.  1.
         14    1    4    4    0    0  0.33924288788E+02 -0.52220365098E+02 -0.27431527751E+01  0.62332566030E+02  0.00000000000E+00 0. -1.
         -5    1    5    5    0  502 -0.85072609597E+02 -0.47349575710E+02 -0.51965302787E+02  0.11046182108E+03  0.47000000000E+01 0.  1.
         13    1    6    6    0    0 -0.20302213889E+02 -0.14191536733E+02  0.81805629887E+01  0.26086418199E+02  0.00000000000E+00 0. -1.
        -14    1    6    6    0    0  0.25502298827E+02  0.55866831427E+02 -0.28831549591E+02  0.67843410520E+02  0.00000000000E+00 0.  1.
</event>
<event>
12    1  0.1597826E-001  0.2769867E+03  0.7818608E-02  0.1097407E+00
         21   -1    0    0  503  502  0.00000000000E+00  0.00000000000E+00  0.12509220077E+04  0.12509220077E+04  0.00000000000E+00 0.  1.
         21   -1    0    0  501  503 -0.00000000000E+00 -0.00000000000E+00 -0.14541806392E+03  0.14541806392E+03  0.00000000000E+00 0.  1.
          6    2    1    2  501    0 -0.13638882805E+03  0.16896224526E+03  0.21729314269E+02  0.27783767305E+03  0.17196353313E+03 0.  0.
         24    2    3    3    0    0 -0.64404387585E+02  0.73727463574E+01  0.79963330411E+01  0.10034510814E+03  0.76176878752E+02 0.  0.
         -6    2    1    2    0  502  0.13638882805E+03 -0.16896224526E+03  0.10837746295E+04  0.11185023986E+04  0.17126008088E+03 0.  0.
        -24    2    5    5    0    0  0.11687002599E+02 -0.33876706390E+02  0.26482969958E+03  0.27916245770E+03  0.80701243763E+02 0.  0.
          5    1    3    3  501    0 -0.71984440464E+02  0.16158949890E+03  0.13732981228E+02  0.17749256491E+03  0.47000000000E+01 0. -1.
        -11    1    4    4    0    0 -0.53931993654E+01 -0.90862026093E+00 -0.29458641548E+02  0.29962038516E+02  0.00000000000E+00 0.  1.
         12    1    4    4    0    0 -0.59011188220E+02  0.82813666184E+01  0.37454974589E+02  0.70383069624E+02  0.00000000000E+00 0. -1.
         -5    1    5    5    0  502  0.12470182545E+03 -0.13508553887E+03  0.81894492995E+03  0.83933994089E+03  0.47000000000E+01 0.  1.
         13    1    6    6    0    0 -0.32760266062E+02 -0.24454485022E+02  0.96355069955E+02  0.10466879371E+03  0.00000000000E+00 0. -1.
        -14    1    6    6    0    0  0.44447268661E+02 -0.94222213683E+01  0.16847462962E+03  0.17449366399E+03  0.00000000000E+00 0.  1.
</event>
<event>
12    1  0.1597826E-001  0.2257384E+03  0.7818608E-02  0.1132413E+00
         21   -1    0    0  501  502  0.00000000000E+00  0.00000000000E+00  0.45051398570E+03  0.45051398570E+03  0.00000000000E+00 0. -1.
         21   -1    0    0  502  503 -0.00000000000E+00 -0.00000000000E+00 -0.10605802423E+03  0.10605802423E+03  0.00000000000E+00 0. -1.
         -6    2    1    2    0  503 -0.12387295815E+03 -0.16494024910E+02  0.16693086979E+03  0.28075566113E+03  0.18799272154E+03 0.  0.
        -24    2    3    3    0    0 -0.78183757010E+02  0.25358348164E+02 -0.21334009248E+00  0.10243459920E+03  0.61131464222E+02 0.  0.
          6    2    1    2  501    0  0.12387295815E+03  0.16494024910E+02  0.17752509169E+03  0.27581634880E+03  0.17012623979E+03 0.  0.
         24    2    5    5    0    0  0.11873105735E+02  0.31495909969E+02  0.36988042900E+02  0.95422957624E+02  0.81267844438E+02 0.  0.
          5    1    5    5  501    0  0.11199985242E+03 -0.15001885059E+02  0.14053704879E+03  0.18039339118E+03  0.47000000000E+01 0. -1.
        -11    1    6    6    0    0 -0.23361474991E+02  0.57423339428E+01  0.45022326268E+02  0.51046476621E+02  0.00000000000E+00 0.  1.
         12    1    6    6    0    0  0.35234580725E+02  0.25753576026E+02 -0.80342833680E+01  0.44376481003E+02  0.00000000000E+00 0. -1.
         -5    1    3    3    0  503 -0.45689201144E+02 -0.41852373074E+02  0.16714420988E+03  0.17832106193E+03  0.47000000000E+01 0.  1.
         11    1    4    4    0    0 -0.18619511052E+02  0.82618634570E+01 -0.27913706039E+02  0.34556035138E+02  0.00000000000E+00 0. -1.
        -12    1    4    4    0    0 -0.59564245958E+02  0.17096484707E+02  0.27700365947E+02  0.67878564064E+02  0.00000000000E+00 0.  1.
</event>
<event>
12    1  0.1597826E-001  0.1995760E+03  0.7818608E-02  0.1150276E+00
         21   -1    0    0  503  502  0.00000000000E+00  0.00000000000E+00  0.51188071544E+02  0.51188071544E+02  0.00000000000E+00 0. -1.
         21   -1    0    0  501  503 -0.00000000000E+00 -0.00000000000E+00 -0.89221484287E+03  0.89221484287E+03  0.00000000000E+00 0.  1.
          6    2    1    2  501    0 -0.56734114354E+02 -0.83161758308E+02 -0.59238028266E+03  0.62509596486E+03  0.17232506557E+03 0.  0.
         24    2    3    3    0    0 -0.36391011955E+02 -0.11574843457E+03 -0.33986443312E+03  0.36963152985E+03  0.79985180529E+02 0.  0.
         -6    2    1    2    0  502  0.56734114354E+02  0.83161758308E+02 -0.24864648867E+03  0.31830694956E+03  0.17134643280E+03 0.  0.
        -24    2    5    5    0    0  0.60321502232E+01  0.10848642458E+03 -0.20976774593E+03  0.24941809324E+03  0.80007417444E+02 0.  0.
          5    1    3    3  501    0 -0.20343102399E+02  0.32586676260E+02 -0.25251584954E+03  0.25546443501E+03  0.47000000000E+01 0. -1.
        -13    1    4    4    0    0 -0.55599486665E+02 -0.11250745840E+03 -0.28483149603E+03  0.31125265018E+03  0.00000000000E+00 0.  1.
         14    1    4    4    0    0  0.19208474709E+02 -0.32409761724E+01 -0.55032937090E+02  0.58378879674E+02  0.00000000000E+00 0. -1.
         -5    1    5    5    0  502  0.50701964131E+02 -0.25324666270E+02 -0.38878742733E+02  0.68888856319E+02  0.47000000000E+01 0.  1.
         13    1    6    6    0    0  0.31502871014E+02  0.57450446921E+02 -0.58807750152E+02  0.88041673153E+02  0.00000000000E+00 0. -1.
        -14    1    6    6    0    0 -0.25470720791E+02  0.51035977657E+02 -0.15095999578E+03  0.16137642008E+03  0.00000000000E+00 0.  1.
</event>
<event>
12    1  0.1597826E-001  0.1804350E+03  0.7818608E-02  0.1167696E+00
         21   -1    0    0  503  502  0.00000000000E+00  0.00000000000E+00  0.39985403789E+02  0.39985403789E+02  0.00000000000E+00 0.  1.
         21   -1    0    0  501  503 -0.00000000000E+00 -0.00000000000E+00 -0.86638859136E+03  0.86638859136E+03  0.00000000000E+00 0.  1.
          6    2    1    2  501    0  0.31009776004E+02  0.41587233155E+02 -0.52907522540E+03  0.55857991816E+03  0.17146377658E+03 0.  0.
         24    2    3    3    0    0 -0.59905354292E+01  0.89562451434E+02 -0.34026265531E+03  0.36022941718E+03  0.77001553150E+02 0.  0.
         -6    2    1    2    0  502 -0.31009776004E+02 -0.41587233155E+02 -0.29732796218E+03  0.34779407699E+03  0.17281695150E+03 0.  0.
        -24    2    5    5    0    0  0.26385911976E+02 -0.69976434639E+02 -0.22291190801E+03  0.24950851916E+03  0.83497692455E+02 0.  0.
          5    1    3    3  501    0  0.37000311433E+02 -0.47975218279E+02 -0.18881257009E+03  0.19835050098E+03  0.47000000000E+01 0. -1.
        -13    1    4    4    0    0 -0.23451922548E+02  0.32444280990E+02 -0.24161654422E+03  0.24491055200E+03  0.00000000000E+00 0.  1.
         14    1    4    4    0    0  0.17461387119E+02  0.57118170444E+02 -0.98646111085E+02  0.11531886518E+03  0.00000000000E+00 0. -1.
         -5    1    5    5    0  502 -0.57395687980E+02  0.28389201483E+02 -0.74416054166E+02  0.98285557826E+02  0.47000000000E+01 0.  1.
         11    1    6    6    0    0  0.28789436356E+00  0.18368978210E+02 -0.55001152518E+02  0.57988180020E+02  0.00000000000E+00 0. -1.
        -12    1    6    6    0    0  0.26098017613E+02 -0.88345412849E+02 -0.16791075549E+03  0.19152033914E+03  0.00000000000E+00 0.  1.
</event>
<event>
12    1  0.1597826E-001  0.1889075E+03  0.7818608E-02  0.1160241E+00
         21   -1    0    0  501  502  0.00000000000E+00  0.00000000000E+00  0.11643302317E+03  0.11643302317E+03  0.00000000000E+00 0. -1.
         21   -1    0    0  502  503 -0.00000000000E+00 -0.00000000000E+00 -0.13341604910E+04  0.13341604910E+04  0.00000000000E+00 0. -1.
         -6    2    1    2    0  503 -0.48405270918E+02  0.51243372955E+02 -0.12484010084E+04  0.12626128103E+04  0.17526288135E+03 0.  0.
        -24    2    3    3    0    0 -0.41872495610E+02  0.10330677512E+03 -0.90993798528E+03  0.92007437016E+03  0.78256717794E+02 0.  0.
          6    2    1    2  501    0  0.48405270918E+02 -0.51243372955E+02  0.30673540566E+02  0.18798070383E+03  0.17154278007E+03 0.  0.
         24    2    5    5    0    0  0.57277249191E+02 -0.65549953730E+02 -0.33563470281E+02  0.12140838364E+03  0.77691758718E+02 0.  0.
          5    1    5    5  501    0 -0.88719782733E+01  0.14306580775E+02  0.64237010846E+02  0.66572320182E+02  0.47000000000E+01 0. -1.
        -11    1    6    6    0    0  0.50618707305E+02 -0.62926042497E+02  0.62092380323E+01  0.80996882598E+02  0.00000000000E+00 0.  1.
         12    1    6    6    0    0  0.66585418861E+01 -0.26239112333E+01 -0.39772708313E+02  0.40411501046E+02  0.00000000000E+00 0. -1.
         -5    1    3    3    0  503 -0.65327753084E+01 -0.52063402166E+02 -0.33846302311E+03  0.34253844019E+03  0.47000000000E+01 0.  1.
         11    1    4    4    0    0 -0.42493349119E+02  0.14748156709E+02 -0.22656119355E+03  0.23098304541E+03  0.00000000000E+00 0. -1.
        -12    1    4    4    0    0  0.62085350955E+00  0.88558618413E+02 -0.68337679173E+03  0.68909132474E+03  0.00000000000E+00 0.  1.
</event>
<event>
12    1  0.1597826E-001  0.2416570E+03  0.7818608E-02  0.1118738E+00
         21   -1    0    0  501  502  0.00000000000E+00  0.00000000000E+00  0.62923077668E+02  0.62923077668E+02  0.00000000000E+00 0.  1.
         21   -1    0    0  502  503 -0.00000000000E+00 -0.00000000000E+00 -0.11043635683E+04  0.11043635683E+04  0.00000000000E+00 0.  1.
         -6    2    1    2    0  503 -0.17781489249E+02  0.16860892727E+03 -0.75482422523E+03  0.79256402773E+03  0.17220039298E+03 0.  0.
        -24    2    3    3    0    0 -0.39824267947E+02  0.18054555947E+02 -0.35852705624E+03  0.36803365312E+03  0.70676590645E+02 0.  0.
          6    2    1    2  501    0  0.17781489249E+02 -0.16860892727E+03 -0.28661626540E+03  0.37472261824E+03  0.17182259838E+03 0.  0.
         24    2    5    5    0    0 -0.36994002988E+02 -0.16223389843E+03 -0.23765265281E+03  0.30082728076E+03  0.79560514128E+02 0.  0.
          5    1    5    5  501    0  0.54775492236E+02 -0.63750288374E+01 -0.48963612595E+02  0.73895337477E+02  0.47000000000E+01 0. -1.
        -11    1    6    6    0    0  0.13027971554E+02 -0.96364052136E+02 -0.16084063807E+03  0.18795071014E+03  0.00000000000E+00 0.  1.
         12    1    6    6    0    0 -0.50021974541E+02 -0.65869846293E+02 -0.76812014732E+02  0.11287657062E+03  0.00000000000E+00 0. -1.
         -5    1    3    3    0  503  0.22042778699E+02  0.15055437132E+03 -0.39629716899E+03  0.42453037461E+03  0.47000000000E+01 0.  1.
         13    1    4    4    0    0 -0.33019881756E+02  0.15044971951E+01 -0.56364181056E+02  0.65341388178E+02  0.00000000000E+00 0. -1.
        -14    1    4    4    0    0 -0.68043861913E+01  0.16550058751E+02 -0.30216287519E+03  0.30269226495E+03  0.00000000000E+00 0.  1.
</event>
<event>
12    1  0.1597826E-001  0.1870480E+03  0.7818608E-02  0.1164026E+00
         21   -1    0    0  501  502  0.00000000000E+00  0.00000000000E+00  0.13229676807E+03  0.13229676807E+03  0.00000000000E+00 0.  1.
         21   -1    0    0  502  503 -0.00000000000E+00 -0.00000000000E+00 -0.26715321250E+03  0.26715321250E+03  0.00000000000E+00 0.  1.
         -6    2    1    2    0  503  0.48560613775E+01  0.24083969654E+02 -0.11923087852E+03  0.21175045135E+03  0.17325885931E+03 0.  0.
        -24    2    3    3    0    0 -0.54572253504E+02 -0.18550295826E+02 -0.47632147097E+02  0.10929132026E+03  0.79709014045E+02 0.  0.
          6    2    1    2  501    0 -0.48560613775E+01 -0.24083969654E+02 -0.15625565919E+02  0.18769952922E+03  0.18542744142E+03 0.  0.
         24    2    5    5    0    0  0.10077557459E+02  0.49194230677E+02  0.30547869312E+02  0.99683713953E+02  0.80511123528E+02 0.  0.
          5    1    5    5  501    0 -0.14933618837E+02 -0.73278200331E+02 -0.46173435231E+02  0.88015815263E+02  0.47000000000E+01 0. -1.
        -11    1    6    6    0    0 -0.19953067757E+02  0.14169185542E+02  0.45095491248E+02  0.51307836270E+02  0.00000000000E+00 0.  1.
         12    1    6    6    0    0  0.30030625217E+02  0.35025045135E+02 -0.14547621936E+02  0.48375877683E+02  0.00000000000E+00 0. -1.
         -5    1    3    3    0  503  0.59428314882E+02  0.42634265480E+02 -0.71598731419E+02  0.10245913109E+03  0.47000000000E+01 0.  1.
         11    1    4    4    0    0 -0.29495348474E+02 -0.25305278436E+02  0.14868086442E+02  0.41610007124E+02  0.00000000000E+00 0. -1.
        -12    1    4    4    0    0 -0.25076905030E+02  0.67549826102E+01 -0.62500233539E+02  0.67681313140E+02  0.00000000000E+00 0.  1.
</event>
<event>
12    1  0.1597826E-001  0.2115265E+03  0.7818608E-02  0.1140615E+00
         21   -1    0    0  501  502  0.00000000000E+00  0.00000000000E+00  0.76642399399E+03  0.76642399399E+03  0.00000000000E+00 0.  1.
         21   -1    0    0  502  503 -0.00000000000E+00 -0.00000000000E+00 -0.66953542965E+02  0.66953542965E+02  0.00000000000E+00 0. -1.
         -6    2    1    2    0  503 -0.91865544349E-01  0.12265995761E+03  0.19666352200E+03  0.28788850476E+03  0.17075648346E+03 0.  0.
        -24    2    3    3    0    0 -0.44150721668E+02  0.14620521056E+02  0.76929034091E+02  0.12063976710E+03  0.80453907668E+02 0.  0.
          6    2    1    2  501    0  0.91865544349E-01 -0.12265995761E+03  0.50280692903E+03  0.54548903220E+03  0.17233108464E+03 0.  0.
         24    2    5    5    0    0  0.65740444191E+02 -0.65725999600E+02  0.26310973097E+03  0.29048305539E+03  0.80696728013E+02 0.  0.
          5    1    5    5  501    0 -0.65648578647E+02 -0.56933958010E+02  0.23969719806E+03  0.25500597681E+03  0.47000000000E+01 0. -1.
        -11    1    6    6    0    0  0.36944023738E+02 -0.74169371857E+02  0.23569870774E+03  0.24983962344E+03  0.00000000000E+00 0.  1.
         12    1    6    6    0    0  0.28796420453E+02  0.84433722572E+01  0.27411023229E+02  0.40643431947E+02  0.00000000000E+00 0. -1.
         -5    1    3    3    0  503  0.44058856124E+02  0.10803943655E+03  0.11973448791E+03  0.16724873766E+03  0.47000000000E+01 0.  1.
         11    1    4    4    0    0  0.20882453389E+02  0.10087776575E+01  0.28019858848E+01  0.21093734065E+02  0.00000000000E+00 0. -1.
        -12    1    4    4    0    0 -0.65033175057E+02  0.13611743398E+02  0.74127048206E+02  0.99546033031E+02  0.00000000000E+00 0.  1.
</event>
<event>
12    1  0.1597826E-001  0.1862321E+03  0.7818608E-02  0.1163809E+00
         21   -1    0    0  503  502  0.00000000000E+00  0.00000000000E+00  0.71545766756E+03  0.71545766756E+03  0.00000000000E+00 0. -1.
         21   -1    0    0  501  503 -0.00000000000E+00 -0.00000000000E+00 -0.10210668339E+03  0.10210668339E+03  0.00000000000E+00 0. -1.
          6    2    1    2  501    0  0.17234577249E+02 -0.71359814911E+02  0.78609617486E+01  0.18639790324E+03  0.17115235836E+03 0.  0.
         24    2    3    3    0    0 -0.24520524920E+02 -0.83403574445E+02  0.26965858563E+02  0.13869436266E+03  0.10464968387E+03 0.  0.
         -6    2    1    2    0  502 -0.17234577249E+02  0.71359814911E+02  0.60549002243E+03  0.63116644771E+03  0.16236891212E+03 0.  0.
        -24    2    5    5    0    0  0.20948106620E+02  0.82404635346E+02  0.55311897926E+03  0.56525194576E+03  0.79622922987E+02 0.  0.
          5    1    3    3  501    0  0.41755102168E+02  0.12043759535E+02 -0.19104896814E+02  0.47703540572E+02  0.47000000000E+01 0. -1.
        -11    1    4    4    0    0 -0.41163765082E+02 -0.43829717474E+02  0.59680743699E+02  0.84718893159E+02  0.00000000000E+00 0.  1.
         12    1    4    4    0    0  0.16643240162E+02 -0.39573856972E+02 -0.32714885137E+02  0.53975469504E+02  0.00000000000E+00 0. -1.
         -5    1    5    5    0  502 -0.38182683869E+02 -0.11044820435E+02  0.52371043167E+02  0.65914501957E+02  0.47000000000E+01 0.  1.
         13    1    6    6    0    0  0.20765495467E+01 -0.53435414438E+01  0.22515720163E+03  0.22523017324E+03  0.00000000000E+00 0. -1.
        -14    1    6    6    0    0  0.18871557073E+02  0.87748176789E+02  0.32796177763E+03  0.34002177252E+03  0.00000000000E+00 0.  1.
</event>
<event>
12    1  0.1597826E-001  0.2379179E+03  0.7818608E-02  0.1121540E+00
         21   -1    0    0  503  502  0.00000000000E+00  0.00000000000E+00  0.34163805977E+03  0.34163805977E+03  0.00000000000E+00 0. -1.
         21   -1    0    0  501  503 -0.00000000000E+00 -0.00000000000E+00 -0.34678818834E+03  0.34678818834E+03  0.00000000000E+00 0. -1.
          6    2    1    2  501    0  0.14656713910E+03  0.71531497756E+02 -0.25231603692E+03  0.34679720106E+03  0.17322307797E+03 0.  0.
         24    2    3    3    0    0  0.33020820032E+02  0.85187925911E+01 -0.36050915303E+02  0.94495674286E+02  0.80416537986E+02 0.  0.
         -6    2    1    2    0  502 -0.14656713910E+03 -0.71531497756E+02  0.24716590835E+03  0.34162904705E+03  0.17035474194E+03 0.  0.
        -24    2    5    5    0    0 -0.82618912122E+02 -0.46483447977E+02  0.50638335164E+02  0.13339370530E+03  0.79012935959E+02 0.  0.
          5    1    3    3  501    0  0.11354631907E+03  0.63012705165E+02 -0.21626512161E+03  0.25230152678E+03  0.47000000000E+01 0. -1.
        -13    1    4    4    0    0  0.12513791643E+02  0.11057624841E+02 -0.60338819320E+02  0.62607021694E+02  0.00000000000E+00 0.  1.
         14    1    4    4    0    0  0.20507028390E+02 -0.25388322495E+01  0.24287904017E+02  0.31888652592E+02  0.00000000000E+00 0. -1.
         -5    1    5    5    0  502 -0.63948226983E+02 -0.25048049780E+02  0.19652757318E+03  0.20823534175E+03  0.47000000000E+01 0.  1.
         13    1    6    6    0    0 -0.80117896454E+02 -0.43638452646E+01  0.25090379214E+02  0.84068112902E+02  0.00000000000E+00 0. -1.
        -14    1    6    6    0    0 -0.25010156673E+01 -0.42119602712E+02  0.25547955950E+02  0.49325592396E+02  0.00000000000E+00 0.  1.
</event>
<event>
12    1  0.1597826E-001  0.2684812E+03  0.7818608E-02  0.1102194E+00
         21   -1    0    0  501  502  0.00000000000E+00  0.00000000000E+00  0.51924478566E+03  0.51924478566E+03  0.00000000000E+00 0.  1.
         21   -1    0    0  502  503 -0.00000000000E+00 -0.00000000000E+00 -0.16189597704E+03  0.16189597704E+03  0.00000000000E+00 0.  1.
         -6    2    1    2    0  503  0.19433782980E+03  0.68421743056E+02  0.49761530817E+02  0.27305373186E+03  0.17214355497E+03 0.  0.
        -24    2    3    3    0    0  0.78063413717E+02  0.41199065709E+02 -0.34171779973E+02  0.12701365292E+03  0.84696504676E+02 0.  0.
          6    2    1    2  501    0 -0.19433782980E+03 -0.68421743056E+02  0.30758727780E+03  0.40808703084E+03  0.17168682030E+03 0.  0.
         24    2    5    5    0    0 -0.21580982712E+03 -0.73215200629E+02  0.29827055432E+03  0.38373717990E+03  0.79715447554E+02 0.  0.
          5    1    5    5  501    0  0.21471997322E+02  0.47934575735E+01  0.93167234792E+01  0.24349850942E+02  0.47000000000E+01 0. -1.
        -11    1    6    6    0    0 -0.88746914995E+02 -0.48958455540E+02  0.18875742506E+03  0.21424824575E+03  0.00000000000E+00 0.  1.
         12    1    6    6    0    0 -0.12706291213E+03 -0.24256745089E+02  0.10951312926E+03  0.16948893415E+03  0.00000000000E+00 0. -1.
         -5    1    3    3    0  503  0.11627441608E+03  0.27222677346E+02  0.83933310790E+02  0.14604007894E+03  0.47000000000E+01 0.  1.
         13    1    4    4    0    0 -0.24368215631E+01 -0.19893350020E+02  0.84968397478E+00  0.20060045793E+02  0.00000000000E+00 0. -1.
        -14    1    4    4    0    0  0.80500235280E+02  0.61092415729E+02 -0.35021463948E+02  0.10695360712E+03  0.00000000000E+00 0.  1.
</event>
<event>
12    1  0.1597826E-001  0.1807854E+03  0.7818608E-02  0.1167398E+00
         21   -1    0    0  501  502  0.00000000000E+00  0.00000000000E+00  0.35390896749E+02  0.35390896749E+02  0.00000000000E+00 0. -1.
         21   -1    0    0  502  503 -0.00000000000E+00 -0.00000000000E+00 -0.12455665269E+04  0.12455665269E+04  0.00000000000E+00 0. -1.
         -6    2    1    2    0  503  0.14396110487E+02 -0.49898675610E+02 -0.93270686774E+03  0.94978936892E+03  0.17164095768E+03 0.  0.
        -24    2    3    3    0    0 -0.51533484217E+00  0.18312123936E+02 -0.24005241230E+03  0.25360882551E+03  0.79728766907E+02 0.  0.
          6    2    1    2  501    0 -0.14396110487E+02  0.49898675610E+02 -0.27746876238E+03  0.33116805470E+03  0.17316535604E+03 0.  0.
         24    2    5    5    0    0  0.31590254252E+02 -0.11367058220E+02 -0.85090122334E+02  0.12404522392E+03  0.83783855743E+02 0.  0.
          5    1    5    5  501    0 -0.45986364739E+02  0.61265733830E+02 -0.19237864004E+03  0.20712283077E+03  0.47000000000E+01 0. -1.
        -11    1    6    6    0    0  0.43831582341E+02  0.48302650693E+01 -0.92467180586E+02  0.10244373361E+03  0.00000000000E+00 0.  1.
         12    1    6    6    0    0 -0.12241328089E+02 -0.16197323290E+02  0.73770582527E+01  0.21601490310E+02  0.00000000000E+00 0. -1.
         -5    1    3    3    0  503  0.14911445329E+02 -0.68210799546E+02 -0.69265445544E+03  0.69618054341E+03  0.47000000000E+01 0.  1.
         11    1    4    4    0    0  0.31236598425E+02  0.14451691576E+02 -0.19695035925E+03  0.19993504065E+03  0.00000000000E+00 0. -1.
        -12    1    4    4    0    0 -0.31751933267E+02  0.38604323601E+01 -0.43102053051E+02  0.53673784863E+02  0.00000000000E+00 0.  1.
</event>
<event>
12    1  0.1597826E-001  0.2104005E+03  0.7818608E-02  0.1142492E+00
         21   -1    0    0  501  502  0.00000000000E+00  0.00000000000E+00  0.88364751102E+03  0.88364751102E+03  0.00000000000E+00 0. -1.
         21   -1    0    0  502  503 -0.00000000000E+00 -0.00000000000E+00 -0.49928173316E+02  0.49928173316E+02  0.00000000000E+00 0. -1.
         -6    2    1    2    0  503  0.57908089319E+02  0.94273699845E+02  0.33565409345E+03  0.39289337634E+03  0.17164107152E+03 0.  0.
        -24    2    3    3    0    0  0.77700839163E+02  0.21321034897E+02  0.26968518686E+03  0.29245518188E+03  0.79422455662E+02 0.  0.
          6    2    1    2  501    0 -0.57908089319E+02 -0.94273699845E+02  0.49806524426E+03  0.54068230799E+03  0.17896226795E+03 0.  0.
         24    2    5    5    0    0  0.76026381537E+01 -0.10312626561E+03  0.40633822634E+03  0.42751889010E+03  0.83479461168E+02 0.  0.
          5    1    5    5  501    0 -0.65510727472E+02  0.88525657684E+01  0.91727017912E+02  0.11316341789E+03  0.47000000000E+01 0. -1.
        -13    1    6    6    0    0 -0.32208974715E+02 -0.13969363404E+02  0.98791253252E+02  0.10484404077E+03  0.00000000000E+00 0.  1.
         14    1    6    6    0    0  0.39811612869E+02 -0.89156902210E+02  0.30754697309E+03  0.32267484933E+03  0.00000000000E+00 0. -1.
         -5    1    3    3    0  503 -0.19792749845E+02  0.72952664948E+02  0.65968906589E+02  0.10043819446E+03  0.47000000000E+01 0.  1.
         11    1    4    4    0    0  0.53135068811E+02  0.71126132816E+01  0.25486022845E+03  0.26043744134E+03  0.00000000000E+00 0. -1.
        -12    1    4    4    0    0  0.24565770352E+02  0.14208421616E+02  0.14824958410E+02  0.32017740545E+02  0.00000000000E+00 0.  1.
</event>
<event>
12    1  0.1597826E-001  0.1961283E+03  0.7818608E-02  0.1153073E+00
         21   -1    0    0  501  502  0.00000000000E+00  0.00000000000E+00  0.27247692248E+03  0.27247692248E+03  0.00000000000E+00 0.  1.
         21   -1    0    0  502  503 -0.00000000000E+00 -0.00000000000E+00 -0.27191848382E+03  0.27191848382E+03  0.00000000000E+00 0.  1.
         -6    2    1    2    0  503 -0.93809999652E+02  0.19974293692E+02 -0.18852864437E+03  0.27204663944E+03  0.17107611124E+03 0.  0.
        -24    2    3    3    0    0  0.17293535625E+02 -0.40245580902E+01 -0.64787538650E+02  0.10395769963E+03  0.79337977708E+02 0.  0.
          6    2    1    2  501    0  0.93809999652E+02 -0.19974293692E+02  0.18908708303E+03  0.27234876686E+03  0.17094044986E+03 0.  0.
         24    2    5    5    0    0  0.61468650490E+02 -0.40506386465E+02  0.20387426583E+03  0.23101741709E+03  0.79907248676E+02 0.  0.
          5    1    5    5  501    0  0.32341349161E+02  0.20532092773E+02 -0.14787182800E+02  0.41331349777E+02  0.47000000000E+01 0. -1.
        -13    1    6    6    0    0  0.68443335519E+02 -0.42591029891E+02  0.10749644167E+03  0.13436506605E+03  0.00000000000E+00 0.  1.
         14    1    6    6    0    0 -0.69746850290E+01  0.20846434259E+01  0.96377824168E+02  0.96652351037E+02  0.00000000000E+00 0. -1.
         -5    1    3    3    0  503 -0.11110353528E+03  0.23998851782E+02 -0.12374110572E+03  0.16808893980E+03  0.47000000000E+01 0.  1.
         11    1    4    4    0    0 -0.15764427215E+02  0.29201868325E+02 -0.18092437450E+02  0.37796859287E+02  0.00000000000E+00 0. -1.
        -12    1    4    4    0    0  0.33057962839E+02 -0.33226426415E+02 -0.46695101200E+02  0.66160840348E+02  0.00000000000E+00 0.  1.
</event>
<event>
12    1  0.1597826E-001  0.1886621E+03  0.7818608E-02  0.1160481E+00
         21   -1    0    0  501  502  0.00000000000E+00  0.00000000000E+00  0.13589613367E+03  0.13589613367E+03  0.00000000000E+00 0. -1.
         21   -1    0    0  502  503 -0.00000000000E+00 -0.00000000000E+00 -0.13595962278E+04  0.13595962278E+04  0.00000000000E+00 0.  1.
         -6    2    1    2    0  503  0.75065630621E+02 -0.18030471859E+02 -0.12862866099E+04  0.13000486991E+04  0.17214363297E+03 0.  0.
        -24    2    3    3    0    0  0.36872776917E+02  0.52542305663E+02 -0.57341640962E+03  0.58266092149E+03  0.81037491602E+02 0.  0.
          6    2    1    2  501    0 -0.75065630621E+02  0.18030471859E+02  0.62586515788E+02  0.19544366237E+03  0.16828905605E+03 0.  0.
         24    2    5    5    0    0  0.20655064223E+02  0.18204882448E+02  0.48820255544E+01  0.83575972512E+02  0.78759504726E+02 0.  0.
          5    1    5    5  501    0 -0.95720694844E+02 -0.17441058943E+00  0.57704490234E+02  0.11186768986E+03  0.47000000000E+01 0. -1.
        -13    1    6    6    0    0  0.39727776212E+02 -0.15891235147E+02 -0.55305469756E+01  0.43144113237E+02  0.00000000000E+00 0.  1.
         14    1    6    6    0    0 -0.19072711989E+02  0.34096117595E+02  0.10412572530E+02  0.40431859274E+02  0.00000000000E+00 0. -1.
         -5    1    3    3    0  503  0.38192853705E+02 -0.70572777521E+02 -0.71287020029E+03  0.71738777761E+03  0.47000000000E+01 0.  1.
         13    1    4    4    0    0  0.27605850916E+02  0.19023303308E+02 -0.50308989561E+03  0.50420572402E+03  0.00000000000E+00 0. -1.
        -14    1    4    4    0    0  0.92669260009E+01  0.33519002354E+02 -0.70326514016E+02  0.78455197470E+02  0.00000000000E+00 0.  1.
</event>
<event>
12    1  0.1597826E-001  0.1945802E+03  0.7818608E-02  0.1156816E+00
         21   -1    0    0  503  502  0.00000000000E+00  0.00000000000E+00  0.81220669940E+03  0.81220669940E+03  0.00000000000E+00 0.  1.
         21   -1    0    0  501  503 -0.00000000000E+00 -0.00000000000E+00 -0.25791965921E+03  0.25791965921E+03  0.00000000000E+00 0.  1.
          6    2    1    2  501    0 -0.71110065367E+02 -0.84509631727E+00 -0.20868139249E+03  0.28532329510E+03  0.18111903149E+03 0.  0.
         24    2    3    3    0    0  0.18639160228E+02  0.45507067499E+02 -0.10387759255E+03  0.13968891362E+03  0.79398531902E+02 0.  0.
         -6    2    1    2    0  502  0.71110065367E+02  0.84509631727E+00  0.76296843268E+03  0.78480306351E+03  0.16952186776E+03 0.  0.
        -24    2    5    5    0    0 -0.13528670779E+01 -0.37059678969E+02  0.25755655461E+03  0.27279632033E+03  0.81897518340E+02 0.  0.
          5    1    3    3  501    0 -0.89749225595E+02 -0.46352163817E+02 -0.10480379994E+03  0.14563438147E+03  0.47000000000E+01 0. -1.
        -11    1    4    4    0    0  0.15118941904E+02 -0.17662505688E+02 -0.55090090976E+02  0.59795189064E+02  0.00000000000E+00 0.  1.
         12    1    4    4    0    0  0.35202183236E+01  0.63169573187E+02 -0.48787501574E+02  0.79893724557E+02  0.00000000000E+00 0. -1.
         -5    1    5    5    0  502  0.72462932445E+02  0.37904775287E+02  0.50541187806E+03  0.51200674318E+03  0.47000000000E+01 0.  1.
         13    1    6    6    0    0  0.50714430550E+01 -0.92971227015E+00  0.22078915247E+03  0.22084934627E+03  0.00000000000E+00 0. -1.
        -14    1    6    6    0    0 -0.64243101329E+01 -0.36129966699E+02  0.36767402145E+02  0.51946974069E+02  0.00000000000E+00 0.  1.
</event>
<event>
12    1  0.1597826E-001  0.2581418E+03  0.7818608E-02  0.1108399E+00
         21   -1    0    0  503  502  0.00000000000E+00  0.00000000000E+00  0.11456733099E+03  0.11456733099E+03  0.00000000000E+00 0. -1.
         21   -1    0    0  501  503 -0.00000000000E+00 -0.00000000000E+00 -0.64365128710E+03  0.64365128710E+03  0.00000000000E+00 0. -1.
          6    2    1    2  501    0 -0.10898637365E+02  0.19299774349E+03 -0.38449789147E+03  0.46311532751E+03  0.17108555972E+03 0.  0.
         24    2    3    3    0    0  0.57435111581E+01  0.25162633753E+02 -0.17252203592E+03  0.19218832904E+03  0.80661979167E+02 0.  0.
         -6    2    1    2    0  502  0.10898637365E+02 -0.19299774349E+03 -0.14458606464E+03  0.29510329057E+03  0.16974661331E+03 0.  0.
        -24    2    5    5    0    0  0.33815386915E+02 -0.16651893377E+03 -0.16872414924E+03  0.25231261516E+03  0.79509631712E+02 0.  0.
          5    1    3    3  501    0 -0.16642148523E+02  0.16783510973E+03 -0.21197585555E+03  0.27092699848E+03  0.47000000000E+01 0. -1.
        -13    1    4    4    0    0 -0.82820703750E+01  0.51636760265E+01  0.63579966956E+01  0.11648191353E+02  0.00000000000E+00 0.  1.
         14    1    4    4    0    0  0.14025581533E+02  0.19998957726E+02 -0.17888003261E+03  0.18054013768E+03  0.00000000000E+00 0. -1.
         -5    1    5    5    0  502 -0.22916749550E+02 -0.26478809721E+02  0.24138084601E+02  0.42790675414E+02  0.47000000000E+01 0.  1.
         11    1    6    6    0    0  0.63645953712E+01 -0.98997160402E+02 -0.14494815135E+03  0.17564427808E+03  0.00000000000E+00 0. -1.
        -12    1    6    6    0    0  0.27450791544E+02 -0.67521773363E+02 -0.23775997892E+02  0.76668337078E+02  0.00000000000E+00 0.  1.
</event>
<event>
12    1  0.1597826E-001  0.2013957E+03  0.7818608E-02  0.1148994E+00
         21   -1    0    0  503  502  0.00000000000E+00  0.00000000000E+00  0.12661007624E+03  0.12661007624E+03  0.00000000000E+00 0. -1.
         21   -1    0    0  501  503 -0.00000000000E+00 -0.00000000000E+00 -0.38461145781E+03  0.38461145781E+03  0.00000000000E+00 0. -1.
          6    2    1    2  501    0  0.52606585417E+02 -0.89813603437E+02 -0.23552654143E+03  0.30857563284E+03  0.17003597641E+03 0.  0.
         24    2    3    3    0    0  0.71922927683E+01 -0.15825290477E+01 -0.57949873449E+02  0.10509899173E+03  0.87369197990E+02 0.  0.
         -6    2    1    2    0  502 -0.52606585417E+02  0.89813603437E+02 -0.22474840145E+02  0.20264590121E+03  0.17241318583E+03 0.  0.
        -24    2    5    5    0    0 -0.71847706876E+02 -0.25618359820E+01 -0.44856802377E+01  0.10647343927E+03  0.78408009508E+02 0.  0.
          5    1    3    3  501    0  0.45414292649E+02 -0.88231074389E+02 -0.17757666798E+03  0.20347664111E+03  0.47000000000E+01 0. -1.
        -13    1    4    4    0    0 -0.30344721998E+01  0.32325266356E+02 -0.61460299947E+02  0.69508987449E+02  0.00000000000E+00 0.  1.
         14    1    4    4    0    0  0.10226764968E+02 -0.33907795404E+02  0.35104264981E+01  0.35590004286E+02  0.00000000000E+00 0. -1.
         -5    1    5    5    0  502  0.19241121459E+02  0.92375439419E+02 -0.17989159908E+02  0.96172461947E+02  0.47000000000E+01 0.  1.
         11    1    6    6    0    0 -0.39997365857E+02  0.24309734895E+02  0.27189736154E+02  0.54129790673E+02  0.00000000000E+00 0. -1.
        -12    1    6    6    0    0 -0.31850341019E+02 -0.26871570877E+02 -0.31675416392E+02  0.52343648593E+02  0.00000000000E+00 0.  1.
</event>
<event>
12    1  0.1597826E-001  0.1909487E+03  0.7818608E-02  0.1157755E+00
         21   -1    0    0  501  502  0.00000000000E+00  0.00000000000E+00  0.10104809685E+04  0.10104809685E+04  0.00000000000E+00 0.  1.
         21   -1    0    0  502  503 -0.00000000000E+00 -0.00000000000E+00 -0.72444955287E+02  0.72444955287E+02  0.00000000000E+00 0.  1.
         -6    2    1    2    0  503  0.47526323087E+02 -0.63887809859E+02  0.85159918697E+02  0.20907801134E+03  0.17355402455E+03 0.  0.
        -24    2    3    3    0    0  0.48739783777E+01 -0.10319031791E+03  0.64890691491E+02  0.14745949773E+03  0.82834197351E+02 0.  0.
          6    2    1    2  501    0 -0.47526323087E+02  0.63887809859E+02  0.85287609453E+03  0.87384791246E+03  0.17283558041E+03 0.  0.
         24    2    5    5    0    0 -0.61456483824E+02  0.87364112644E+02  0.43322818559E+03  0.45328680673E+03  0.79830324998E+02 0.  0.
          5    1    5    5  501    0  0.13930160737E+02 -0.23476302785E+02  0.41964790894E+03  0.42056110573E+03  0.47000000000E+01 0. -1.
        -11    1    6    6    0    0 -0.70860262164E+02  0.40408291727E+02  0.21715401997E+03  0.23196955659E+03  0.00000000000E+00 0.  1.
         12    1    6    6    0    0  0.94037783401E+01  0.46955820917E+02  0.21607416561E+03  0.22131725014E+03  0.00000000000E+00 0. -1.
         -5    1    3    3    0  503  0.42652344709E+02  0.39302508055E+02  0.20269227205E+02  0.61618513615E+02  0.47000000000E+01 0.  1.
         11    1    4    4    0    0 -0.14604048241E+02 -0.49120267560E+02  0.73236859786E+02  0.89385214333E+02  0.00000000000E+00 0. -1.
        -12    1    4    4    0    0  0.19478026619E+02 -0.54070050355E+02 -0.83461682941E+01  0.58074283392E+02  0.00000000000E+00 0.  1.
</event>
<event>
12    1  0.1597826E-001  0.1822621E+03  0.7818608E-02  0.1165928E+00
         21   -1    0    0  503  502  0.00000000000E+00  0.00000000000E+00  0.22728671450E+03  0.22728671450E+03  0.00000000000E+00 0.  1.
         21   -1    0    0  501  503 -0.00000000000E+00 -0.00000000000E+00 -0.15211116393E+03  0.15211116393E+03  0.00000000000E+00 0.  1.
          6    2    1    2  501    0 -0.51873895430E+02 -0.22326843572E+02 -0.28328104316E+01  0.18228411650E+03  0.17329190790E+03 0.  0.
         24    2    3    3    0    0 -0.10555861356E+03  0.30226091937E+01  0.12196351381E+01  0.12259193920E+03  0.62253827055E+02 0.  0.
         -6    2    1    2    0  502  0.51873895430E+02  0.22326843572E+02  0.78008361000E+02  0.19711376193E+03  0.17198587670E+03 0.  0.
        -24    2    5    5    0    0  0.53125181215E+01  0.68913978674E+02  0.17563118560E+02  0.10759258931E+03  0.80562664022E+02 0.  0.
          5    1    3    3  501    0  0.53684718131E+02 -0.25349452766E+02 -0.40524455696E+01  0.59692177305E+02  0.47000000000E+01 0. -1.
        -13    1    4    4    0    0 -0.88955050149E+02  0.10697640944E+02  0.24594964809E+02  0.92910455615E+02  0.00000000000E+00 0.  1.
         14    1    4    4    0    0 -0.16603563412E+02 -0.76750317503E+01 -0.23375329671E+02  0.29681483581E+02  0.00000000000E+00 0. -1.
         -5    1    5    5    0  502  0.46561377308E+02 -0.46587135102E+02  0.60445242440E+02  0.89521172621E+02  0.47000000000E+01 0.  1.
         13    1    6    6    0    0 -0.47531116421E+01  0.37204535175E+01 -0.27207204996E+02  0.27868725273E+02  0.00000000000E+00 0. -1.
        -14    1    6    6    0    0  0.10065629764E+02  0.65193525156E+02  0.44770323556E+02  0.79723864032E+02  0.00000000000E+00 0.  1.
</event>
<event>
12    1  0.1597826E-001  0.1744228E+03  0.7818608E-02  0.1173545E+00
         21   -1    0    0  501  502  0.00000000000E+00  0.00000000000E+00  0.39951732593E+03  0.39951732593E+03  0.00000000000E+00 0.  1.
         21   -1    0    0  502  503 -0.00000000000E+00 -0.00000000000E+00 -0.13881470714E+03  0.13881470714E+03  0.00000000000E+00 0.  1.
         -6    2    1    2    0  503 -0.15024581831E+02  0.15819423924E+02 -0.50886371215E+02  0.18169409470E+03  0.17305296599E+03 0.  0.
        -24    2    3    3    0    0 -0.42429394878E+02  0.31624136309E+02  0.23736244908E+02  0.10050642600E+03  0.82084059338E+02 0.  0.
          6    2    1    2  501    0  0.15024581831E+02 -0.15819423924E+02  0.31158899001E+03  0.35663793837E+03  0.17212474592E+03 0.  0.
         24    2    5    5    0    0 -0.10006758282E+01 -0.75009973053E+02  0.22801394412E+03  0.25287277907E+03  0.79541098008E+02 0.  0.
          5    1    5    5  501    0  0.16025257659E+02  0.59190549129E+02  0.83575045898E+02  0.10376515931E+03  0.47000000000E+01 0. -1.
        -11    1    6    6    0    0 -0.55815148380E+01  0.70320516178E+01  0.10225882664E+03  0.10265218305E+03  0.00000000000E+00 0.  1.
         12    1    6    6    0    0  0.45808390097E+01 -0.82042024671E+02  0.12575511747E+03  0.15022059602E+03  0.00000000000E+00 0. -1.
         -5    1    3    3    0  503  0.27404813046E+02 -0.15804712385E+02 -0.74622616122E+02  0.81187668698E+02  0.47000000000E+01 0.  1.
         11    1    4    4    0    0 -0.41933518530E+02 -0.19077786718E+02  0.45498984041E+01  0.46293449837E+02  0.00000000000E+00 0. -1.
        -12    1    4    4    0    0 -0.49587634776E+00  0.50701923027E+02  0.19186346504E+02  0.54212976160E+02  0.00000000000E+00 0.  1.
</event>
<event>
12    1  0.1597826E-001  0.1740351E+03  0.7818608E-02  0.1173724E+00
         21   -1    0    0  501  502  0.00000000000E+00  0.00000000000E+00  0.70079557877E+02  0.70079557877E+02  0.00000000000E+00 0. -1.
         21   -1    0    0  502  503 -0.00000000000E+00 -0.00000000000E+00 -0.67214785625E+03  0.67214785625E+03  0.00000000000E+00 0. -1.
         -6    2    1    2    0  503  0.18896690998E+02 -0.11935895459E+02 -0.52281587165E+03  0.55099680360E+03  0.17251519179E+03 0.  0.
        -24    2    3    3    0    0 -0.13581077792E+02  0.51666645365E+02 -0.22880866654E+03  0.24840398260E+03  0.80605488466E+02 0.  0.
          6    2    1    2  501    0 -0.18896690998E+02  0.11935895459E+02 -0.79252426728E+02  0.19123061053E+03  0.17259388382E+03 0.  0.
         24    2    5    5    0    0  0.29733552471E+02  0.26724838996E+02 -0.10193318760E+03  0.13537257311E+03  0.79605638331E+02 0.  0.
          5    1    5    5  501    0 -0.48630243468E+02 -0.14788943537E+02  0.22680760872E+02  0.55858037421E+02  0.47000000000E+01 0. -1.
        -13    1    6    6    0    0  0.16156254464E+02 -0.27600037906E+02 -0.27168200983E+02  0.41963052741E+02  0.00000000000E+00 0.  1.
         14    1    6    6    0    0  0.13577298007E+02  0.54324876902E+02 -0.74764986618E+02  0.93409520369E+02  0.00000000000E+00 0. -1.
         -5    1    3    3    0  503  0.32477768790E+02 -0.63602540824E+02 -0.29400720511E+03  0.30259282100E+03  0.47000000000E+01 0.  1.
         11    1    4    4    0    0  0.47497693321E+01  0.53711240740E+02 -0.22245364771E+03  0.22889535397E+03  0.00000000000E+00 0. -1.
        -12    1    4    4    0    0 -0.18330847124E+02 -0.20445953747E+01 -0.63550188252E+01  0.19508628624E+02  0.00000000000E+00 0.  1.
</event>
<event>
12    1  0.1597826E-001  0.1949311E+03  0.7818608E-02  0.1154181E+00
         21   -1    0    0  501  502  0.00000000000E+00  0.00000000000E+00  0.54804847406E+03  0.54804847406E+03  0.00000000000E+00 0.  1.
         21   -1    0    0  502  503 -0.00000000000E+00 -0.00000000000E+00 -0.32386022100E+03  0.32386022100E+03  0.00000000000E+00 0.  1.
         -6    2    1    2    0  503 -0.56843991130E+02  0.72722181487E+02 -0.27447683167E+03  0.33665364929E+03  0.17169272975E+03 0.  0.
        -24    2    3    3    0    0  0.81040027905E+01  0.86863090037E+02 -0.12043573164E+03  0.16881754559E+03  0.79898228825E+02 0.  0.
          6    2    1    2  501    0  0.56843991130E+02 -0.72722181487E+02  0.49866508472E+03  0.53525504577E+03  0.17120555566E+03 0.  0.
         24    2    5    5    0    0  0.61967595787E+02 -0.11386077909E+03  0.39583942413E+03  0.42428729364E+03  0.80787362262E+02 0.  0.
          5    1    5    5  501    0 -0.51236046568E+01  0.41138597600E+02  0.10282566059E+03  0.11096775213E+03  0.47000000000E+01 0. -1.
        -13    1    6    6    0    0  0.35445394590E+02 -0.95527764033E+02  0.18685371864E+03  0.21282913773E+03  0.00000000000E+00 0.  1.
         14    1    6    6    0    0  0.26522201197E+02 -0.18333015054E+02  0.20898570549E+03  0.21145815590E+03  0.00000000000E+00 0. -1.
         -5    1    3    3    0  503 -0.64947993921E+02 -0.14140908550E+02 -0.15404110003E+03  0.16783610370E+03  0.47000000000E+01 0.  1.
         11    1    4    4    0    0  0.23871972664E+02  0.11154568477E+02 -0.79752511280E+00  0.26361553882E+02  0.00000000000E+00 0. -1.
        -12    1    4    4    0    0 -0.15767969873E+02  0.75708521560E+02 -0.11963820653E+03  0.14245599170E+03  0.00000000000E+00 0.  1.
</event>
<event>
12    1  0.1597826E-001  0.2433183E+03  0.7818608E-02  0.1117667E+00
         21   -1    0    0  503  502  0.00000000000E+00  0.00000000000E+00  0.77103007729E+02  0.77103007729E+02  0.00000000000E+00 0.  1.
         21   -1    0    0  501  503 -0.00000000000E+00 -0.00000000000E+00 -0.11125992218E+04  0.11125992218E+04  0.00000000000E+00 0. -1.
          6    2    1    2  501    0  0.65222893803E+02  0.15890261634E+03 -0.84976073719E+03  0.88391012455E+03  0.17233609737E+03 0.  0.
         24    2    3    3    0    0 -0.16685299379E+02  0.36459341246E+02 -0.22842772803E+03  0.24533506554E+03  0.80014902784E+02 0.  0.
         -6    2    1    2    0  502 -0.65222893803E+02 -0.15890261634E+03 -0.18573547691E+03  0.30579210501E+03  0.17177624034E+03 0.  0.
        -24    2    5    5    0    0 -0.11850898519E+02 -0.59640746494E+02 -0.16110955090E+03  0.19033642123E+03  0.81081461609E+02 0.  0.
          5    1    3    3  501    0  0.81908193183E+02  0.12244327509E+03 -0.62133300916E+03  0.63857505901E+03  0.47000000000E+01 0. -1.
        -13    1    4    4    0    0 -0.18013395532E+02  0.14261625371E+02 -0.88294390504E+01  0.24613723220E+02  0.00000000000E+00 0.  1.
         14    1    4    4    0    0  0.13280961521E+01  0.22197715874E+02 -0.21959828898E+03  0.22072134232E+03  0.00000000000E+00 0. -1.
         -5    1    5    5    0  502 -0.53371995284E+02 -0.99261869846E+02 -0.24625926014E+02  0.11545568378E+03  0.47000000000E+01 0.  1.
         13    1    6    6    0    0 -0.36579382402E+02 -0.14586305943E+02 -0.11402768178E+03  0.12063632849E+03  0.00000000000E+00 0. -1.
        -14    1    6    6    0    0  0.24728483882E+02 -0.45054440551E+02 -0.47081869112E+02  0.69700092737E+02  0.00000000000E+00 0.  1.
</event>
<event>
12    1  0.1597826E-001  0.1890168E+03  0.7818608E-02  0.1160152E+00
         21   -1    0    0  503  502  0.00000000000E+00  0.00000000000E+00  0.12556009627E+04  0.12556009627E+04  0.00000000000E+00 0. -1.
         21   -1    0    0  501  503 -0.00000000000E+00 -0.00000000000E+00 -0.36223118332E+02  0.36223118332E+02  0.00000000000E+00 0. -1.
          6    2    1    2  501    0 -0.74366554692E+02  0.20564312191E+02  0.30504570491E+03  0.35885964774E+03  0.17255170037E+03 0.  0.
         24    2    3    3    0    0 -0.35664983214E+02  0.56555088171E+01  0.30537734665E+03  0.31711897167E+03  0.77492854739E+02 0.  0.
         -6    2    1    2    0  502  0.74366554692E+02 -0.20564312191E+02  0.91433213950E+03  0.93296443333E+03  0.16871898869E+03 0.  0.
        -24    2    5    5    0    0  0.91415624588E+01  0.44116808041E+02  0.35674209415E+03  0.36783905290E+03  0.77529260208E+02 0.  0.
          5    1    3    3  501    0 -0.38701571478E+02  0.14908803374E+02 -0.33164174392E+00  0.41740676075E+02  0.47000000000E+01 0. -1.
        -13    1    4    4    0    0  0.21209490273E+02  0.15309719688E+02  0.12625639846E+03  0.12893761339E+03  0.00000000000E+00 0.  1.
         14    1    4    4    0    0 -0.56874473487E+02 -0.96542108706E+01  0.17912094819E+03  0.18818135827E+03  0.00000000000E+00 0. -1.
         -5    1    5    5    0  502  0.65224992233E+02 -0.64681120232E+02  0.55759004535E+03  0.56512538042E+03  0.47000000000E+01 0.  1.
         13    1    6    6    0    0  0.24153809218E+02  0.57677476191E+02  0.31845312901E+03  0.32453427113E+03  0.00000000000E+00 0. -1.
        -14    1    6    6    0    0 -0.15012246759E+02 -0.13560668150E+02  0.38288965135E+02  0.43304781774E+02  0.00000000000E+00 0.  1.
</event>
<event>
12    1  0.1597826E-001  0.2017848E+03  0.7818608E-02  0.1148490E+00
         21   -1    0    0  503  502  0.00000000000E+00  0.00000000000E+00  0.36837875931E+03  0.36837875931E+03  0.00000000000E+00 0. -1.
         21   -1    0    0  501  503 -0.00000000000E+00 -0.00000000000E+00 -0.12350763550E+03  0.12350763550E+03  0.00000000000E+00 0. -1.
          6    2    1    2  501    0 -0.56772683487E+02 -0.87022209238E+02  0.41063756100E+02  0.20592074889E+03  0.17297722470E+03 0.  0.
         24    2    3    3    0    0 -0.24581252003E+02 -0.87525582593E+02 -0.33386647647E+02  0.12467116880E+03  0.78506474456E+02 0.  0.
         -6    2    1    2    0  502  0.56772683487E+02  0.87022209238E+02  0.20380736771E+03  0.28596564592E+03  0.17158934997E+03 0.  0.
        -24    2    5    5    0    0 -0.93298646873E+01  0.10402384983E+03  0.12127965487E+03  0.17876715692E+03  0.79629981794E+02 0.  0.
          5    1    3    3  501    0 -0.32191431484E+02  0.50337335501E+00  0.74450403747E+02  0.81249580084E+02  0.47000000000E+01 0. -1.
        -11    1    4    4    0    0  0.24037401109E+02 -0.29223415038E+02 -0.30671453936E+02  0.48708754091E+02  0.00000000000E+00 0.  1.
         12    1    4    4    0    0 -0.48618653112E+02 -0.58302167555E+02 -0.27151937109E+01  0.75962414712E+02  0.00000000000E+00 0. -1.
         -5    1    5    5    0  502  0.66102548175E+02 -0.17001640588E+02  0.82527712840E+02  0.10719848900E+03  0.47000000000E+01 0.  1.
         13    1    6    6    0    0 -0.28141049931E+01  0.31053416878E+02  0.96526428726E+02  0.10143759327E+03  0.00000000000E+00 0. -1.
        -14    1    6    6    0    0 -0.65157596942E+01  0.72970432948E+02  0.24753226139E+02  0.77329563643E+02  0.00000000000E+00 0.  1.
</event>
<event>
12    1  0.1597826E-001  0.2008885E+03  0.7818608E-02  0.1149297E+00
         21   -1    0    0  501  502  0.00000000000E+00  0.00000000000E+00  0.14770966051E+03  0.14770966051E+03  0.00000000000E+00 0. -1.
         21   -1    0    0  502  503 -0.00000000000E+00 -0.00000000000E+00 -0.27131246116E+03  0.27131246116E+03  0.00000000000E+00 0. -1.
         -6    2    1    2    0  503  0.30524858843E+02 -0.95526466735E+02 -0.58303403121E+02  0.20778717457E+03  0.17239243094E+03 0.  0.
        -24    2    3    3    0    0 -0.53163313498E+01 -0.98024879941E+02  0.13149885921E+02  0.12767166110E+03  0.80560493311E+02 0.  0.
          6    2    1    2  501    0 -0.30524858843E+02  0.95526466735E+02 -0.65299397538E+02  0.21123494710E+03  0.17406642038E+03 0.  0.
         24    2    5    5    0    0  0.44560558240E+02  0.53409216800E+02 -0.55894319280E+01  0.10635857896E+03  0.80266542096E+02 0.  0.
          5    1    5    5  501    0 -0.75085417083E+02  0.42117249935E+02 -0.59709965610E+02  0.10487636814E+03  0.47000000000E+01 0. -1.
        -13    1    6    6    0    0  0.32703923236E+02 -0.13024931309E+02 -0.14918450765E+02  0.38232912574E+02  0.00000000000E+00 0.  1.
         14    1    6    6    0    0  0.11856635003E+02  0.66434148109E+02  0.93290188369E+01  0.68125666390E+02  0.00000000000E+00 0. -1.
         -5    1    3    3    0  503  0.35841190193E+02  0.24984132055E+01 -0.71453289042E+02  0.80115513466E+02  0.47000000000E+01 0.  1.
         11    1    4    4    0    0  0.33423347808E+02 -0.65362222391E+02  0.21090604716E+02  0.76381633276E+02  0.00000000000E+00 0. -1.
        -12    1    4    4    0    0 -0.38739679158E+02 -0.32662657550E+02 -0.79407187947E+01  0.51290027827E+02  0.00000000000E+00 0.  1.
</event>
<event>
12    1  0.1597826E-001  0.2197566E+03  0.7818608E-02  0.1135225E+00
         21   -1    0    0  503  502  0.00000000000E+00  0.00000000000E+00  0.19013991307E+03  0.19013991307E+03  0.00000000000E+00 0. -1.
         21   -1    0    0  501  503 -0.00000000000E+00 -0.00000000000E+00 -0.26573057649E+03  0.26573057649E+03  0.00000000000E+00 0. -1.
          6    2    1    2  501    0  0.41640796847E+02  0.12124527794E+03  0.23278147472E+02  0.21489747666E+03  0.17089376800E+03 0.  0.
         24    2    3    3    0    0  0.46890558257E+02  0.15271076702E+03  0.57783811657E+01  0.17821002896E+03  0.78778943341E+02 0.  0.
         -6    2    1    2    0  502 -0.41640796847E+02 -0.12124527794E+03 -0.98868810899E+02  0.24097301290E+03  0.17848971341E+03 0.  0.
        -24    2    5    5    0    0 -0.72405631642E+02 -0.56944346751E+02 -0.11396119188E+03  0.16795962526E+03  0.82085615922E+02 0.  0.
          5    1    3    3  501    0 -0.52497614109E+01 -0.31465489083E+02  0.17499766307E+02  0.36687447702E+02  0.47000000000E+01 0. -1.
        -13    1    4    4    0    0 -0.21711051980E+02  0.26505238540E+02  0.45201213507E+01  0.34559064587E+02  0.00000000000E+00 0.  1.
         14    1    4    4    0    0  0.68601610238E+02  0.12620552848E+03  0.12582598150E+01  0.14365096437E+03  0.00000000000E+00 0. -1.
         -5    1    5    5    0  502  0.30764834796E+02 -0.64300931186E+02  0.15092380980E+02  0.73013387643E+02  0.47000000000E+01 0.  1.
         11    1    6    6    0    0 -0.45068470530E+02 -0.41488672029E+02 -0.13531041873E+02  0.62734089910E+02  0.00000000000E+00 0. -1.
        -12    1    6    6    0    0 -0.27337161113E+02 -0.15455674722E+02 -0.10043015001E+03  0.10522553535E+03  0.00000000000E+00 0.  1.
</event>
<event>
12    1  0.1597826E-001  0.1850065E+03  0.7818608E-02  0.1163383E+00
         21   -1    0    0  503  502  0.00000000000E+00  0.00000000000E+00  0.12826664039E+03  0.12826664039E+03  0.00000000000E+00 0.  1.
         21   -1    0    0  501  503 -0.00000000000E+00 -0.00000000000E+00 -0.41463690054E+03  0.41463690054E+03  0.00000000000E+00 0.  1.
          6    2    1    2  501    0  0.10641681827E+02  0.67531806721E+02 -0.30674226875E+03  0.35821534602E+03  0.17191167609E+03 0.  0.
         24    2    3    3    0    0 -0.43741274273E+02  0.18856146079E+02 -0.24607268591E+03  0.26319053802E+03  0.80303419826E+02 0.  0.
         -6    2    1    2    0  502 -0.10641681827E+02 -0.67531806721E+02  0.20372008602E+02  0.18468819490E+03  0.17035527667E+03 0.  0.
        -24    2    5    5    0    0  0.95120737189E+01  0.10546752258E+02 -0.23269503482E+02  0.92878027644E+02  0.88787075057E+02 0.  0.
          5    1    3    3  501    0  0.54382956099E+02  0.48675660642E+02 -0.60669582845E+02  0.95024808001E+02  0.47000000000E+01 0. -1.
        -13    1    4    4    0    0 -0.16544549853E+02  0.29038297786E+02 -0.29193490371E+02  0.44375722509E+02  0.00000000000E+00 0.  1.
         14    1    4    4    0    0 -0.27196724420E+02 -0.10182151707E+02 -0.21687919553E+03  0.21881481551E+03  0.00000000000E+00 0. -1.
         -5    1    5    5    0  502 -0.20153755546E+02 -0.78078558979E+02  0.43641512084E+02  0.91810167257E+02  0.47000000000E+01 0.  1.
         11    1    6    6    0    0 -0.10429684443E+02  0.38003875446E+02  0.14601834621E+02  0.42027210718E+02  0.00000000000E+00 0. -1.
        -12    1    6    6    0    0  0.19941758162E+02 -0.27457123187E+02 -0.37871338102E+02  0.50850816926E+02  0.00000000000E+00 0.  1.
</event>
<event>
12    1  0.1597826E-001  0.2647350E+03  0.7818608E-02  0.1104354E+00
         21   -1    0    0  503  502  0.00000000000E+00  0.00000000000E+00  0.50882541643E+03  0.50882541643E+03  0.00000000000E+00 0.  1.
         21   -1    0    0  501  503 -0.00000000000E+00 -0.00000000000E+00 -0.14619024376E+03  0.14619024376E+03  0.00000000000E+00 0. -1.
          6    2    1    2  501    0  0.91860967409E+01 -0.20097437836E+03  0.10224142273E+03  0.28379206080E+03  0.17207422852E+03 0.  0.
         24    2    3    3    0    0  0.54812389462E+02 -0.61639046289E+02  0.23020036838E+02  0.11707610075E+03  0.79831830781E+02 0.  0.
         -6    2    1    2    0  502 -0.91860967409E+01  0.20097437836E+03  0.26039374994E+03  0.37122359939E+03  0.17183413691E+03 0.  0.
        -24    2    5    5    0    0 -0.79588489285E+01  0.18372886278E+03  0.12667718114E+03  0.23631205535E+03  0.77308738112E+02 0.  0.
          5    1    3    3  501    0 -0.45626292721E+02 -0.13933533207E+03  0.79221385888E+02  0.16671596004E+03  0.47000000000E+01 0. -1.
        -11    1    4    4    0    0  0.10550587398E+01  0.14831881608E+02  0.18164876301E+02  0.23474679806E+02  0.00000000000E+00 0.  1.
         12    1    4    4    0    0  0.53757330722E+02 -0.76470927897E+02  0.48551605369E+01  0.93601420949E+02  0.00000000000E+00 0. -1.
         -5    1    5    5    0  502 -0.12272478124E+01  0.17245515583E+02  0.13371656880E+03  0.13491154404E+03  0.47000000000E+01 0.  1.
         11    1    6    6    0    0 -0.39691980316E+02  0.67986870146E+02  0.40254863577E+02  0.88420143945E+02  0.00000000000E+00 0. -1.
        -12    1    6    6    0    0  0.31733131388E+02  0.11574199263E+03  0.86422317567E+02  0.14789191141E+03  0.00000000000E+00 0.  1.
</event>
<event>
12    1  0.1597826E-001  0.1792422E+03  0.7818608E-02  0.1173692E+00
         21   -1    0    0  501  502  0.00000000000E+00  0.00000000000E+00  0.53709431679E+03  0.53709431679E+03  0.00000000000E+00 0.  1.
         21   -1    0    0  502  503 -0.00000000000E+00 -0.00000000000E+00 -0.21290436801E+03  0.21290436801E+03  0.00000000000E+00 0.  1.
         -6    2    1    2    0  503 -0.20789423292E+02 -0.47899208436E+02 -0.15999751565E+03  0.24026436791E+03  0.17146786049E+03 0.  0.
        -24    2    3    3    0    0 -0.62792347329E+02  0.15096336342E+02 -0.87974194710E+02  0.13565971672E+03  0.80581148869E+02 0.  0.
          6    2    1    2  501    0  0.20789423292E+02  0.47899208436E+02  0.48418746444E+03  0.50973431689E+03  0.15054912423E+03 0.  0.
         24    2    5    5    0    0  0.43604861496E+02  0.58235202001E+02  0.23239353271E+03  0.25665399162E+03  0.81066606383E+02 0.  0.
          5    1    5    5  501    0 -0.22815438204E+02 -0.10335993566E+02  0.25179393173E+03  0.25308032527E+03  0.47000000000E+01 0. -1.
        -11    1    6    6    0    0  0.61965150362E+02  0.22484200734E+02  0.17110435214E+03  0.18336280556E+03  0.00000000000E+00 0.  1.
         12    1    6    6    0    0 -0.18360288866E+02  0.35751001267E+02  0.61289180571E+02  0.73291186059E+02  0.00000000000E+00 0. -1.
         -5    1    3    3    0  503  0.42002924037E+02 -0.62995544778E+02 -0.72023320944E+02  0.10460465118E+03  0.47000000000E+01 0.  1.
         13    1    4    4    0    0 -0.37078161858E+01 -0.16247197404E+02  0.81539901079E+01  0.18552813237E+02  0.00000000000E+00 0. -1.
        -14    1    4    4    0    0 -0.59084531143E+02  0.31343533746E+02 -0.96128184818E+02  0.11710690349E+03  0.00000000000E+00 0.  1.
</event>
<event>
12    1  0.1597826E-001  0.1937461E+03  0.7818608E-02  0.1155201E+00
         21   -1    0    0  501  502  0.00000000000E+00  0.00000000000E+00  0.89132530363E+02  0.89132530363E+02  0.00000000000E+00 0.  1.
         21   -1    0    0  502  503 -0.00000000000E+00 -0.00000000000E+00 -0.51180314733E+03  0.51180314733E+03  0.00000000000E+00 0. -1.
         -6    2    1    2    0  503 -0.30849203557E+02 -0.83768675441E+02 -0.33816369824E+03  0.38956169686E+03  0.17156562740E+03 0.  0.
        -24    2    3    3    0    0 -0.32695857830E+01  0.22974975713E+02 -0.13529184050E+03  0.15862031243E+03  0.79485732737E+02 0.  0.
          6    2    1    2  501    0  0.30849203557E+02  0.83768675441E+02 -0.84506918730E+02  0.21137398084E+03  0.17195544806E+03 0.  0.
         24    2    5    5    0    0  0.36718220390E+02  0.11478858733E+03 -0.31162272213E+02  0.14920950864E+03  0.82266291812E+02 0.  0.
          5    1    5    5  501    0 -0.58690168331E+01 -0.31019911890E+02 -0.53344646517E+02  0.62164472203E+02  0.47000000000E+01 0. -1.
        -11    1    6    6    0    0  0.18520454876E+02  0.10690038480E+03  0.42994814362E+01  0.10857801370E+03  0.00000000000E+00 0.  1.
         12    1    6    6    0    0  0.18197765515E+02  0.78882025334E+01 -0.35461753649E+02  0.40631494937E+02  0.00000000000E+00 0. -1.
         -5    1    3    3    0  503 -0.27579617774E+02 -0.10674365115E+03 -0.20287185774E+03  0.23094138443E+03  0.47000000000E+01 0.  1.
         13    1    4    4    0    0 -0.26586625934E+02  0.20215075385E+02 -0.13043533599E+03  0.13464351016E+03  0.00000000000E+00 0. -1.
        -14    1    4    4    0    0  0.23317040151E+02  0.27599003286E+01 -0.48565045081E+01  0.23976802274E+02  0.00000000000E+00 0.  1.
</event>
<event>
12    1  0.1597826E-001  0.1854626E+03  0.7818608E-02  0.1162699E+00
         21   -1    0    0  503  502  0.00000000000E+00  0.00000000000E+00  0.38763799537E+03  0.38763799537E+03  0.00000000000E+00 0.  1.
         21   -1    0    0  501  503 -0.00000000000E+00 -0.00000000000E+00 -0.91436110848E+02  0.91436110848E+02  0.00000000000E+00 0. -1.
          6    2    1    2  501    0  0.30633461075E+02  0.65229621967E+02  0.10554457504E+03  0.21309179549E+03  0.17051434973E+03 0.  0.
         24    2    3    3    0    0  0.70319905723E+02  0.46949653252E+01  0.22521195356E+02  0.10284466347E+03  0.71434506534E+02 0.  0.
         -6    2    1    2    0  502 -0.30633461075E+02 -0.65229621967E+02  0.19065730948E+03  0.26598231073E+03  0.17088905010E+03 0.  0.
        -24    2    5    5    0    0 -0.46004731426E+02 -0.10472962816E+03  0.11735264500E+03  0.18117552872E+03  0.77254116969E+02 0.  0.
          5    1    3    3  501    0 -0.39686444648E+02  0.60534656642E+02  0.83023379684E+02  0.11024713202E+03  0.47000000000E+01 0. -1.
        -13    1    4    4    0    0 -0.13238353355E+00 -0.12262215204E+02  0.27600997945E+02  0.30202558412E+02  0.00000000000E+00 0.  1.
         14    1    4    4    0    0  0.70452289256E+02  0.16957180529E+02 -0.50798025887E+01  0.72642105058E+02  0.00000000000E+00 0. -1.
         -5    1    5    5    0  502  0.15371270351E+02  0.39500006191E+02  0.73304664479E+02  0.84806782015E+02  0.47000000000E+01 0.  1.
         13    1    6    6    0    0  0.40874831461E+01 -0.33404087619E+02 -0.16210964926E+01  0.33692262346E+02  0.00000000000E+00 0. -1.
        -14    1    6    6    0    0 -0.50092214572E+02 -0.71325540540E+02  0.11897374149E+03  0.14748326637E+03  0.00000000000E+00 0.  1.
</event>
<event>
12    1  0.1597826E-001  0.1849579E+03  0.7818608E-02  0.1163373E+00
         21   -1    0    0  501  502  0.00000000000E+00  0.00000000000E+00  0.27572062821E+03  0.27572062821E+03  0.00000000000E+00 0. -1.
         21   -1    0    0  502  503 -0.00000000000E+00 -0.00000000000E+00 -0.13472337228E+03  0.13472337228E+03  0.00000000000E+00 0. -1.
         -6    2    1    2    0  503 -0.78840101187E+01 -0.66913578590E+02  0.13014305971E+03  0.22516791872E+03  0.17094967392E+03 0.  0.
        -24    2    3    3    0    0  0.26779735526E+02  0.42584289932E+01  0.15577421849E+02  0.85832333510E+02  0.79932752686E+02 0.  0.
          6    2    1    2  501    0  0.78840101187E+01  0.66913578590E+02  0.10854196215E+02  0.18527608177E+03  0.17224932013E+03 0.  0.
         24    2    5    5    0    0 -0.26930483898E+02  0.94269713977E+02 -0.23636334864E+02  0.12895473705E+03  0.80365527100E+02 0.  0.
          5    1    5    5  501    0  0.34814494017E+02 -0.27356135387E+02  0.34490531079E+02  0.56321344720E+02  0.47000000000E+01 0. -1.
        -11    1    6    6    0    0  0.15999350198E+02 -0.38800180617E+01 -0.13607246049E+02  0.21358625704E+02  0.00000000000E+00 0.  1.
         12    1    6    6    0    0 -0.42929834096E+02  0.98149732039E+02 -0.10029088815E+02  0.10759611135E+03  0.00000000000E+00 0. -1.
         -5    1    3    3    0  503 -0.34663745645E+02 -0.71172007583E+02  0.11456563787E+03  0.13933558521E+03  0.47000000000E+01 0.  1.
         11    1    4    4    0    0  0.53004514268E+02  0.15624077973E+02  0.14940751519E+02  0.57243483483E+02  0.00000000000E+00 0. -1.
        -12    1    4    4    0    0 -0.26224778742E+02 -0.11365648979E+02  0.63667032982E+00  0.28588850027E+02  0.00000000000E+00 0.  1.
</event>
<event>
12    1  0.1597826E-001  0.1999415E+03  0.7818608E-02  0.1150610E+00
         21   -1    0    0  503  502  0.00000000000E+00  0.00000000000E+00  0.64208525421E+03  0.64208525421E+03  0.00000000000E+00 0. -1.
         21   -1    0    0  501  503 -0.00000000000E+00 -0.00000000000E+00 -0.66069271018E+02  0.66069271018E+02  0.00000000000E+00 0. -1.
          6    2    1    2  501    0  0.27937030717E+02 -0.97466444888E+02  0.38802967731E+03  0.43651306198E+03  0.17232654249E+03 0.  0.
         24    2    3    3    0    0  0.98414250681E+01 -0.23788345475E+02  0.33132017768E+03  0.34167651510E+03  0.79416886142E+02 0.  0.
         -6    2    1    2    0  502 -0.27937030717E+02  0.97466444888E+02  0.18798630588E+03  0.27164146324E+03  0.16783935113E+03 0.  0.
        -24    2    5    5    0    0  0.17475040740E+02  0.12195424063E+03  0.13814759742E+03  0.19975338888E+03  0.75089572110E+02 0.  0.
          5    1    3    3  501    0  0.18095605649E+02 -0.73678099413E+02  0.56709499626E+02  0.94836546883E+02  0.47000000000E+01 0. -1.
        -13    1    4    4    0    0 -0.20146630206E+02 -0.30169820107E+02  0.27646157567E+03  0.27883168323E+03  0.00000000000E+00 0.  1.
         14    1    4    4    0    0  0.29988055274E+02  0.63814746318E+01  0.54858602017E+02  0.62844831871E+02  0.00000000000E+00 0. -1.
         -5    1    5    5    0  502 -0.45412071457E+02 -0.24487795742E+02  0.49838708465E+02  0.71888074364E+02  0.47000000000E+01 0.  1.
         13    1    6    6    0    0  0.26530333761E+02  0.68745961362E+02  0.12352515624E+03  0.14383438405E+03  0.00000000000E+00 0. -1.
        -14    1    6    6    0    0 -0.90552930210E+01  0.53208279267E+02  0.14622441180E+02  0.55919004823E+02  0.00000000000E+00 0.  1.
</event>
<event>
12    1  0.1597826E-001  0.2076765E+03  0.7818608E-02  0.1143667E+00
         21   -1    0    0  501  502  0.00000000000E+00  0.00000000000E+00  0.19689581061E+04  0.19689581061E+04  0.00000000000E+00 0. -1.
         21   -1    0    0  502  503 -0.00000000000E+00 -0.00000000000E+00 -0.60738325588E+02  0.60738325588E+02  0.00000000000E+00 0. -1.
         -6    2    1    2    0  503  0.10754653262E+03 -0.38677337639E+02  0.14026828546E+03  0.24958912548E+03  0.17192250152E+03 0.  0.
        -24    2    3    3    0    0  0.47936251423E+02 -0.33499230262E+02  0.15839018984E+03  0.18689389569E+03  0.80136092876E+02 0.  0.
          6    2    1    2  501    0 -0.10754653262E+03  0.38677337639E+02  0.17679514951E+04  0.17801073062E+04  0.17339936449E+03 0.  0.
         24    2    5    5    0    0 -0.19615189593E+01  0.12797568600E+02  0.43237773770E+03  0.44010831035E+03  0.81099885704E+02 0.  0.
          5    1    5    5  501    0 -0.10558501366E+03  0.25879769039E+02  0.13355737574E+04  0.13399989959E+04  0.47000000000E+01 0. -1.
        -11    1    6    6    0    0  0.32366310576E+02  0.20180221485E+02  0.32271865860E+03  0.32496484734E+03  0.00000000000E+00 0.  1.
         12    1    6    6    0    0 -0.34327829535E+02 -0.73826528851E+01  0.10965907910E+03  0.11514346301E+03  0.00000000000E+00 0. -1.
         -5    1    3    3    0  503  0.59610281199E+02 -0.51781073775E+01 -0.18121904379E+02  0.62695229794E+02  0.47000000000E+01 0.  1.
         13    1    4    4    0    0  0.41095594251E+02 -0.29053578045E+02  0.30720092690E+02  0.58963398468E+02  0.00000000000E+00 0. -1.
        -14    1    4    4    0    0  0.68406571719E+01 -0.44456522169E+01  0.12767009715E+03  0.12793049722E+03  0.00000000000E+00 0.  1.
</event>
<event>
12    1  0.1597826E-001  0.2616390E+03  0.7818608E-02  0.1106194E+00
         21   -1    0    0  501  502  0.00000000000E+00  0.00000000000E+00  0.16677314611E+03  0.16677314611E+03  0.00000000000E+00 0. -1.
         21   -1    0    0  502  503 -0.00000000000E+00 -0.00000000000E+00 -0.55728592485E+03  0.55728592485E+03  0.00000000000E+00 0.  1.
         -6    2    1    2    0  503  0.18044541471E+03  0.76990608420E+02 -0.92831950768E+01  0.26180367719E+03  0.17310946307E+03 0.  0.
        -24    2    3    3    0    0  0.20700326500E+03  0.65343765749E+02 -0.17572266287E+02  0.23127881751E+03  0.77852086957E+02 0.  0.
          6    2    1    2  501    0 -0.18044541471E+03 -0.76990608420E+02 -0.38122958367E+03  0.46225539377E+03  0.17278875001E+03 0.  0.
         24    2    5    5    0    0 -0.12508262076E+03 -0.76988026229E+02 -0.36946248522E+03  0.40546108449E+03  0.79519462110E+02 0.  0.
          5    1    5    5  501    0 -0.55362793950E+02 -0.25821908968E-02 -0.11767098454E+02  0.56794309280E+02  0.47000000000E+01 0. -1.
        -13    1    6    6    0    0 -0.12976243553E+03 -0.65228102669E+02 -0.28314098311E+03  0.31821661077E+03  0.00000000000E+00 0.  1.
         14    1    6    6    0    0  0.46798147772E+01 -0.11759923560E+02 -0.86321502108E+02  0.87244473720E+02  0.00000000000E+00 0. -1.
         -5    1    3    3    0  503 -0.26557850298E+02  0.11646842670E+02  0.82890712105E+01  0.30524859675E+02  0.47000000000E+01 0.  1.
         13    1    4    4    0    0  0.41639605333E+02  0.15142704353E+02  0.28179414492E+02  0.52509405144E+02  0.00000000000E+00 0. -1.
        -14    1    4    4    0    0  0.16536365967E+03  0.50201061396E+02 -0.45751680780E+02  0.17876941237E+03  0.00000000000E+00 0.  1.
</event>
<event>
12    1  0.1597826E-001  0.2080954E+03  0.7818608E-02  0.1143153E+00
         21   -1    0    0  501  502  0.00000000000E+00  0.00000000000E+00  0.31349390057E+03  0.31349390057E+03  0.00000000000E+00 0.  1.
         21   -1    0    0  502  503 -0.00000000000E+00 -0.00000000000E+00 -0.31611968059E+03  0.31611968059E+03  0.00000000000E+00 0.  1.
         -6    2    1    2    0  503  0.48841545685E+02 -0.10563411305E+03 -0.23768507844E+03  0.31590806327E+03  0.17250984175E+03 0.  0.
        -24    2    3    3    0    0  0.24697156453E+02 -0.89983350678E+02 -0.25315604058E+03  0.28290293391E+03  0.85083113448E+02 0.  0.
          6    2    1    2  501    0 -0.48841545685E+02  0.10563411305E+03  0.23505929842E+03  0.31370551789E+03  0.17208781409E+03 0.  0.
         24    2    5    5    0    0 -0.24577109632E+02  0.14004577605E+03  0.20510448188E+03  0.26181807778E+03  0.79145458865E+02 0.  0.
          5    1    5    5  501    0 -0.24264436053E+02 -0.34411662999E+02  0.29954816541E+02  0.51887440112E+02  0.47000000000E+01 0. -1.
        -11    1    6    6    0    0  0.64388653112E+01 -0.64299998435E+01  0.30405294219E+02  0.31737766164E+02  0.00000000000E+00 0.  1.
         12    1    6    6    0    0 -0.31015974943E+02  0.14647577589E+03  0.17469918766E+03  0.23008031162E+03  0.00000000000E+00 0. -1.
         -5    1    3    3    0  503  0.24144389232E+02 -0.15650762370E+02  0.15470962146E+02  0.33005129357E+02  0.47000000000E+01 0.  1.
         11    1    4    4    0    0 -0.15910880889E+02 -0.37170310107E+02 -0.17771800733E+03  0.18225937071E+03  0.00000000000E+00 0. -1.
        -12    1    4    4    0    0  0.40608037342E+02 -0.52813040572E+02 -0.75438033253E+02  0.10064356319E+03  0.00000000000E+00 0.  1.
</event>
<event>
12    1  0.1597826E-001  0.1873399E+03  0.7818608E-02  0.1161011E+00
         21   -1    0    0  501  502  0.00000000000E+00  0.00000000000E+00  0.16498060369E+03  0.16498060369E+03  0.00000000000E+00 0. -1.
         21   -1    0    0  502  503 -0.00000000000E+00 -0.00000000000E+00 -0.41021022507E+03  0.41021022507E+03  0.00000000000E+00 0. -1.
         -6    2    1    2    0  503  0.70411975170E+02 -0.14074998850E+02 -0.32238487141E+03  0.37258491476E+03  0.17242842443E+03 0.  0.
        -24    2    3    3    0    0  0.48158822223E+01  0.19265402382E+02 -0.61254709376E+02  0.10124475686E+03  0.78128182626E+02 0.  0.
          6    2    1    2  501    0 -0.70411975170E+02  0.14074998850E+02  0.77155250038E+02  0.20260591400E+03  0.17303257479E+03 0.  0.
         24    2    5    5    0    0 -0.12566717397E+02 -0.49500056278E+02  0.68973664291E+02  0.11613690321E+03  0.78244718443E+02 0.  0.
          5    1    5    5  501    0 -0.57845257774E+02  0.63575055128E+02  0.81815857464E+01  0.86469010788E+02  0.47000000000E+01 0. -1.
        -13    1    6    6    0    0  0.32627559861E+02 -0.25604267210E+02  0.38682571597E+02  0.56713997454E+02  0.00000000000E+00 0.  1.
         14    1    6    6    0    0 -0.45194277258E+02 -0.23895789068E+02  0.30291092694E+02  0.59422905758E+02  0.00000000000E+00 0. -1.
         -5    1    3    3    0  503  0.65596092948E+02 -0.33340401231E+02 -0.26113016203E+03  0.27134015790E+03  0.47000000000E+01 0.  1.
         13    1    4    4    0    0  0.21168555439E+02  0.24041377008E+02 -0.73558371001E+02  0.80230477327E+02  0.00000000000E+00 0. -1.
        -14    1    4    4    0    0 -0.16352673216E+02 -0.47759746258E+01  0.12303661625E+02  0.21014279534E+02  0.00000000000E+00 0.  1.
</event>
<event>
12    1  0.1597826E-001  0.2873003E+03  0.7818608E-02  0.1092918E+00
         21   -1    0    0  501  502  0.00000000000E+00  0.00000000000E+00  0.49925896213E+03  0.49925896213E+03  0.00000000000E+00 0.  1.
         21   -1    0    0  502  503 -0.00000000000E+00 -0.00000000000E+00 -0.16370369782E+03  0.16370369782E+03  0.00000000000E+00 0. -1.
         -6    2    1    2    0  503  0.13156204128E+03  0.18812539880E+03  0.11842898716E+03  0.30284426970E+03  0.15808064496E+03 0.  0.
        -24    2    3    3    0    0  0.44774431004E+02  0.22116647119E+02  0.29685966062E+02  0.95507807096E+02  0.75806258869E+02 0.  0.
          6    2    1    2  501    0 -0.13156204128E+03 -0.18812539880E+03  0.21712627716E+03  0.36011839025E+03  0.17274749893E+03 0.  0.
         24    2    5    5    0    0 -0.23970670748E+02 -0.37643706386E+02  0.30708042265E+02  0.97450365810E+02  0.81005853185E+02 0.  0.
          5    1    5    5  501    0 -0.10759137053E+03 -0.15048169241E+03  0.18641823489E+03  0.26266802444E+03  0.47000000000E+01 0. -1.
        -11    1    6    6    0    0 -0.34621637212E+02 -0.46776308738E+01  0.47489565670E+02  0.58955888945E+02  0.00000000000E+00 0.  1.
         12    1    6    6    0    0  0.10650966464E+02 -0.32966075512E+02 -0.16781523405E+02  0.38494476865E+02  0.00000000000E+00 0. -1.
         -5    1    3    3    0  503  0.86787610278E+02  0.16600875168E+03  0.88743021093E+02  0.20733646260E+03  0.47000000000E+01 0.  1.
         11    1    4    4    0    0 -0.91607686949E+01  0.14240461520E+02 -0.16812745956E+02  0.23861660755E+02  0.00000000000E+00 0. -1.
        -12    1    4    4    0    0  0.53935199699E+02  0.78761855989E+01  0.46498712018E+02  0.71646146341E+02  0.00000000000E+00 0.  1.
</event>
<event>
12    1  0.1597826E-001  0.2910837E+03  0.7818608E-02  0.1089813E+00
         21   -1    0    0  503  502  0.00000000000E+00  0.00000000000E+00  0.46227400295E+03  0.46227400295E+03  0.00000000000E+00 0.  1.
         21   -1    0    0  501  503 -0.00000000000E+00 -0.00000000000E+00 -0.47094567131E+03  0.47094567131E+03  0.00000000000E+00 0. -1.
          6    2    1    2  501    0 -0.17155724344E+03 -0.16076891184E+03 -0.36909841422E+03  0.46993017519E+03  0.17123726048E+03 0.  0.
         24    2    3    3    0    0 -0.81438026485E+02 -0.16397896430E+03 -0.26600858127E+03  0.33288499519E+03  0.80812139069E+02 0.  0.
         -6    2    1    2    0  502  0.17155724344E+03  0.16076891184E+03  0.36042674587E+03  0.46328949907E+03  0.17161349020E+03 0.  0.
        -24    2    5    5    0    0  0.71467450364E+02  0.34214978102E+02  0.19961277525E+03  0.23543628323E+03  0.96471354447E+02 0.  0.
          5    1    3    3  501    0 -0.90119216958E+02  0.32100524677E+01 -0.10308983295E+03  0.13704518000E+03  0.47000000000E+01 0. -1.
        -11    1    4    4    0    0  0.10895587468E+02 -0.61889133282E+00 -0.26223244535E+02  0.28403440050E+02  0.00000000000E+00 0.  1.
         12    1    4    4    0    0 -0.92333613953E+02 -0.16336007297E+03 -0.23978533674E+03  0.30448155514E+03  0.00000000000E+00 0. -1.
         -5    1    5    5    0  502  0.10008979308E+03  0.12655393374E+03  0.16081397061E+03  0.22785321584E+03  0.47000000000E+01 0.  1.
         11    1    6    6    0    0  0.43350005221E+02  0.17594729986E+02  0.16770474737E+02  0.49699560348E+02  0.00000000000E+00 0. -1.
        -12    1    6    6    0    0  0.28117445143E+02  0.16620248115E+02  0.18284230051E+03  0.18573672288E+03  0.00000000000E+00 0.  1.
</event>
<event>
12    1  0.1597826E-001  0.2723467E+03  0.7818608E-02  0.1101124E+00
         21   -1    0    0  503  502  0.00000000000E+00  0.00000000000E+00  0.19531392648E+04  0.19531392648E+04  0.00000000000E+00 0. -1.
         21   -1    0    0  501  503 -0.00000000000E+00 -0.00000000000E+00 -0.37059182993E+02  0.37059182993E+02  0.00000000000E+00 0.  1.
          6    2    1    2  501    0 -0.10187728189E+03  0.17235205908E+03  0.10198505697E+04  0.10535020900E+04  0.17229990220E+03 0.  0.
         24    2    3    3    0    0 -0.11352231067E+03  0.87353947390E+02  0.48933890072E+03  0.51607767057E+03  0.79784554625E+02 0.  0.
         -6    2    1    2    0  502  0.10187728189E+03 -0.17235205908E+03  0.89622951216E+03  0.93669635784E+03  0.18463075445E+03 0.  0.
        -24    2    5    5    0    0  0.11094749548E+03 -0.43863245194E+02  0.47083023353E+03  0.49219857345E+03  0.79655482338E+02 0.  0.
          5    1    3    3  501    0  0.11645028784E+02  0.84998111688E+02  0.53051166894E+03  0.53742441940E+03  0.47000000000E+01 0. -1.
        -11    1    4    4    0    0 -0.23900651983E+02  0.27270354977E+02  0.40105164644E+02  0.54067898580E+02  0.00000000000E+00 0.  1.
         12    1    4    4    0    0 -0.89621658688E+02  0.60083592413E+02  0.44923373608E+03  0.46200977199E+03  0.00000000000E+00 0. -1.
         -5    1    5    5    0  502 -0.90702135962E+01 -0.12848881388E+03  0.42539927863E+03  0.44449778439E+03  0.47000000000E+01 0.  1.
         13    1    6    6    0    0  0.61007262865E+02  0.17854059178E+02  0.18926038427E+03  0.19965006037E+03  0.00000000000E+00 0. -1.
        -14    1    6    6    0    0  0.49940232620E+02 -0.61717304373E+02  0.28156984926E+03  0.29254851308E+03  0.00000000000E+00 0.  1.
</event>
<event>
12    1  0.1597826E-001  0.2375424E+03  0.7818608E-02  0.1121543E+00
         21   -1    0    0  503  502  0.00000000000E+00  0.00000000000E+00  0.77696596486E+02  0.77696596486E+02  0.00000000000E+00 0.  1.
         21   -1    0    0  501  503 -0.00000000000E+00 -0.00000000000E+00 -0.86266089218E+03  0.86266089218E+03  0.00000000000E+00 0. -1.
          6    2    1    2  501    0  0.15926926514E+02  0.16373139511E+03 -0.58029562481E+03  0.62680423049E+03  0.17052534842E+03 0.  0.
         24    2    3    3    0    0 -0.38214079108E+02  0.15875042199E+03 -0.46543207589E+03  0.49963590325E+03  0.79668100409E+02 0.  0.
         -6    2    1    2    0  502 -0.15926926514E+02 -0.16373139511E+03 -0.20466867088E+03  0.31355325817E+03  0.17136144297E+03 0.  0.
        -24    2    5    5    0    0 -0.73301069646E+02 -0.73882396062E+02 -0.11597866543E+03  0.17479936815E+03  0.79196672979E+02 0.  0.
          5    1    3    3  501    0  0.54141005622E+02  0.49809731199E+01 -0.11486354892E+03  0.12716832724E+03  0.47000000000E+01 0. -1.
        -11    1    4    4    0    0 -0.84938887442E+01 -0.77233797074E+01 -0.45670853480E+02  0.47091651040E+02  0.00000000000E+00 0.  1.
         12    1    4    4    0    0 -0.29720190364E+02  0.16647380170E+03 -0.41976122241E+03  0.45254425221E+03  0.00000000000E+00 0. -1.
         -5    1    5    5    0  502  0.57374143132E+02 -0.89848999049E+02 -0.88690005449E+02  0.13875389002E+03  0.47000000000E+01 0.  1.
         11    1    6    6    0    0  0.29751844232E+01 -0.42366266008E+02 -0.65472046922E+02  0.78040637785E+02  0.00000000000E+00 0. -1.
        -12    1    6    6    0    0 -0.76276254069E+02 -0.31516130054E+02 -0.50506618510E+02  0.96758730364E+02  0.00000000000E+00 0.  1.
</event>
<event>
12    1  0.1597826E-001  0.1751787E+03  0.7818608E-02  0.1172978E+00
         21   -1    0    0  501  502  0.00000000000E+00  0.00000000000E+00  0.36124478980E+02  0.36124478980E+02  0.00000000000E+00 0. -1.
         21   -1    0    0  502  503 -0.00000000000E+00 -0.00000000000E+00 -0.20734747873E+04  0.20734747873E+04  0.00000000000E+00 0. -1.
         -6    2    1    2    0  503 -0.24543317347E+02 -0.84294866229E+00 -0.18337915080E+04  0.18421397507E+04  0.17344878653E+03 0.  0.
        -24    2    3    3    0    0  0.44210989377E+02 -0.35682984853E+01 -0.13934201933E+04  0.13964004020E+04  0.79667454334E+02 0.  0.
          6    2    1    2  501    0  0.24543317347E+02  0.84294866229E+00 -0.20355880039E+03  0.26745951558E+03  0.17174202244E+03 0.  0.
         24    2    5    5    0    0  0.12981547477E+02  0.33334369579E+02 -0.21404395484E+03  0.23110851257E+03  0.79477224482E+02 0.  0.
          5    1    5    5  501    0  0.11561769871E+02 -0.32491420917E+02  0.10485154452E+02  0.36351003007E+02  0.47000000000E+01 0. -1.
        -13    1    6    6    0    0  0.40460463875E+02  0.20011786661E+02 -0.66076759295E+02  0.80022864615E+02  0.00000000000E+00 0.  1.
         14    1    6    6    0    0 -0.27478916399E+02  0.13322582918E+02 -0.14796719554E+03  0.15108564796E+03  0.00000000000E+00 0. -1.
         -5    1    3    3    0  503 -0.68754306724E+02  0.27253498230E+01 -0.44037131467E+03  0.44573934874E+03  0.47000000000E+01 0.  1.
         11    1    4    4    0    0  0.13996419027E+01  0.16217749420E+02 -0.60663915349E+02  0.62809911791E+02  0.00000000000E+00 0. -1.
        -12    1    4    4    0    0  0.42811347474E+02 -0.19786047906E+02 -0.13327562780E+04  0.13335904902E+04  0.00000000000E+00 0.  1.
</event>
<event>
12    1  0.1597826E-001  0.2042516E+03  0.7818608E-02  0.1146270E+00
         21   -1    0    0  503  502  0.00000000000E+00  0.00000000000E+00  0.35055650662E+03  0.35055650662E+03  0.00000000000E+00 0.  1.
         21   -1    0    0  501  503 -0.00000000000E+00 -0.00000000000E+00 -0.14793796836E+03  0.14793796836E+03  0.00000000000E+00 0.  1.
          6    2    1    2  501    0 -0.25928574023E+02 -0.10646830577E+03 -0.93547656752E+01  0.20412835220E+03  0.17196825709E+03 0.  0.
         24    2    3    3    0    0  0.13323636387E+02 -0.79277224258E+02  0.53125660600E+02  0.12535028036E+03  0.80174555808E+02 0.  0.
         -6    2    1    2    0  502  0.25928574023E+02  0.10646830577E+03  0.21197330394E+03  0.29436612278E+03  0.17236862119E+03 0.  0.
        -24    2    5    5    0    0 -0.45887303800E+02  0.48800435135E+02  0.15391773263E+03  0.18539069908E+03  0.78688727055E+02 0.  0.
          5    1    3    3  501    0 -0.39252210410E+02 -0.27191081515E+02 -0.62480426275E+02  0.78778071845E+02  0.47000000000E+01 0. -1.
        -13    1    4    4    0    0 -0.33919199764E+02 -0.33379179605E+02  0.24605573505E+02  0.53573463499E+02  0.00000000000E+00 0.  1.
         14    1    4    4    0    0  0.47242836151E+02 -0.45898044653E+02  0.28520087095E+02  0.71776816859E+02  0.00000000000E+00 0. -1.
         -5    1    5    5    0  502  0.71815877823E+02  0.57667870638E+02  0.58055571310E+02  0.10897542370E+03  0.47000000000E+01 0.  1.
         11    1    6    6    0    0 -0.43257643872E+02 -0.92923873424E+01  0.79074215069E+02  0.90610726212E+02  0.00000000000E+00 0. -1.
        -12    1    6    6    0    0 -0.26296599281E+01  0.58092822477E+02  0.74843517565E+02  0.94779972864E+02  0.00000000000E+00 0.  1.
</event>
<event>
12    1  0.1597826E-001  0.2806886E+03  0.7818608E-02  0.1095891E+00
         21   -1    0    0  503  502  0.00000000000E+00  0.00000000000E+00  0.19495057564E+03  0.19495057564E+03  0.00000000000E+00 0. -1.
         21   -1    0    0  501  503 -0.00000000000E+00 -0.00000000000E+00 -0.72616309860E+03  0.72616309860E+03  0.00000000000E+00 0.  1.
          6    2    1    2  501    0  0.21748076489E+03 -0.59338735651E-01  0.42849772707E+02  0.28394042745E+03  0.17744908200E+03 0.  0.
         24    2    3    3    0    0  0.62390519598E+02 -0.57244705942E+02  0.17015412380E+02  0.11657061363E+03  0.78292083946E+02 0.  0.
         -6    2    1    2    0  502 -0.21748076489E+03  0.59338735651E-01 -0.57406229566E+03  0.63717324678E+03  0.17071713591E+03 0.  0.
        -24    2    5    5    0    0 -0.11065797596E+03  0.38316278818E+02 -0.19043144569E+03  0.23708648026E+03  0.78946429597E+02 0.  0.
          5    1    3    3  501    0  0.15509024529E+03  0.57185367207E+02  0.25834360327E+02  0.16736981383E+03  0.47000000000E+01 0. -1.
        -13    1    4    4    0    0 -0.16705135595E+02 -0.57982321316E+01 -0.73040603188E+01  0.19131919617E+02  0.00000000000E+00 0.  1.
         14    1    4    4    0    0  0.79095655192E+02 -0.51446473811E+02  0.24319472699E+02  0.97438694009E+02  0.00000000000E+00 0. -1.
         -5    1    5    5    0  502 -0.10682278893E+03 -0.38256940083E+02 -0.38363084997E+03  0.40008676653E+03  0.47000000000E+01 0.  1.
         11    1    6    6    0    0 -0.13845341179E+02 -0.13915948043E+02 -0.31407779385E+01  0.19879928782E+02  0.00000000000E+00 0. -1.
        -12    1    6    6    0    0 -0.96812634779E+02  0.52232226861E+02 -0.18729066775E+03  0.21720655147E+03  0.00000000000E+00 0.  1.
</event>
<event>
12    1  0.1597826E-001  0.2001762E+03  0.7818608E-02  0.1150088E+00
         21   -1    0    0  501  502  0.00000000000E+00  0.00000000000E+00  0.31756891852E+03  0.31756891852E+03  0.00000000000E+00 0. -1.
         21   -1    0    0  502  503 -0.00000000000E+00 -0.00000000000E+00 -0.12472244634E+03  0.12472244634E+03  0.00000000000E+00 0.  1.
         -6    2    1    2    0  503  0.97913306603E+02  0.10794477089E+02  0.94367356939E+02  0.22130452446E+03  0.17426117797E+03 0.  0.
        -24    2    3    3    0    0  0.12931434372E+03 -0.19281505445E+02  0.87541498654E+02  0.17704085766E+03  0.81154022379E+02 0.  0.
          6    2    1    2  501    0 -0.97913306603E+02 -0.10794477089E+02  0.98479115237E+02  0.22098684040E+03  0.17156197465E+03 0.  0.
         24    2    5    5    0    0 -0.76245811675E+02 -0.32321450195E+02  0.13302946776E+03  0.17463268452E+03  0.77082003548E+02 0.  0.
          5    1    5    5  501    0 -0.21667494929E+02  0.21526973105E+02 -0.34550352523E+02  0.46354155876E+02  0.47000000000E+01 0. -1.
        -11    1    6    6    0    0 -0.57623613060E+02 -0.43482304582E+02  0.47556327179E+02  0.86445334453E+02  0.00000000000E+00 0.  1.
         12    1    6    6    0    0 -0.18622198614E+02  0.11160854387E+02  0.85473140581E+02  0.88187350071E+02  0.00000000000E+00 0. -1.
         -5    1    3    3    0  503 -0.31401037122E+02  0.30075982534E+02  0.68258582846E+01  0.44263666805E+02  0.47000000000E+01 0.  1.
         11    1    4    4    0    0  0.40369493052E+02 -0.39278666757E+02  0.96787487526E+01  0.57150571379E+02  0.00000000000E+00 0. -1.
        -12    1    4    4    0    0  0.88944850673E+02  0.19997161313E+02  0.77862749902E+02  0.11989028628E+03  0.00000000000E+00 0.  1.
</event>
<event>
12    1  0.1597826E-001  0.1814591E+03  0.7818608E-02  0.1166673E+00
         21   -1    0    0  501  502  0.00000000000E+00  0.00000000000E+00  0.16500278555E+03  0.16500278555E+03  0.00000000000E+00 0.  1.
         21   -1    0    0  502  503 -0.00000000000E+00 -0.00000000000E+00 -0.26405612561E+03  0.26405612561E+03  0.00000000000E+00 0.  1.
         -6    2    1    2    0  503 -0.55367433561E+02  0.28571308880E+01 -0.15669821351E+03  0.23975348024E+03  0.17278219027E+03 0.  0.
        -24    2    3    3    0    0 -0.54966682490E+02  0.38497105531E+02 -0.30409586719E+02  0.10844744210E+03  0.79578523587E+02 0.  0.
          6    2    1    2  501    0  0.55367433561E+02 -0.28571308880E+01  0.57644873444E+02  0.18930543093E+03  0.17158058995E+03 0.  0.
         24    2    5    5    0    0 -0.34607758822E+02 -0.51083810952E+01  0.44938003101E+02  0.98288081340E+02  0.80108241041E+02 0.  0.
          5    1    5    5  501    0  0.89975192383E+02  0.22512502072E+01  0.12706870343E+02  0.91017349587E+02  0.47000000000E+01 0. -1.
        -11    1    6    6    0    0  0.16781685778E+02  0.22040738374E+02  0.60422663535E+01  0.28353626017E+02  0.00000000000E+00 0.  1.
         12    1    6    6    0    0 -0.51389444600E+02 -0.27149119469E+02  0.38895736748E+02  0.69934455323E+02  0.00000000000E+00 0. -1.
         -5    1    3    3    0  503 -0.40075107140E+00 -0.35639974643E+02 -0.12628862679E+03  0.13130603813E+03  0.47000000000E+01 0.  1.
         13    1    4    4    0    0 -0.48019506359E+02  0.51150869161E+02 -0.48509312718E+02  0.85296177096E+02  0.00000000000E+00 0. -1.
        -14    1    4    4    0    0 -0.69471761313E+01 -0.12653763630E+02  0.18099725999E+02  0.23151265008E+02  0.00000000000E+00 0.  1.
</event>
<event>
12    1  0.1597826E-001  0.2296724E+03  0.7818608E-02  0.1127073E+00
         21   -1    0    0  503  502  0.00000000000E+00  0.00000000000E+00  0.52624767632E+03  0.52624767632E+03  0.00000000000E+00 0. -1.
         21   -1    0    0  501  503 -0.00000000000E+00 -0.00000000000E+00 -0.10895396611E+03  0.10895396611E+03  0.00000000000E+00 0. -1.
          6    2    1    2  501    0  0.15198686865E+03 -0.94375493697E+00  0.11580150903E+03  0.25619378867E+03  0.17065863279E+03 0.  0.
         24    2    3    3    0    0  0.10215733751E+03  0.66039532255E+02  0.66201907724E+02  0.15897263158E+03  0.78052953675E+02 0.  0.
         -6    2    1    2    0  502 -0.15198686865E+03  0.94375493697E+00  0.30149220118E+03  0.37900785376E+03  0.17218741802E+03 0.  0.
        -24    2    5    5    0    0 -0.11263495698E+03 -0.44161618646E+02  0.12136172471E+03  0.18913382649E+03  0.80037828573E+02 0.  0.
          5    1    3    3  501    0  0.49829531139E+02 -0.66983287192E+02  0.49599601306E+02  0.97221157092E+02  0.47000000000E+01 0. -1.
        -11    1    4    4    0    0 -0.80003600382E+01  0.32863884877E+00  0.21821221563E+02  0.23243912638E+02  0.00000000000E+00 0.  1.
         12    1    4    4    0    0  0.11015769755E+03  0.65710893406E+02  0.44380686161E+02  0.13572871894E+03  0.00000000000E+00 0. -1.
         -5    1    5    5    0  502 -0.39351911668E+02  0.45105373583E+02  0.18013047648E+03  0.18987402728E+03  0.47000000000E+01 0.  1.
         11    1    6    6    0    0 -0.24041257813E+02 -0.15889501906E+01  0.78119402240E+02  0.81750521994E+02  0.00000000000E+00 0. -1.
        -12    1    6    6    0    0 -0.88593699167E+02 -0.42572668456E+02  0.43242322465E+02  0.10738330449E+03  0.00000000000E+00 0.  1.
</event>
<event>
12    1  0.1597826E-001  0.1727227E+03  0.7818608E-02  0.1175293E+00
         21   -1    0    0  503  502  0.00000000000E+00  0.00000000000E+00  0.28402629131E+02  0.28402629131E+02  0.00000000000E+00 0. -1.
         21   -1    0    0  501  503 -0.00000000000E+00 -0.00000000000E+00 -0.15852355561E+04  0.15852355561E+04  0.00000000000E+00 0. -1.
          6    2    1    2  501    0 -0.16892187340E+01 -0.33038083481E+01 -0.12511975733E+04  0.12630631446E+04  0.17268286357E+03 0.  0.
         24    2    3    3    0    0  0.16712623580E+02 -0.67148678725E+02 -0.73458182869E+03  0.74217091699E+03  0.80118350850E+02 0.  0.
         -6    2    1    2    0  502  0.16892187340E+01  0.33038083481E+01 -0.30563535373E+03  0.35057504062E+03  0.17168611199E+03 0.  0.
        -24    2    5    5    0    0  0.39996348588E+02  0.34780994792E+02 -0.95200864197E+02  0.13432746527E+03  0.78557226795E+02 0.  0.
          5    1    3    3  501    0 -0.18401842314E+02  0.63844870377E+02 -0.51661574457E+03  0.52089222763E+03  0.47000000000E+01 0. -1.
        -13    1    4    4    0    0 -0.20086600572E+02 -0.53832126096E+02 -0.27571414048E+03  0.28163745593E+03  0.00000000000E+00 0.  1.
         14    1    4    4    0    0  0.36799224152E+02 -0.13316552629E+02 -0.45886768820E+03  0.46053346105E+03  0.00000000000E+00 0. -1.
         -5    1    5    5    0  502 -0.38307129854E+02 -0.31477186444E+02 -0.21043448953E+03  0.21624757536E+03  0.47000000000E+01 0.  1.
         11    1    6    6    0    0 -0.11412395818E+02  0.49556420898E+01  0.83136449078E+01  0.14963885140E+02  0.00000000000E+00 0. -1.
        -12    1    6    6    0    0  0.51408744406E+02  0.29825352703E+02 -0.10351450911E+03  0.11936358013E+03  0.00000000000E+00 0.  1.
</event>
<event>
12    1  0.1597826E-001  0.2445302E+03  0.7818608E-02  0.1116852E+00
         21   -1    0    0  503  502  0.00000000000E+00  0.00000000000E+00  0.80390794877E+02  0.80390794877E+02  0.00000000000E+00 0. -1.
         21   -1    0    0  501  503 -0.00000000000E+00 -0.00000000000E+00 -0.87017880448E+03  0.87017880448E+03  0.00000000000E+00 0. -1.
          6    2    1    2  501    0  0.91679386431E+01 -0.17337588137E+03 -0.57639461536E+03  0.62602103765E+03  0.17183812043E+03 0.  0.
         24    2    3    3    0    0  0.33586288813E+02 -0.46217884885E+02 -0.14449354230E+03  0.17510415085E+03  0.80740003714E+02 0.  0.
         -6    2    1    2    0  502 -0.91679386431E+01  0.17337588137E+03 -0.21339339425E+03  0.32454856170E+03  0.17219692465E+03 0.  0.
        -24    2    5    5    0    0  0.39883713881E+01  0.30086292281E+02 -0.13656022551E+03  0.16136026356E+03  0.80419819536E+02 0.  0.
          5    1    3    3  501    0 -0.24418350170E+02 -0.12715799648E+03 -0.43190107306E+03  0.45091688680E+03  0.47000000000E+01 0. -1.
        -11    1    4    4    0    0  0.40998915434E+02  0.50359279299E+01 -0.94453530125E+02  0.10309093554E+03  0.00000000000E+00 0.  1.
         12    1    4    4    0    0 -0.74126266207E+01 -0.51253812815E+02 -0.50040012172E+02  0.72013215312E+02  0.00000000000E+00 0. -1.
         -5    1    5    5    0  502 -0.13156310031E+02  0.14328958909E+03 -0.76833168735E+02  0.16318829815E+03  0.47000000000E+01 0.  1.
         13    1    6    6    0    0  0.19566518068E+02  0.47953804399E+02 -0.51423058499E+02  0.72984566389E+02  0.00000000000E+00 0. -1.
        -14    1    6    6    0    0 -0.15578146679E+02 -0.17867512118E+02 -0.85137167011E+02  0.88375697168E+02  0.00000000000E+00 0.  1.
</event>
<event>
12    1  0.1597826E-001  0.2570668E+03  0.7818608E-02  0.1108935E+00
         21   -1    0    0  503  502  0.00000000000E+00  0.00000000000E+00  0.76593486706E+02  0.76593486706E+02  0.00000000000E+00 0. -1.
         21   -1    0    0  501  503 -0.00000000000E+00 -0.00000000000E+00 -0.86846363500E+03  0.86846363500E+03  0.00000000000E+00 0.  1.
          6    2    1    2  501    0 -0.97431120428E+02  0.16423791033E+03 -0.35643646873E+03  0.43940325288E+03  0.17193413850E+03 0.  0.
         24    2    3    3    0    0  0.74720972810E+01  0.42788341300E+02 -0.13648512215E+03  0.16708842081E+03  0.86044624529E+02 0.  0.
         -6    2    1    2    0  502  0.97431120428E+02 -0.16423791033E+03 -0.43543367956E+03  0.50565386883E+03  0.17209425134E+03 0.  0.
        -24    2    5    5    0    0  0.10818686803E+03 -0.18430870572E+03 -0.35512013039E+03  0.42204239166E+03  0.79595074765E+02 0.  0.
          5    1    3    3  501    0 -0.10490321771E+03  0.12144956903E+03 -0.21995134658E+03  0.27231483207E+03  0.47000000000E+01 0. -1.
        -11    1    4    4    0    0 -0.13584981494E+02 -0.21272804996E+02 -0.60167514554E+02  0.65247327625E+02  0.00000000000E+00 0.  1.
         12    1    4    4    0    0  0.21057078775E+02  0.64061146296E+02 -0.76317607597E+02  0.10184109318E+03  0.00000000000E+00 0. -1.
         -5    1    5    5    0  502 -0.10755747607E+02  0.20070795390E+02 -0.80313549170E+02  0.83611477170E+02  0.47000000000E+01 0.  1.
         11    1    6    6    0    0  0.89416622374E+02 -0.15825816779E+03 -0.23158143766E+03  0.29439929059E+03  0.00000000000E+00 0. -1.
        -12    1    6    6    0    0  0.18770245661E+02 -0.26050537926E+02 -0.12353869274E+03  0.12764310107E+03  0.00000000000E+00 0.  1.
</event>
<event>
12    1  0.1597826E-001  0.2065994E+03  0.7818608E-02  0.1144425E+00
         21   -1    0    0  503  502  0.00000000000E+00  0.00000000000E+00  0.11082136834E+04  0.11082136834E+04  0.00000000000E+00 0. -1.
         21   -1    0    0  501  503 -0.00000000000E+00 -0.00000000000E+00 -0.40000608362E+02  0.40000608362E+02  0.00000000000E+00 0.  1.
          6    2    1    2  501    0 -0.72173294721E+02  0.88729287523E+02  0.41804533452E+03  0.46601095242E+03  0.17123794885E+03 0.  0.
         24    2    3    3    0    0 -0.36794328521E+01  0.22092737656E+02  0.75800439138E+02  0.11064424420E+03  0.77426190134E+02 0.  0.
         -6    2    1    2    0  502  0.72173294721E+02 -0.88729287523E+02  0.65016774056E+03  0.68220333939E+03  0.17205067413E+03 0.  0.
        -24    2    5    5    0    0  0.89545446119E+02 -0.50432564696E+02  0.28115454222E+03  0.31077197134E+03  0.83483597512E+02 0.  0.
          5    1    3    3  501    0 -0.68493861868E+02  0.66636549867E+02  0.34224489539E+03  0.35536670822E+03  0.47000000000E+01 0. -1.
        -13    1    4    4    0    0 -0.24206283850E+02  0.43991416134E+02  0.52506443857E+02  0.72650640175E+02  0.00000000000E+00 0.  1.
         14    1    4    4    0    0  0.20526850998E+02 -0.21898678478E+02  0.23293995280E+02  0.37993604029E+02  0.00000000000E+00 0. -1.
         -5    1    5    5    0  502 -0.17372151398E+02 -0.38296722827E+02  0.36901319834E+03  0.37143136805E+03  0.47000000000E+01 0.  1.
         13    1    6    6    0    0  0.76827091945E+02 -0.72566622958E+02  0.24150504974E+03  0.26361526108E+03  0.00000000000E+00 0. -1.
        -14    1    6    6    0    0  0.12718354174E+02  0.22134058263E+02  0.39649492479E+02  0.47156710253E+02  0.00000000000E+00 0.  1.
</event>
<event>
12    1  0.1597826E-001  0.2964768E+03  0.7818608E-02  0.1087082E+00
         21   -1    0    0  503  502  0.00000000000E+00  0.00000000000E+00  0.91110009491E+03  0.91110009491E+03  0.00000000000E+00 0.  1.
         21   -1    0    0  501  503 -0.00000000000E+00 -0.00000000000E+00 -0.13404493500E+03  0.13404493500E+03  0.00000000000E+00 0. -1.
          6    2    1    2  501    0 -0.20395966462E+03 -0.12868655237E+03  0.11099057223E+03  0.31607677632E+03  0.17153963929E+03 0.  0.
         24    2    3    3    0    0 -0.85579592889E+02 -0.12013960583E+03  0.24053343162E+02  0.16887941399E+03  0.78640330266E+02 0.  0.
         -6    2    1    2    0  502  0.20395966462E+03  0.12868655237E+03  0.66606458768E+03  0.72906825358E+03  0.17244915153E+03 0.  0.
        -24    2    5    5    0    0  0.10040884594E+03  0.13918263744E+03  0.37142764996E+03  0.41655272610E+03  0.78127661890E+02 0.  0.
          5    1    3    3  501    0 -0.11838007173E+03 -0.85469465435E+01  0.86937229064E+02  0.14719736233E+03  0.47000000000E+01 0. -1.
        -11    1    4    4    0    0 -0.41070416838E+02 -0.10439776312E+03  0.39915080243E+02  0.11907512634E+03  0.00000000000E+00 0.  1.
         12    1    4    4    0    0 -0.44509176051E+02 -0.15741842713E+02 -0.15861737080E+02  0.49804287646E+02  0.00000000000E+00 0. -1.
         -5    1    5    5    0  502  0.10355081868E+03 -0.10496085073E+02  0.29463693772E+03  0.31251552749E+03  0.47000000000E+01 0.  1.
         11    1    6    6    0    0  0.43078358812E+02  0.84572319271E+02  0.12026421725E+03  0.15320477844E+03  0.00000000000E+00 0. -1.
        -12    1    6    6    0    0  0.57330487131E+02  0.54610318174E+02  0.25116343271E+03  0.26334794766E+03  0.00000000000E+00 0.  1.
</event>
<event>
12    1  0.1597826E-001  0.2215837E+03  0.7818608E-02  0.1133460E+00
         21   -1    0    0  501  502  0.00000000000E+00  0.00000000000E+00  0.42326437515E+03  0.42326437515E+03  0.00000000000E+00 0.  1.
         21   -1    0    0  502  503 -0.00000000000E+00 -0.00000000000E+00 -0.12947095687E+03  0.12947095687E+03  0.00000000000E+00 0.  1.
         -6    2    1    2    0  503 -0.10438398543E+03  0.91439351814E+02  0.52244538320E+02  0.22765945171E+03  0.17274884281E+03 0.  0.
        -24    2    3    3    0    0 -0.95537964657E+02 -0.11067368669E+01  0.51270326771E+02  0.13456772435E+03  0.79693779385E+02 0.  0.
          6    2    1    2  501    0  0.10438398543E+03 -0.91439351814E+02  0.24154887997E+03  0.32507588031E+03  0.16754490464E+03 0.  0.
         24    2    5    5    0    0  0.84640551037E+02  0.20578005471E+01  0.16905715969E+03  0.20503980153E+03  0.79326789574E+02 0.  0.
          5    1    5    5  501    0  0.19743434397E+02 -0.93497152361E+02  0.72491720274E+02  0.12003607878E+03  0.47000000000E+01 0. -1.
        -11    1    6    6    0    0  0.40210506497E+02 -0.38388164256E+02  0.89178210987E+02  0.10508705583E+03  0.00000000000E+00 0.  1.
         12    1    6    6    0    0  0.44430044540E+02  0.40445964803E+02  0.79878948708E+02  0.99952745702E+02  0.00000000000E+00 0. -1.
         -5    1    3    3    0  503 -0.88460207775E+01  0.92546088681E+02  0.97421154830E+00  0.93091727355E+02  0.47000000000E+01 0.  1.
         11    1    4    4    0    0 -0.13054975075E+02 -0.81558678214E+01 -0.20064636395E+02  0.25289131812E+02  0.00000000000E+00 0. -1.
        -12    1    4    4    0    0 -0.82482989581E+02  0.70491309545E+01  0.71334963166E+02  0.10927859254E+03  0.00000000000E+00 0.  1.
</event>
<event>
12    1  0.1597826E-001  0.1831282E+03  0.7818608E-02  0.1165172E+00
         21   -1    0    0  503  502  0.00000000000E+00  0.00000000000E+00  0.26818347082E+03  0.26818347082E+03  0.00000000000E+00 0. -1.
         21   -1    0    0  501  503 -0.00000000000E+00 -0.00000000000E+00 -0.14365825753E+03  0.14365825753E+03  0.00000000000E+00 0. -1.
          6    2    1    2  501    0 -0.30141441480E+02 -0.49018011525E+02 -0.14115751287E+02  0.18215224864E+03  0.17224666993E+03 0.  0.
         24    2    3    3    0    0 -0.75461016529E+02 -0.24634314257E+02  0.28000340527E+02  0.11548678708E+03  0.79069364904E+02 0.  0.
         -6    2    1    2    0  502  0.30141441480E+02  0.49018011525E+02  0.13864096458E+03  0.22968947970E+03  0.17385243190E+03 0.  0.
        -24    2    5    5    0    0  0.44603780707E+02  0.81594557842E+02  0.14852302284E+03  0.19240495608E+03  0.79456967530E+02 0.  0.
          5    1    3    3  501    0  0.45319575049E+02 -0.24383697268E+02 -0.42116091814E+02  0.66665461559E+02  0.47000000000E+01 0. -1.
        -11    1    4    4    0    0 -0.19200790621E+02 -0.21387804096E+02  0.47783184846E+02  0.55761467687E+02  0.00000000000E+00 0.  1.
         12    1    4    4    0    0 -0.56260225908E+02 -0.32465101607E+01 -0.19782844319E+02  0.59725319395E+02  0.00000000000E+00 0. -1.
         -5    1    5    5    0  502 -0.14462339227E+02 -0.32576546317E+02 -0.98820582659E+01  0.37284523618E+02  0.47000000000E+01 0.  1.
         11    1    6    6    0    0  0.64258059030E+02  0.64458061310E+02  0.13557140844E+03  0.16328976271E+03  0.00000000000E+00 0. -1.
        -12    1    6    6    0    0 -0.19654278323E+02  0.17136496532E+02  0.12951614397E+02  0.29115193375E+02  0.00000000000E+00 0.  1.
</event>
<event>
12    1  0.1597826E-001  0.1889913E+03  0.7818608E-02  0.1159557E+00
         21   -1    0    0  503  502  0.00000000000E+00  0.00000000000E+00  0.62408337665E+03  0.62408337665E+03  0.00000000000E+00 0.  1.
         21   -1    0    0  501  503 -0.00000000000E+00 -0.00000000000E+00 -0.11086203292E+03  0.11086203292E+03  0.00000000000E+00 0.  1.
          6    2    1    2  501    0 -0.74889160403E+02 -0.74817679650E+01  0.72768022223E+00  0.18899268881E+03  0.17335900238E+03 0.  0.
         24    2    3    3    0    0  0.25565542250E+02 -0.46632935531E+01 -0.20345853624E+02  0.86205165677E+02  0.79636885753E+02 0.  0.
         -6    2    1    2    0  502  0.74889160403E+02  0.74817679650E+01  0.51249366351E+03  0.54595272076E+03  0.17248262222E+03 0.  0.
        -24    2    5    5    0    0  0.57414206290E+02 -0.26827474189E+02  0.49084719571E+03  0.50153248115E+03  0.81164990365E+02 0.  0.
          5    1    3    3  501    0 -0.10045470265E+03 -0.28184744120E+01  0.21073533846E+02  0.10278752313E+03  0.47000000000E+01 0. -1.
        -13    1    4    4    0    0  0.16014843550E+02 -0.39294935812E+02 -0.26107855309E+02  0.49821554605E+02  0.00000000000E+00 0.  1.
         14    1    4    4    0    0  0.95506987003E+01  0.34631642259E+02  0.57620016858E+01  0.36383611072E+02  0.00000000000E+00 0. -1.
         -5    1    5    5    0  502  0.17474954113E+02  0.34309242154E+02  0.21646467803E+02  0.44420239608E+02  0.47000000000E+01 0.  1.
         13    1    6    6    0    0 -0.71763224818E+01 -0.91430040717E+01  0.81108543711E+01  0.14173217223E+02  0.00000000000E+00 0. -1.
        -14    1    6    6    0    0  0.64590528772E+02 -0.17684470118E+02  0.48273634134E+03  0.48735926393E+03  0.00000000000E+00 0.  1.
</event>
<event>
12    1  0.1597826E-001  0.2146426E+03  0.7818608E-02  0.1138129E+00
         21   -1    0    0  501  502  0.00000000000E+00  0.00000000000E+00  0.15934284155E+04  0.15934284155E+04  0.00000000000E+00 0. -1.
         21   -1    0    0  502  503 -0.00000000000E+00 -0.00000000000E+00 -0.36415283730E+02  0.36415283730E+02  0.00000000000E+00 0. -1.
         -6    2    1    2    0  503  0.12472563509E+03  0.36265704510E+01  0.11529982292E+04  0.11728070438E+04  0.17464767241E+03 0.  0.
        -24    2    3    3    0    0  0.63078666888E+02  0.48857503208E+02  0.93318302548E+03  0.94002603139E+03  0.80326874869E+02 0.  0.
          6    2    1    2  501    0 -0.12472563509E+03 -0.36265704510E+01  0.40401490261E+03  0.45703665543E+03  0.17344978182E+03 0.  0.
         24    2    5    5    0    0 -0.12665809477E+02 -0.38912962540E+02  0.23517274981E+03  0.25128851681E+03  0.78517864495E+02 0.  0.
          5    1    5    5  501    0 -0.11205982561E+03  0.35286392089E+02  0.16884215279E+03  0.20574813861E+03  0.47000000000E+01 0. -1.
        -13    1    6    6    0    0  0.57374449045E+01 -0.27551035489E+02  0.18814818581E+02  0.33852255890E+02  0.00000000000E+00 0.  1.
         14    1    6    6    0    0 -0.18403254382E+02 -0.11361927050E+02  0.21635793123E+03  0.21743626092E+03  0.00000000000E+00 0. -1.
         -5    1    3    3    0  503  0.61646968198E+02 -0.45230932757E+02  0.21981520369E+03  0.23278101241E+03  0.47000000000E+01 0.  1.
         13    1    4    4    0    0  0.73426408787E+02  0.11347462940E+02  0.60676824078E+03  0.61130017213E+03  0.00000000000E+00 0. -1.
        -14    1    4    4    0    0 -0.10347741898E+02  0.37510040268E+02  0.32641478470E+03  0.32872585927E+03  0.00000000000E+00 0.  1.
</event>
<event>
12    1  0.1597826E-001  0.2846023E+03  0.7818608E-02  0.1093302E+00
         21   -1    0    0  501  502  0.00000000000E+00  0.00000000000E+00  0.22920605140E+03  0.22920605140E+03  0.00000000000E+00 0. -1.
         21   -1    0    0  502  503 -0.00000000000E+00 -0.00000000000E+00 -0.41312126367E+03  0.41312126367E+03  0.00000000000E+00 0. -1.
         -6    2    1    2    0  503  0.22730288404E+02  0.22377317269E+03  0.31006482409E+02  0.28628634990E+03  0.17437710102E+03 0.  0.
        -24    2    3    3    0    0 -0.21763808293E+02  0.20214421258E+03  0.61163797625E+02  0.22815640738E+03  0.83536758727E+02 0.  0.
          6    2    1    2  501    0 -0.22730288404E+02 -0.22377317269E+03 -0.21492169469E+03  0.35604096517E+03  0.17315523441E+03 0.  0.
         24    2    5    5    0    0 -0.49396449883E+02 -0.14168759107E+03 -0.62812571833E+02  0.18108839407E+03  0.79575150408E+02 0.  0.
          5    1    5    5  501    0  0.26666161479E+02 -0.82085581625E+02 -0.15210912285E+03  0.17495257110E+03  0.47000000000E+01 0. -1.
        -13    1    6    6    0    0 -0.44255293411E+02 -0.82761126537E+02 -0.75670293642E+02  0.12055674349E+03  0.00000000000E+00 0.  1.
         14    1    6    6    0    0 -0.51411564718E+01 -0.58926464529E+02  0.12857721809E+02  0.60531650580E+02  0.00000000000E+00 0. -1.
         -5    1    3    3    0  503  0.44494096698E+02  0.21628960114E+02 -0.30157315216E+02  0.58129942522E+02  0.47000000000E+01 0.  1.
         11    1    4    4    0    0  0.14241959425E+02  0.57184685483E+02  0.51863067987E+02  0.78502862897E+02  0.00000000000E+00 0. -1.
        -12    1    4    4    0    0 -0.36005767718E+02  0.14495952710E+03  0.93007296379E+01  0.14965354448E+03  0.00000000000E+00 0.  1.
</event>
<event>
12    1  0.1597826E-001  0.1774983E+03  0.7818608E-02  0.1171355E+00
         21   -1    0    0  503  502  0.00000000000E+00  0.00000000000E+00  0.19833084938E+03  0.19833084938E+03  0.00000000000E+00 0.  1.
         21   -1    0    0  501  503 -0.00000000000E+00 -0.00000000000E+00 -0.21490443091E+03  0.21490443091E+03  0.00000000000E+00 0.  1.
          6    2    1    2  501    0 -0.55487532616E+01  0.40318439322E+02 -0.11737753706E+03  0.20911015429E+03  0.16820584178E+03 0.  0.
         24    2    3    3    0    0  0.15261015148E+02 -0.29485877864E+02 -0.23557767368E+02  0.90240779160E+02  0.80536415635E+02 0.  0.
         -6    2    1    2    0  502  0.55487532616E+01 -0.40318439322E+02  0.10080395554E+03  0.20412512599E+03  0.17276939659E+03 0.  0.
        -24    2    5    5    0    0 -0.15009179684E+02  0.20744900988E+02 -0.19731902508E+01  0.82730761079E+02  0.78643874250E+02 0.  0.
          5    1    3    3  501    0 -0.20809768410E+02  0.69804317186E+02 -0.93819769694E+02  0.11886937513E+03  0.47000000000E+01 0. -1.
        -11    1    4    4    0    0 -0.80458322318E+01 -0.16235523314E+02 -0.49635729675E+02  0.52839694302E+02  0.00000000000E+00 0.  1.
         12    1    4    4    0    0  0.23306847380E+02 -0.13250354550E+02  0.26077962307E+02  0.37401084858E+02  0.00000000000E+00 0. -1.
         -5    1    5    5    0  502  0.20557932945E+02 -0.61063340310E+02  0.10277714579E+03  0.12139436491E+03  0.47000000000E+01 0.  1.
         11    1    6    6    0    0 -0.27646765538E+02  0.39373776319E+02  0.19225138421E+02  0.51809688801E+02  0.00000000000E+00 0. -1.
        -12    1    6    6    0    0  0.12637585854E+02 -0.18628875331E+02 -0.21198328672E+02  0.30921072278E+02  0.00000000000E+00 0.  1.
</event>
<event>
12    1  0.1597826E-001  0.1776885E+03  0.7818608E-02  0.1170104E+00
         21   -1    0    0  501  502  0.00000000000E+00  0.00000000000E+00  0.36815887807E+02  0.36815887807E+02  0.00000000000E+00 0. -1.
         21   -1    0    0  502  503 -0.00000000000E+00 -0.00000000000E+00 -0.97796593153E+03  0.97796593153E+03  0.00000000000E+00 0. -1.
         -6    2    1    2    0  503  0.35201192603E+02  0.27961914209E+02 -0.29170502207E+03  0.34146760917E+03  0.17171871070E+03 0.  0.
        -24    2    3    3    0    0 -0.17928740420E+01  0.16004988308E+02 -0.47916391320E+02  0.94553625106E+02  0.79906404095E+02 0.  0.
          6    2    1    2  501    0 -0.35201192603E+02 -0.27961914209E+02 -0.64944502166E+03  0.67331421017E+03  0.17190752414E+03 0.  0.
         24    2    5    5    0    0  0.33541451983E+02 -0.17960000435E+02 -0.19164075336E+03  0.21024571898E+03  0.77649812516E+02 0.  0.
          5    1    5    5  501    0 -0.68742644586E+02 -0.10001913774E+02 -0.45780426830E+03  0.46306849119E+03  0.47000000000E+01 0. -1.
        -13    1    6    6    0    0  0.24938700252E+02 -0.25395347211E+02 -0.25665510179E+02  0.43881440758E+02  0.00000000000E+00 0.  1.
         14    1    6    6    0    0  0.86027517307E+01  0.74353467761E+01 -0.16597524318E+03  0.16636427822E+03  0.00000000000E+00 0. -1.
         -5    1    3    3    0  503  0.36994066645E+02  0.11956925901E+02 -0.24378863075E+03  0.24691398406E+03  0.47000000000E+01 0.  1.
         11    1    4    4    0    0  0.15770484299E+02 -0.27680586738E+02 -0.31197770749E+02  0.44589505008E+02  0.00000000000E+00 0. -1.
        -12    1    4    4    0    0 -0.17563358341E+02  0.43685575046E+02 -0.16718620571E+02  0.49964120098E+02  0.00000000000E+00 0.  1.
</event>
<event>
12    1  0.1597826E-001  0.2102499E+03  0.7818608E-02  0.1141372E+00
         21   -1    0    0  503  502  0.00000000000E+00  0.00000000000E+00  0.13738539025E+03  0.13738539025E+03  0.00000000000E+00 0. -1.
         21   -1    0    0  501  503 -0.00000000000E+00 -0.00000000000E+00 -0.40600964739E+03  0.40600964739E+03  0.00000000000E+00 0. -1.
          6    2    1    2  501    0  0.33987703655E+02  0.11564601105E+03 -0.25809656501E+03  0.33288175396E+03  0.17224186884E+03 0.  0.
         24    2    3    3    0    0  0.42155508001E+02 -0.97140472509E-01 -0.14945998433E+03  0.17386229976E+03  0.78183860698E+02 0.  0.
         -6    2    1    2    0  502 -0.33987703655E+02 -0.11564601105E+03 -0.10527692134E+02  0.21051328367E+03  0.17226678853E+03 0.  0.
        -24    2    5    5    0    0  0.25515926860E+01 -0.14035568126E+03  0.10052739395E+02  0.16161203480E+03  0.79442836919E+02 0.  0.
          5    1    3    3  501    0 -0.81678043462E+01  0.11574315152E+03 -0.10863658069E+03  0.15901945420E+03  0.47000000000E+01 0. -1.
        -13    1    4    4    0    0 -0.44382767669E+01 -0.29929368562E+02 -0.32082324813E+02  0.44099217324E+02  0.00000000000E+00 0.  1.
         14    1    4    4    0    0  0.46593784768E+02  0.29832228089E+02 -0.11737765951E+03  0.12976308244E+03  0.00000000000E+00 0. -1.
         -5    1    5    5    0  502 -0.36539296341E+02  0.24709670212E+02 -0.20580431529E+02  0.48901248869E+02  0.47000000000E+01 0.  1.
         13    1    6    6    0    0  0.34338173052E+02 -0.68339903766E+02 -0.17048085198E+02  0.78358725003E+02  0.00000000000E+00 0. -1.
        -14    1    6    6    0    0 -0.31786580366E+02 -0.72015777491E+02  0.27100824593E+02  0.83253309800E+02  0.00000000000E+00 0.  1.
</event>
<event>
12    1  0.1597826E-001  0.1825701E+03  0.7818608E-02  0.1165423E+00
         21   -1    0    0  501  502  0.00000000000E+00  0.00000000000E+00  0.11288685584E+03  0.11288685584E+03  0.00000000000E+00 0. -1.
         21   -1    0    0  502  503 -0.00000000000E+00 -0.00000000000E+00 -0.36195941230E+03  0.36195941230E+03  0.00000000000E+00 0. -1.
         -6    2    1    2    0  503 -0.52756206063E+02  0.31722596947E+02 -0.22678893295E+03  0.29092126483E+03  0.17150050083E+03 0.  0.
        -24    2    3    3    0    0 -0.28393186876E+02  0.29973325298E+02 -0.24398695524E+03  0.26068091718E+03  0.81977636981E+02 0.  0.
          6    2    1    2  501    0  0.52756206063E+02 -0.31722596947E+02 -0.22283623510E+02  0.18392500331E+03  0.17187875532E+03 0.  0.
         24    2    5    5    0    0  0.40790939840E+02 -0.86475345192E+02 -0.29221697114E+02  0.12725704145E+03  0.78730940031E+02 0.  0.
          5    1    5    5  501    0  0.11965266223E+02  0.54752748244E+02  0.69380736040E+01  0.56667961860E+02  0.47000000000E+01 0. -1.
        -13    1    6    6    0    0  0.15572095992E+00  0.14183416879E+02  0.19523243327E+01  0.14318000338E+02  0.00000000000E+00 0.  1.
         14    1    6    6    0    0  0.40635218880E+02 -0.10065876207E+03 -0.31174021446E+02  0.11293904112E+03  0.00000000000E+00 0. -1.
         -5    1    3    3    0  503 -0.24363019187E+02  0.17492716490E+01  0.17198022289E+02  0.30240347648E+02  0.47000000000E+01 0.  1.
         11    1    4    4    0    0 -0.26543143083E+02  0.42788539783E+02 -0.70085926161E+02  0.86298520424E+02  0.00000000000E+00 0. -1.
        -12    1    4    4    0    0 -0.18500437934E+01 -0.12815214485E+02 -0.17390102908E+03  0.17438239675E+03  0.00000000000E+00 0.  1.
</event>
<event>
12    1  0.1597826E-001  0.1828959E+03  0.7818608E-02  0.1165516E+00
         21   -1    0    0  503  502  0.00000000000E+00  0.00000000000E+00  0.96217655803E+02  0.96217655803E+02  0.00000000000E+00 0. -1.
         21   -1    0    0  501  503 -0.00000000000E+00 -0.00000000000E+00 -0.64944222438E+03  0.64944222438E+03  0.00000000000E+00 0. -1.
          6    2    1    2  501    0 -0.52537036597E+02  0.30547017384E+02 -0.53320615175E+03  0.56370179004E+03  0.17250405022E+03 0.  0.
         24    2    3    3    0    0 -0.61039916920E+02 -0.44540069852E+02 -0.30532021939E+03  0.32356754048E+03  0.75933046843E+02 0.  0.
         -6    2    1    2    0  502  0.52537036597E+02 -0.30547017384E+02 -0.20018416821E+02  0.18195809014E+03  0.17033716292E+03 0.  0.
        -24    2    5    5    0    0 -0.10607769923E+02 -0.39905452864E+02  0.37191794262E+02  0.96109705431E+02  0.78414768804E+02 0.  0.
          5    1    3    3  501    0  0.85028803234E+01  0.75087087236E+02 -0.22788593236E+03  0.24013424956E+03  0.47000000000E+01 0. -1.
        -11    1    4    4    0    0 -0.33080700040E+01 -0.35150339509E+02 -0.20002992928E+03  0.20312179179E+03  0.00000000000E+00 0.  1.
         12    1    4    4    0    0 -0.57731846916E+02 -0.93897303425E+01 -0.10529029012E+03  0.12044574869E+03  0.00000000000E+00 0. -1.
         -5    1    5    5    0  502  0.63144806520E+02  0.93584354798E+01 -0.57210211083E+02  0.85848384710E+02  0.47000000000E+01 0.  1.
         11    1    6    6    0    0  0.23821944017E+02 -0.36774859353E+02 -0.19833942893E+01  0.43861248843E+02  0.00000000000E+00 0. -1.
        -12    1    6    6    0    0 -0.34429713940E+02 -0.31305935107E+01  0.39175188551E+02  0.52248456587E+02  0.00000000000E+00 0.  1.
</event>
<event>
12    1  0.1597826E-001  0.2114919E+03  0.7818608E-02  0.1140465E+00
         21   -1    0    0  501  502  0.00000000000E+00  0.00000000000E+00  0.68412457886E+02  0.68412457886E+02  0.00000000000E+00 0. -1.
         21   -1    0    0  502  503 -0.00000000000E+00 -0.00000000000E+00 -0.66816399728E+03  0.66816399728E+03  0.00000000000E+00 0.  1.
         -6    2    1    2    0  503  0.12192469034E+03 -0.17338557855E+01 -0.35630234596E+03  0.41434305402E+03  0.17280094995E+03 0.  0.
        -24    2    3    3    0    0  0.80503473150E+02  0.16009478870E+02 -0.90789399186E+02  0.14499243110E+03  0.77736590291E+02 0.  0.
          6    2    1    2  501    0 -0.12192469034E+03  0.17338557855E+01 -0.24344919343E+03  0.32223340114E+03  0.17233171114E+03 0.  0.
         24    2    5    5    0    0 -0.12431530284E+02  0.24614120215E+02 -0.46437877349E+02  0.95632855555E+02  0.78922549057E+02 0.  0.
          5    1    5    5  501    0 -0.10949316005E+03 -0.22880264430E+02 -0.19701131608E+03  0.22660054559E+03  0.47000000000E+01 0. -1.
        -13    1    6    6    0    0 -0.32357096157E+02  0.97620433743E+01 -0.58841830673E+02  0.67857499213E+02  0.00000000000E+00 0.  1.
         14    1    6    6    0    0  0.19925565872E+02  0.14852076841E+02  0.12403953324E+02  0.27775356341E+02  0.00000000000E+00 0. -1.
         -5    1    3    3    0  503  0.41421217186E+02 -0.17743334655E+02 -0.26551294678E+03  0.26935062291E+03  0.47000000000E+01 0.  1.
         11    1    4    4    0    0  0.23597207186E+02 -0.17358226654E+02  0.39390130408E+01  0.29557605506E+02  0.00000000000E+00 0. -1.
        -12    1    4    4    0    0  0.56906265965E+02  0.33367705523E+02 -0.94728412227E+02  0.11543482560E+03  0.00000000000E+00 0.  1.
</event>
<event>
12    1  0.1597826E-001  0.3154622E+03  0.7818608E-02  0.1077817E+00
         21   -1    0    0  501  502  0.00000000000E+00  0.00000000000E+00  0.16344961223E+04  0.16344961223E+04  0.00000000000E+00 0. -1.
         21   -1    0    0  502  503 -0.00000000000E+00 -0.00000000000E+00 -0.63033437328E+02  0.63033437328E+02  0.00000000000E+00 0.  1.
         -6    2    1    2    0  503 -0.16419433029E+03  0.20709348621E+03  0.62606607434E+03  0.70105287891E+03  0.17224668202E+03 0.  0.
        -24    2    3    3    0    0 -0.40177000479E+02  0.20623773829E+02  0.22900480228E+03  0.24516802997E+03  0.74997546874E+02 0.  0.
          6    2    1    2  501    0  0.16419433029E+03 -0.20709348621E+03  0.94539661064E+03  0.99647668072E+03  0.17129954372E+03 0.  0.
         24    2    5    5    0    0  0.14444998341E+03 -0.18695872039E+03  0.93176571716E+03  0.96480430655E+03  0.82708146071E+02 0.  0.
          5    1    5    5  501    0  0.19744346880E+02 -0.20134765824E+02  0.13630893481E+02  0.31672374170E+02  0.47000000000E+01 0. -1.
        -11    1    6    6    0    0  0.20959899523E+02 -0.25860733612E+02  0.50646452945E+02  0.60606584848E+02  0.00000000000E+00 0.  1.
         12    1    6    6    0    0  0.12349008389E+03 -0.16109798677E+03  0.88111926422E+03  0.90419772170E+03  0.00000000000E+00 0. -1.
         -5    1    3    3    0  503 -0.12401732981E+03  0.18646971238E+03  0.39706127206E+03  0.45588484895E+03  0.47000000000E+01 0.  1.
         13    1    4    4    0    0 -0.55331695707E+02  0.20732119293E+02  0.21941901684E+03  0.22723582964E+03  0.00000000000E+00 0. -1.
        -14    1    4    4    0    0  0.15154695227E+02 -0.10834546423E+00  0.95857854367E+01  0.17932200328E+02  0.00000000000E+00 0.  1.
</event>
<event>
12    1  0.1597826E-001  0.1792004E+03  0.7818608E-02  0.1169226E+00
         21   -1    0    0  501  502  0.00000000000E+00  0.00000000000E+00  0.23268766251E+03  0.23268766251E+03  0.00000000000E+00 0.  1.
         21   -1    0    0  502  503 -0.00000000000E+00 -0.00000000000E+00 -0.14578348975E+03  0.14578348975E+03  0.00000000000E+00 0.  1.
         -6    2    1    2    0  503 -0.34024306401E+02  0.91531278430E+01 -0.59104439813E+01  0.17666099285E+03  0.17301080854E+03 0.  0.
        -24    2    3    3    0    0  0.16991995777E+02 -0.14593210744E+02  0.49733500872E+02  0.97383692929E+02  0.80675106564E+02 0.  0.
          6    2    1    2  501    0  0.34024306401E+02 -0.91531278430E+01  0.92814616732E+02  0.20181015941E+03  0.17570245925E+03 0.  0.
         24    2    5    5    0    0  0.53448027354E+02 -0.66638773417E+02  0.74290354800E+02  0.13819319105E+03  0.79252025124E+02 0.  0.
          5    1    5    5  501    0 -0.19423720953E+02  0.57485645574E+02  0.18524261932E+02  0.63616968356E+02  0.47000000000E+01 0. -1.
        -11    1    6    6    0    0 -0.16458787275E+02 -0.31804229965E+02  0.10413667972E+02  0.37294037095E+02  0.00000000000E+00 0.  1.
         12    1    6    6    0    0  0.69906814629E+02 -0.34834543453E+02  0.63876686829E+02  0.10089915396E+03  0.00000000000E+00 0. -1.
         -5    1    3    3    0  503 -0.51016302178E+02  0.23746338587E+02 -0.55643944854E+02  0.79277299923E+02  0.47000000000E+01 0.  1.
         13    1    4    4    0    0 -0.16288506873E+02  0.25044502507E+02  0.28978036704E+02  0.41620537877E+02  0.00000000000E+00 0. -1.
        -14    1    4    4    0    0  0.33280502650E+02 -0.39637713251E+02  0.20755464169E+02  0.55763155051E+02  0.00000000000E+00 0.  1.
</event>
<event>
12    1  0.1597826E-001  0.2491562E+03  0.7818608E-02  0.1114119E+00
         21   -1    0    0  501  502  0.00000000000E+00  0.00000000000E+00  0.10586803711E+04  0.10586803711E+04  0.00000000000E+00 0.  1.
         21   -1    0    0  502  503 -0.00000000000E+00 -0.00000000000E+00 -0.11559351158E+03  0.11559351158E+03  0.00000000000E+00 0. -1.
         -6    2    1    2    0  503 -0.92225994892E+02 -0.15204601101E+03  0.57077804277E+02  0.25389849159E+03  0.17199693221E+03 0.  0.
        -24    2    3    3    0    0 -0.79921948311E+02 -0.13431733302E+03 -0.17283778526E+02  0.17632639233E+03  0.79772199803E+02 0.  0.
          6    2    1    2  501    0  0.92225994892E+02  0.15204601101E+03  0.88600905523E+03  0.92037539107E+03  0.17451415686E+03 0.  0.
         24    2    5    5    0    0  0.97707865692E+02  0.14065479806E+03  0.88710010520E+03  0.90684427766E+03  0.78034274823E+02 0.  0.
          5    1    5    5  501    0 -0.54818707998E+01  0.11391212959E+02 -0.10910499696E+01  0.13531113412E+02  0.47000000000E+01 0. -1.
        -11    1    6    6    0    0  0.10168938855E+03  0.86223628810E+02  0.60554322098E+03  0.62004664210E+03  0.00000000000E+00 0.  1.
         12    1    6    6    0    0 -0.39815228605E+01  0.54431169245E+02  0.28155688422E+03  0.28679763556E+03  0.00000000000E+00 0. -1.
         -5    1    3    3    0  503 -0.12304046581E+02 -0.17728677995E+02  0.74361582803E+02  0.77572099254E+02  0.47000000000E+01 0.  1.
         13    1    4    4    0    0 -0.82283232388E+02 -0.14108153941E+03 -0.65923369906E+01  0.16345638562E+03  0.00000000000E+00 0. -1.
        -14    1    4    4    0    0  0.23612840764E+01  0.67642063898E+01 -0.10691441535E+02  0.12870006708E+02  0.00000000000E+00 0.  1.
</event>
<event>
12    1  0.1597826E-001  0.2559016E+03  0.7818608E-02  0.1109732E+00
         21   -1    0    0  503  502  0.00000000000E+00  0.00000000000E+00  0.26864760555E+03  0.26864760555E+03  0.00000000000E+00 0.  1.
         21   -1    0    0  501  503 -0.00000000000E+00 -0.00000000000E+00 -0.25467690052E+03  0.25467690052E+03  0.00000000000E+00 0.  1.
          6    2    1    2  501    0  0.33589052314E+02  0.18539538197E+03  0.62704604444E+02  0.26347200840E+03  0.17316454515E+03 0.  0.
         24    2    3    3    0    0  0.49134412448E+02  0.20597023689E+03  0.72305147356E+02  0.23555707868E+03  0.73628622238E+02 0.  0.
         -6    2    1    2    0  502 -0.33589052314E+02 -0.18539538197E+03 -0.48733899413E+02  0.25985249767E+03  0.17218784946E+03 0.  0.
        -24    2    5    5    0    0  0.17961474531E+01 -0.49384111305E+02 -0.70866183232E+02  0.11750396027E+03  0.79643883375E+02 0.  0.
          5    1    3    3  501    0 -0.15545360134E+02 -0.20574854918E+02 -0.96005429112E+01  0.27914929712E+02  0.47000000000E+01 0. -1.
        -13    1    4    4    0    0 -0.17472008133E+02  0.52961202223E+02  0.63926080290E+01  0.56133995462E+02  0.00000000000E+00 0.  1.
         14    1    4    4    0    0  0.66606420581E+02  0.15300903467E+03  0.65912539327E+02  0.17942308322E+03  0.00000000000E+00 0. -1.
         -5    1    5    5    0  502 -0.35385199767E+02 -0.13601127067E+03  0.22132283819E+02  0.14234853739E+03  0.47000000000E+01 0.  1.
         13    1    6    6    0    0  0.27874487248E+02 -0.53872536792E+02 -0.67627924073E+02  0.90844776262E+02  0.00000000000E+00 0. -1.
        -14    1    6    6    0    0 -0.26078339795E+02  0.44884254870E+01 -0.32382591593E+01  0.26659184012E+02  0.00000000000E+00 0.  1.
</event>
<event>
12    1  0.1597826E-001  0.2470008E+03  0.7818608E-02  0.1115430E+00
         21   -1    0    0  501  502  0.00000000000E+00  0.00000000000E+00  0.57009229513E+03  0.57009229513E+03  0.00000000000E+00 0. -1.
         21   -1    0    0  502  503 -0.00000000000E+00 -0.00000000000E+00 -0.13334790237E+03  0.13334790237E+03  0.00000000000E+00 0. -1.
         -6    2    1    2    0  503 -0.14060794988E+03 -0.10549090624E+03  0.60848413579E+02  0.25438541329E+03  0.17352372227E+03 0.  0.
        -24    2    3    3    0    0 -0.81090168091E+02 -0.11558884836E+03 -0.88282604909E+01  0.16207472218E+03  0.79081477981E+02 0.  0.
          6    2    1    2  501    0  0.14060794988E+03  0.10549090624E+03  0.37589597918E+03  0.44905478421E+03  0.17162017713E+03 0.  0.
         24    2    5    5    0    0  0.71238353899E+01  0.65988612535E+02  0.15836563221E+03  0.19075267063E+03  0.83076241334E+02 0.  0.
          5    1    5    5  501    0  0.13348411449E+03  0.39502293703E+02  0.21753034697E+03  0.25830211358E+03  0.47000000000E+01 0. -1.
        -11    1    6    6    0    0  0.28135366617E+02  0.67687112019E+02  0.15196843689E+03  0.16872329359E+03  0.00000000000E+00 0.  1.
         12    1    6    6    0    0 -0.21011531227E+02 -0.16984994840E+01  0.63971953150E+01  0.22029377043E+02  0.00000000000E+00 0. -1.
         -5    1    3    3    0  503 -0.59517781784E+02  0.10097942122E+02  0.69676674069E+02  0.92310691109E+02  0.47000000000E+01 0.  1.
         13    1    4    4    0    0 -0.26732113387E+02 -0.10841228154E+01  0.18348871831E+02  0.32441675448E+02  0.00000000000E+00 0. -1.
        -14    1    4    4    0    0 -0.54358054704E+02 -0.11450472555E+03 -0.27177132322E+02  0.12963304673E+03  0.00000000000E+00 0.  1.
</event>
<event>
12    1  0.1597826E-001  0.2568397E+03  0.7818608E-02  0.1109064E+00
         21   -1    0    0  501  502  0.00000000000E+00  0.00000000000E+00  0.49375806974E+03  0.49375806974E+03  0.00000000000E+00 0. -1.
         21   -1    0    0  502  503 -0.00000000000E+00 -0.00000000000E+00 -0.13532275782E+03  0.13532275782E+03  0.00000000000E+00 0. -1.
         -6    2    1    2    0  503  0.14895819778E+03  0.11789266194E+03  0.14347347244E+03  0.29415510852E+03  0.17278705436E+03 0.  0.
        -24    2    3    3    0    0  0.17489409085E+03  0.81679332707E+02  0.13489183691E+03  0.24855017204E+03  0.79510527288E+02 0.  0.
          6    2    1    2  501    0 -0.14895819778E+03 -0.11789266194E+03  0.21496183948E+03  0.33492571904E+03  0.17285664701E+03 0.  0.
         24    2    5    5    0    0 -0.15982642955E+03 -0.55608566502E+02  0.18969718263E+03  0.26667749641E+03  0.80591970713E+02 0.  0.
          5    1    5    5  501    0  0.10868231771E+02 -0.62284095433E+02  0.25264656853E+02  0.68248222627E+02  0.47000000000E+01 0. -1.
        -13    1    6    6    0    0 -0.83175833607E+02  0.12273496962E+02  0.72143650516E+02  0.11078611977E+03  0.00000000000E+00 0.  1.
         14    1    6    6    0    0 -0.76650595939E+02 -0.67882063464E+02  0.11755353211E+03  0.15589137664E+03  0.00000000000E+00 0. -1.
         -5    1    3    3    0  503 -0.25935893075E+02  0.36213329228E+02  0.85816355287E+01  0.45604936484E+02  0.47000000000E+01 0.  1.
         11    1    4    4    0    0  0.91470073807E+02  0.29509789352E+02  0.11189306415E+03  0.14750477916E+03  0.00000000000E+00 0. -1.
        -12    1    4    4    0    0  0.83424017043E+02  0.52169543355E+02  0.22998772760E+02  0.10104539288E+03  0.00000000000E+00 0.  1.
</event>
<event>
12    1  0.1597826E-001  0.2144977E+03  0.7818608E-02  0.1138141E+00
         21   -1    0    0  503  502  0.00000000000E+00  0.00000000000E+00  0.52362049718E+03  0.52362049718E+03  0.00000000000E+00 0.  1.
         21   -1    0    0  501  503 -0.00000000000E+00 -0.00000000000E+00 -0.32523724267E+03  0.32523724267E+03  0.00000000000E+00 0.  1.
          6    2    1    2  501    0  0.97553431650E+01  0.12703397698E+03 -0.26351362831E+03  0.33977739298E+03  0.17255853048E+03 0.  0.
         24    2    3    3    0    0  0.35526928008E+01  0.20161348946E+02 -0.19543780279E+03  0.21282606563E+03  0.81730641946E+02 0.  0.
         -6    2    1    2    0  502 -0.97553431650E+01 -0.12703397698E+03  0.46189688281E+03  0.50908034687E+03  0.17199206724E+03 0.  0.
        -24    2    5    5    0    0  0.28034841899E+02 -0.14320617923E+03  0.26489835722E+03  0.30778417876E+03  0.57148918666E+02 0.  0.
          5    1    3    3  501    0  0.62026503642E+01  0.10687262804E+03 -0.68075825521E+02  0.12695132735E+03  0.47000000000E+01 0. -1.
        -11    1    4    4    0    0  0.13238257318E+02  0.49625093893E+02 -0.99095615077E+02  0.11161470480E+03  0.00000000000E+00 0.  1.
         12    1    4    4    0    0 -0.96855645171E+01 -0.29463744947E+02 -0.96342187715E+02  0.10121136082E+03  0.00000000000E+00 0. -1.
         -5    1    5    5    0  502 -0.37790185064E+02  0.16172202250E+02  0.19699852559E+03  0.20129616812E+03  0.47000000000E+01 0.  1.
         13    1    6    6    0    0  0.45101745332E+02 -0.10970499181E+03  0.21125551633E+03  0.24227720867E+03  0.00000000000E+00 0. -1.
        -14    1    6    6    0    0 -0.17066903433E+02 -0.33501187426E+02  0.53642840890E+02  0.65506970090E+02  0.00000000000E+00 0.  1.
</event>
<event>
12    1  0.1597826E-001  0.3104500E+03  0.7818608E-02  0.1080479E+00
         21   -1    0    0  503  502  0.00000000000E+00  0.00000000000E+00  0.94231070407E+02  0.94231070407E+02  0.00000000000E+00 0. -1.
         21   -1    0    0  501  503 -0.00000000000E+00 -0.00000000000E+00 -0.11703360880E+04  0.11703360880E+04  0.00000000000E+00 0.  1.
          6    2    1    2  501    0 -0.18354945396E+03  0.18174007065E+03 -0.77186536369E+03  0.83195873144E+03  0.17221886024E+03 0.  0.
         24    2    3    3    0    0 -0.94393389405E+02  0.18097833366E+03 -0.58801520239E+03  0.62757586547E+03  0.80164327870E+02 0.  0.
         -6    2    1    2    0  502  0.18354945396E+03 -0.18174007065E+03 -0.30423965388E+03  0.43260842695E+03  0.16693839804E+03 0.  0.
        -24    2    5    5    0    0  0.28390151136E+02 -0.35667570316E+02 -0.12025071171E+03  0.15103142958E+03  0.79196482238E+02 0.  0.
          5    1    3    3  501    0 -0.89156064559E+02  0.76173698698E+00 -0.18385016129E+03  0.20438286596E+03  0.47000000000E+01 0. -1.
        -13    1    4    4    0    0  0.76317345553E+01  0.55969611600E+01 -0.79737177958E+02  0.80296867282E+02  0.00000000000E+00 0.  1.
         14    1    4    4    0    0 -0.10202512396E+03  0.17538137250E+03 -0.50827802443E+03  0.54727899819E+03  0.00000000000E+00 0. -1.
         -5    1    5    5    0  502  0.15515930283E+03 -0.14607250033E+03 -0.18398894217E+03  0.28157699737E+03  0.47000000000E+01 0.  1.
         13    1    6    6    0    0  0.31616409830E+02 -0.24548646491E+02 -0.11473479492E+02  0.41639814442E+02  0.00000000000E+00 0. -1.
        -14    1    6    6    0    0 -0.32262586948E+01 -0.11118923825E+02 -0.10877723222E+03  0.10939161513E+03  0.00000000000E+00 0.  1.
</event>
<event>
12    1  0.1597826E-001  0.2019157E+03  0.7818608E-02  0.1148203E+00
         21   -1    0    0  501  502  0.00000000000E+00  0.00000000000E+00  0.42048823489E+02  0.42048823489E+02  0.00000000000E+00 0. -1.
         21   -1    0    0  502  503 -0.00000000000E+00 -0.00000000000E+00 -0.98098829351E+03  0.98098829351E+03  0.00000000000E+00 0.  1.
         -6    2    1    2    0  503  0.61649058190E+02  0.84946224059E+02 -0.41015795566E+03  0.45701607463E+03  0.17209786904E+03 0.  0.
        -24    2    3    3    0    0 -0.92044943621E+01 -0.11991843104E+02 -0.16447503720E+03  0.18352128273E+03  0.79996852046E+02 0.  0.
          6    2    1    2  501    0 -0.61649058190E+02 -0.84946224059E+02 -0.52878151436E+03  0.56602104236E+03  0.17249192186E+03 0.  0.
         24    2    5    5    0    0 -0.13280017864E+02 -0.42011686711E+02 -0.46880074094E+03  0.47768802623E+03  0.80438641192E+02 0.  0.
          5    1    5    5  501    0 -0.48369040326E+02 -0.42934537349E+02 -0.59980773415E+02  0.88333016131E+02  0.47000000000E+01 0. -1.
        -11    1    6    6    0    0 -0.20894040356E+02  0.18445173678E+02 -0.96905005004E+02  0.10083335435E+03  0.00000000000E+00 0.  1.
         12    1    6    6    0    0  0.76140224918E+01 -0.60456860389E+02 -0.37189573594E+03  0.37685467188E+03  0.00000000000E+00 0. -1.
         -5    1    3    3    0  503  0.70853552552E+02  0.96938067164E+02 -0.24568291846E+03  0.27349479190E+03  0.47000000000E+01 0.  1.
         11    1    4    4    0    0 -0.16859407347E+01  0.32907684455E+02 -0.45862514081E+02  0.56472367493E+02  0.00000000000E+00 0. -1.
        -12    1    4    4    0    0 -0.75185536273E+01 -0.44899527560E+02 -0.11861252311E+03  0.12704891524E+03  0.00000000000E+00 0.  1.
</event>
<event>
12    1  0.1597826E-001  0.1739799E+03  0.7818608E-02  0.1173996E+00
         21   -1    0    0  501  502  0.00000000000E+00  0.00000000000E+00  0.41441225802E+03  0.41441225802E+03  0.00000000000E+00 0.  1.
         21   -1    0    0  502  503 -0.00000000000E+00 -0.00000000000E+00 -0.26192781652E+03  0.26192781652E+03  0.00000000000E+00 0.  1.
         -6    2    1    2    0  503  0.10083623743E+02  0.11697201685E+02 -0.21128516048E+03  0.27310649588E+03  0.17235786915E+03 0.  0.
        -24    2    3    3    0    0  0.16269058969E+02 -0.25750566929E+02 -0.38007313103E+02  0.95658200950E+02  0.82329591173E+02 0.  0.
          6    2    1    2  501    0 -0.10083623743E+02 -0.11697201685E+02  0.36376960198E+03  0.40323357866E+03  0.17329308019E+03 0.  0.
         24    2    5    5    0    0 -0.30116882710E+01  0.33563715587E+01  0.58767080028E+02  0.97741760876E+02  0.77971447517E+02 0.  0.
          5    1    5    5  501    0 -0.70719354721E+01 -0.15053573244E+02  0.30500252195E+03  0.30549181778E+03  0.47000000000E+01 0. -1.
        -13    1    6    6    0    0  0.34594481778E+02 -0.28733918659E+01  0.45818922045E+02  0.57483981836E+02  0.00000000000E+00 0.  1.
         14    1    6    6    0    0 -0.37606170049E+02  0.62297634247E+01  0.12948157983E+02  0.40257779040E+02  0.00000000000E+00 0. -1.
         -5    1    3    3    0  503 -0.61854352256E+01  0.37447768614E+02 -0.17327784738E+03  0.17744829493E+03  0.47000000000E+01 0.  1.
         13    1    4    4    0    0  0.30401139096E+02  0.21173680825E+02 -0.25824784639E+02  0.45160530551E+02  0.00000000000E+00 0. -1.
        -14    1    4    4    0    0 -0.14132080127E+02 -0.46924247753E+02 -0.12182528464E+02  0.50497670399E+02  0.00000000000E+00 0.  1.
</event>
<event>
12    1  0.1597826E-001  0.1769942E+03  0.7818608E-02  0.1170886E+00
         21   -1    0    0  503  502  0.00000000000E+00  0.00000000000E+00  0.11420437735E+03  0.11420437735E+03  0.00000000000E+00 0. -1.
         21   -1    0    0  501  503 -0.00000000000E+00 -0.00000000000E+00 -0.66052864417E+03  0.66052864417E+03  0.00000000000E+00 0. -1.
          6    2    1    2  501    0 -0.42302747041E+02 -0.17923870191E+02 -0.56989117438E+03  0.59674356640E+03  0.17092731168E+03 0.  0.
         24    2    3    3    0    0  0.39654606583E+02 -0.13397782531E+02 -0.36424138184E+03  0.37526801368E+03  0.80014432735E+02 0.  0.
         -6    2    1    2    0  502  0.42302747041E+02  0.17923870191E+02  0.23566907560E+02  0.17798945512E+03  0.17033513869E+03 0.  0.
        -24    2    5    5    0    0 -0.42892325918E+01 -0.45143765353E+02 -0.12343235261E+02  0.91618351290E+02  0.78646104607E+02 0.  0.
          5    1    3    3  501    0 -0.81957353624E+02 -0.45260876597E+01 -0.20564979254E+03  0.22147555272E+03  0.47000000000E+01 0. -1.
        -13    1    4    4    0    0  0.24097846816E+02 -0.10682256274E+02 -0.27271322540E+02  0.37928114287E+02  0.00000000000E+00 0.  1.
         14    1    4    4    0    0  0.15556759767E+02 -0.27155262574E+01 -0.33697005930E+03  0.33733989939E+03  0.00000000000E+00 0. -1.
         -5    1    5    5    0  502  0.46591979633E+02  0.63067635544E+02  0.35910142821E+02  0.86371103829E+02  0.47000000000E+01 0.  1.
         11    1    6    6    0    0 -0.19678086755E+02 -0.20200677390E+02  0.29318709439E+02  0.40680230930E+02  0.00000000000E+00 0. -1.
        -12    1    6    6    0    0  0.15388854164E+02 -0.24943087963E+02 -0.41661944700E+02  0.50938120360E+02  0.00000000000E+00 0.  1.
</event>
<event>
12    1  0.1597826E-001  0.1822707E+03  0.7818608E-02  0.1165894E+00
         21   -1    0    0  501  502  0.00000000000E+00  0.00000000000E+00  0.33525952799E+03  0.33525952799E+03  0.00000000000E+00 0. -1.
         21   -1    0    0  502  503 -0.00000000000E+00 -0.00000000000E+00 -0.12693274691E+03  0.12693274691E+03  0.00000000000E+00 0.  1.
         -6    2    1    2    0  503 -0.15648113736E+02  0.59997298756E+02 -0.54999126274E+01  0.18122171188E+03  0.17019553607E+03 0.  0.
        -24    2    3    3    0    0 -0.12845493119E+02  0.93021179502E+02 -0.38625766784E+02  0.13412772506E+03  0.87637607449E+02 0.  0.
          6    2    1    2  501    0  0.15648113736E+02 -0.59997298756E+02  0.21382669370E+03  0.28097056301E+03  0.17140030052E+03 0.  0.
         24    2    5    5    0    0 -0.44833783050E+02 -0.76078256056E+02  0.15238558257E+03  0.19314256541E+03  0.79276198505E+02 0.  0.
          5    1    5    5  501    0  0.60481896786E+02  0.16080957300E+02  0.61441111132E+02  0.87827997607E+02  0.47000000000E+01 0. -1.
        -13    1    6    6    0    0 -0.23850226027E+02  0.11596613730E+02  0.21126215598E+02  0.33906219445E+02  0.00000000000E+00 0.  1.
         14    1    6    6    0    0 -0.20983557023E+02 -0.87674869786E+02  0.13125936697E+03  0.15923634596E+03  0.00000000000E+00 0. -1.
         -5    1    3    3    0  503 -0.28026206177E+01 -0.33023880746E+02  0.33125854157E+02  0.47093986829E+02  0.47000000000E+01 0.  1.
         13    1    4    4    0    0 -0.38764266342E+02  0.29663687283E+02 -0.43659879919E+02  0.65488837238E+02  0.00000000000E+00 0. -1.
        -14    1    4    4    0    0  0.25918773223E+02  0.63357492219E+02  0.50341131349E+01  0.68638887817E+02  0.00000000000E+00 0.  1.
</event>
<event>
12    1  0.1597826E-001  0.2470368E+03  0.7818608E-02  0.1115493E+00
         21   -1    0    0  501  502  0.00000000000E+00  0.00000000000E+00  0.18843137578E+03  0.18843137578E+03  0.00000000000E+00 0.  1.
         21   -1    0    0  502  503 -0.00000000000E+00 -0.00000000000E+00 -0.57450149560E+03  0.57450149560E+03  0.00000000000E+00 0. -1.
         -6    2    1    2    0  503 -0.15069179263E+03  0.87957601263E+02 -0.44580947195E+03  0.50877553154E+03  0.17222630527E+03 0.  0.
        -24    2    3    3    0    0 -0.14500632558E+03  0.12215667999E+03 -0.34111773288E+03  0.39839278039E+03  0.80040057829E+02 0.  0.
          6    2    1    2  501    0  0.15069179263E+03 -0.87957601263E+02  0.59739352130E+02  0.25415733985E+03  0.17487883583E+03 0.  0.
         24    2    5    5    0    0  0.41777359302E+02 -0.95632265575E+02  0.38989820403E+01  0.13143207272E+03  0.79801689893E+02 0.  0.
          5    1    5    5  501    0  0.10891443333E+03  0.76746643122E+01  0.55840370089E+02  0.12272526713E+03  0.47000000000E+01 0. -1.
        -13    1    6    6    0    0 -0.13218827968E+02  0.68908041345E+01 -0.13737090038E+01  0.14970226147E+02  0.00000000000E+00 0.  1.
         14    1    6    6    0    0  0.54996187269E+02 -0.10252306971E+03  0.52726910441E+01  0.11646184658E+03  0.00000000000E+00 0. -1.
         -5    1    3    3    0  503 -0.56854670510E+01 -0.34199078730E+02 -0.10469173906E+03  0.11038275114E+03  0.47000000000E+01 0.  1.
         11    1    4    4    0    0 -0.41060367281E+02  0.45725232437E+02 -0.18998742734E+03  0.19967967646E+03  0.00000000000E+00 0. -1.
        -12    1    4    4    0    0 -0.10394595830E+03  0.76431447556E+02 -0.15113030554E+03  0.19871310393E+03  0.00000000000E+00 0.  1.
</event>
<event>
12    1  0.1597826E-001  0.1909249E+03  0.7818608E-02  0.1158108E+00
         21   -1    0    0  501  502  0.00000000000E+00  0.00000000000E+00  0.82702918001E+02  0.82702918001E+02  0.00000000000E+00 0.  1.
         21   -1    0    0  502  503 -0.00000000000E+00 -0.00000000000E+00 -0.96821432528E+03  0.96821432528E+03  0.00000000000E+00 0. -1.
         -6    2    1    2    0  503  0.67709921908E+02 -0.49357226823E+02 -0.83349255852E+03  0.85508019757E+03  0.17155620011E+03 0.  0.
        -24    2    3    3    0    0  0.59960934731E+02 -0.36268162368E+02 -0.83241549601E+03  0.83912336598E+03  0.79383701347E+02 0.  0.
          6    2    1    2  501    0 -0.67709921908E+02  0.49357226823E+02 -0.52018848761E+02  0.19583704572E+03  0.16919047989E+03 0.  0.
         24    2    5    5    0    0 -0.72986287114E+02  0.69550491411E+02 -0.87529704819E+02  0.15437961137E+03  0.77507072061E+02 0.  0.
          5    1    5    5  501    0  0.52763652062E+01 -0.20193264588E+02  0.35510856059E+02  0.41457434346E+02  0.47000000000E+01 0. -1.
        -11    1    6    6    0    0 -0.44481607702E+02  0.10900499710E+02 -0.71690071586E+00  0.45803365207E+02  0.00000000000E+00 0.  1.
         12    1    6    6    0    0 -0.28504679412E+02  0.58649991701E+02 -0.86812804103E+02  0.10857624616E+03  0.00000000000E+00 0. -1.
         -5    1    3    3    0  503  0.77489871770E+01 -0.13089064455E+02 -0.10770625097E+01  0.15956831585E+02  0.47000000000E+01 0.  1.
         11    1    4    4    0    0  0.28897849879E+02 -0.31044935594E+02 -0.74499167823E+03  0.74619801285E+03  0.00000000000E+00 0. -1.
        -12    1    4    4    0    0  0.31063084852E+02 -0.52232267738E+01 -0.87423817781E+02  0.92925353127E+02  0.00000000000E+00 0.  1.
</event>
<event>
12    1  0.1597826E-001  0.1966069E+03  0.7818608E-02  0.1152725E+00
         21   -1    0    0  501  502  0.00000000000E+00  0.00000000000E+00  0.24488390671E+04  0.24488390671E+04  0.00000000000E+00 0. -1.
         21   -1    0    0  502  503 -0.00000000000E+00 -0.00000000000E+00 -0.19565126138E+02  0.19565126138E+02  0.00000000000E+00 0.  1.
         -6    2    1    2    0  503 -0.23599640879E+02 -0.89966284785E+02  0.66863864243E+03  0.69682553622E+03  0.17273482084E+03 0.  0.
        -24    2    3    3    0    0  0.23602820969E+02 -0.39092362303E+01  0.45037544014E+03  0.45746220678E+03  0.76558854867E+02 0.  0.
          6    2    1    2  501    0  0.23599640879E+02  0.89966284785E+02  0.17606352986E+04  0.17715786570E+04  0.17321491886E+03 0.  0.
         24    2    5    5    0    0 -0.49272922894E+02  0.44545542880E+02  0.70000002118E+03  0.70746271601E+03  0.78047027929E+02 0.  0.
          5    1    5    5  501    0  0.72872563773E+02  0.45420741905E+02  0.10606352774E+04  0.10641159410E+04  0.47000000000E+01 0. -1.
        -13    1    6    6    0    0 -0.14738920942E+02  0.34050436584E+02  0.60003826976E+03  0.60118432548E+03  0.00000000000E+00 0.  1.
         14    1    6    6    0    0 -0.34534001953E+02  0.10495106296E+02  0.99961751419E+02  0.10627839053E+03  0.00000000000E+00 0. -1.
         -5    1    3    3    0  503 -0.47202461847E+02 -0.86057048555E+02  0.21826320229E+03  0.23936332945E+03  0.47000000000E+01 0.  1.
         11    1    4    4    0    0 -0.26183736832E+02 -0.86975323373E+01  0.21976546652E+03  0.22149062151E+03  0.00000000000E+00 0. -1.
        -12    1    4    4    0    0  0.49786557801E+02  0.47882961071E+01  0.23060997363E+03  0.23597158527E+03  0.00000000000E+00 0.  1.
</event>
<event>
12    1  0.1597826E-001  0.2172807E+03  0.7818608E-02  0.1136004E+00
         21   -1    0    0  501  502  0.00000000000E+00  0.00000000000E+00  0.39014736579E+03  0.39014736579E+03  0.00000000000E+00 0.  1.
         21   -1    0    0  502  503 -0.00000000000E+00 -0.00000000000E+00 -0.18107570356E+03  0.18107570356E+03  0.00000000000E+00 0.  1.
         -6    2    1    2    0  503 -0.11716983819E+02 -0.13192980152E+03 -0.60209400559E+02  0.22546855470E+03  0.17224441066E+03 0.  0.
        -24    2    3    3    0    0  0.39250462367E+02 -0.12540094922E+03 -0.10428315162E+02  0.15377090518E+03  0.79188033566E+02 0.  0.
          6    2    1    2  501    0  0.11716983819E+02  0.13192980152E+03  0.26928106279E+03  0.34575451465E+03  0.17172982673E+03 0.  0.
         24    2    5    5    0    0  0.62889652102E+02  0.13193913323E+03  0.18166674643E+03  0.24418187809E+03  0.72518546669E+02 0.  0.
          5    1    5    5  501    0 -0.51172668283E+02 -0.93317172260E-02  0.87614316360E+02  0.10157263656E+03  0.47000000000E+01 0. -1.
        -11    1    6    6    0    0  0.13624454981E+02  0.48228534902E+02  0.11757552805E+03  0.12781088431E+03  0.00000000000E+00 0.  1.
         12    1    6    6    0    0  0.49265197120E+02  0.83710598331E+02  0.64091218380E+02  0.11637099378E+03  0.00000000000E+00 0. -1.
         -5    1    3    3    0  503 -0.50967446186E+02 -0.65288522911E+01 -0.49781085397E+02  0.71697649517E+02  0.47000000000E+01 0.  1.
         13    1    4    4    0    0  0.38502293467E+02 -0.15475930638E+02  0.81376092732E+01  0.42286542966E+02  0.00000000000E+00 0. -1.
        -14    1    4    4    0    0  0.74816889985E+00 -0.10992501859E+03 -0.18565924435E+02  0.11148436221E+03  0.00000000000E+00 0.  1.
</event>
<event>
12    1  0.1597826E-001  0.2997127E+03  0.7818608E-02  0.1085441E+00
         21   -1    0    0  503  502  0.00000000000E+00  0.00000000000E+00  0.77251349016E+03  0.77251349016E+03  0.00000000000E+00 0.  1.
         21   -1    0    0  501  503 -0.00000000000E+00 -0.00000000000E+00 -0.16967665303E+03  0.16967665303E+03  0.00000000000E+00 0.  1.
          6    2    1    2  501    0 -0.12438945195E+02 -0.24525300867E+03  0.36552396440E+02  0.30148291277E+03  0.17103246297E+03 0.  0.
         24    2    3    3    0    0  0.34210175816E+02 -0.21393728918E+03  0.62997120858E+02  0.23920749043E+03  0.79448640084E+02 0.  0.
         -6    2    1    2    0  502  0.12438945195E+02  0.24525300867E+03  0.56628444069E+03  0.64070723042E+03  0.17182526509E+03 0.  0.
        -24    2    5    5    0    0  0.27658610242E+02  0.93698100729E+02  0.37458182896E+03  0.39581437697E+03  0.82541756891E+02 0.  0.
          5    1    3    3  501    0 -0.46649121011E+02 -0.31315719488E+02 -0.26444724419E+02  0.62275422341E+02  0.47000000000E+01 0. -1.
        -11    1    4    4    0    0 -0.48504144643E+01 -0.98772232174E+02 -0.65649904264E+01  0.99108927289E+02  0.00000000000E+00 0.  1.
         12    1    4    4    0    0  0.39060590280E+02 -0.11516505701E+03  0.69562111285E+02  0.14009856314E+03  0.00000000000E+00 0. -1.
         -5    1    5    5    0  502 -0.15219665046E+02  0.15155490794E+03  0.19170261174E+03  0.24489285345E+03  0.47000000000E+01 0.  1.
         11    1    6    6    0    0 -0.18172212362E+02  0.76297542727E+02  0.21421561240E+03  0.22812249543E+03  0.00000000000E+00 0. -1.
        -12    1    6    6    0    0  0.45830822604E+02  0.17400558002E+02  0.16036621656E+03  0.16769188154E+03  0.00000000000E+00 0.  1.
</event>
<event>
12    1  0.1597826E-001  0.1775017E+03  0.7818608E-02  0.1170421E+00
         21   -1    0    0  503  502  0.00000000000E+00  0.00000000000E+00  0.55526043735E+02  0.55526043735E+02  0.00000000000E+00 0.  1.
         21   -1    0    0  501  503 -0.00000000000E+00 -0.00000000000E+00 -0.86758214981E+03  0.86758214981E+03  0.00000000000E+00 0.  1.
          6    2    1    2  501    0  0.33184020816E+02  0.43543293274E+01 -0.67908383364E+03  0.70189863839E+03  0.17431783052E+03 0.  0.
         24    2    3    3    0    0  0.14185255053E+02  0.52239818695E+02 -0.59781880374E+03  0.60556552738E+03  0.79950395389E+02 0.  0.
         -6    2    1    2    0  502 -0.33184020816E+02 -0.43543293274E+01 -0.13297227243E+03  0.22120955515E+03  0.17358543324E+03 0.  0.
        -24    2    5    5    0    0  0.32159249974E+02  0.26976465084E+02 -0.36974853175E+02  0.10083947490E+03  0.83901805128E+02 0.  0.
          5    1    3    3  501    0  0.18998765762E+02 -0.47885489368E+02 -0.81265029898E+02  0.96333111010E+02  0.47000000000E+01 0. -1.
        -11    1    4    4    0    0  0.43828164781E+02  0.12068566387E+02 -0.23834454245E+03  0.24264105019E+03  0.00000000000E+00 0.  1.
         12    1    4    4    0    0 -0.29642909727E+02  0.40171252308E+02 -0.35947426130E+03  0.36292447719E+03  0.00000000000E+00 0. -1.
         -5    1    5    5    0  502 -0.65343270790E+02 -0.31330794411E+02 -0.95997419256E+02  0.12037008025E+03  0.47000000000E+01 0.  1.
         11    1    6    6    0    0  0.14853030434E+02 -0.30427751492E+02 -0.13493854338E+02  0.36449206834E+02  0.00000000000E+00 0. -1.
        -12    1    6    6    0    0  0.17306219540E+02  0.57404216575E+02 -0.23480998836E+02  0.64390268067E+02  0.00000000000E+00 0.  1.
</event>
<event>
12    1  0.1597826E-001  0.1793827E+03  0.7818608E-02  0.1168607E+00
         21   -1    0    0  503  502  0.00000000000E+00  0.00000000000E+00  0.42047108571E+03  0.42047108571E+03  0.00000000000E+00 0. -1.
         21   -1    0    0  501  503 -0.00000000000E+00 -0.00000000000E+00 -0.77493213296E+02  0.77493213296E+02  0.00000000000E+00 0.  1.
          6    2    1    2  501    0 -0.43507927174E+02 -0.14199530136E+02  0.20363071903E+03  0.27081725414E+03  0.17257447385E+03 0.  0.
         24    2    3    3    0    0 -0.64145235342E+02 -0.51001950349E+02  0.76499924894E+02  0.13678499892E+03  0.78371469713E+02 0.  0.
         -6    2    1    2    0  502  0.43507927174E+02  0.14199530136E+02  0.13934715338E+03  0.22714704486E+03  0.17344620045E+03 0.  0.
        -24    2    5    5    0    0 -0.22406920623E+02 -0.25070530855E+02  0.11952772681E+03  0.14776313893E+03  0.80102847283E+02 0.  0.
          5    1    3    3  501    0  0.20637308168E+02  0.36802420214E+02  0.12713079414E+03  0.13403225522E+03  0.47000000000E+01 0. -1.
        -11    1    4    4    0    0  0.19115443597E+01 -0.24065351943E+02 -0.87018109494E+01  0.25661579838E+02  0.00000000000E+00 0.  1.
         12    1    4    4    0    0 -0.66056779702E+02 -0.26936598406E+02  0.85201735844E+02  0.11112341908E+03  0.00000000000E+00 0. -1.
         -5    1    5    5    0  502  0.65914847797E+02  0.39270060991E+02  0.19819426574E+02  0.79383905926E+02  0.47000000000E+01 0.  1.
         13    1    6    6    0    0 -0.21679912492E+02 -0.25137012001E+02  0.13157299576E+03  0.13569576703E+03  0.00000000000E+00 0. -1.
        -14    1    6    6    0    0 -0.72700813114E+00  0.66481146259E-01 -0.12045268949E+02  0.12067371902E+02  0.00000000000E+00 0.  1.
</event>
<event>
12    1  0.1597826E-001  0.2151801E+03  0.7818608E-02  0.1137591E+00
         21   -1    0    0  503  502  0.00000000000E+00  0.00000000000E+00  0.22461461528E+04  0.22461461528E+04  0.00000000000E+00 0. -1.
         21   -1    0    0  501  503 -0.00000000000E+00 -0.00000000000E+00 -0.73529510235E+02  0.73529510235E+02  0.00000000000E+00 0. -1.
          6    2    1    2  501    0  0.94362749268E+02 -0.88878403105E+02  0.10233442051E+03  0.23827465359E+03  0.17175208276E+03 0.  0.
         24    2    3    3    0    0  0.30674123742E+02 -0.82607712527E+02  0.12262372358E+03  0.17097451688E+03  0.80192093147E+02 0.  0.
         -6    2    1    2    0  502 -0.94362749268E+02  0.88878403105E+02  0.20702822220E+04  0.20814010094E+04  0.17134171758E+03 0.  0.
        -24    2    5    5    0    0 -0.85514824262E+02  0.10840059672E+03  0.11658148001E+04  0.11766674525E+04  0.79741274953E+02 0.  0.
          5    1    3    3  501    0  0.63688625526E+02 -0.62706905778E+01 -0.20289303066E+02  0.67300136706E+02  0.47000000000E+01 0. -1.
        -13    1    4    4    0    0  0.24600200878E+02 -0.96177953769E+02  0.85620956327E+02  0.13109659354E+03  0.00000000000E+00 0.  1.
         14    1    4    4    0    0  0.60739228643E+01  0.13570241242E+02  0.37002767249E+02  0.39877923346E+02  0.00000000000E+00 0. -1.
         -5    1    5    5    0  502 -0.88479250060E+01 -0.19522193617E+02  0.90446742189E+03  0.90473355695E+03  0.47000000000E+01 0.  1.
         11    1    6    6    0    0 -0.42952225723E+02  0.12167958235E+00  0.29242369725E+03  0.29556137639E+03  0.00000000000E+00 0. -1.
        -12    1    6    6    0    0 -0.42562598540E+02  0.10827891714E+03  0.87339110289E+03  0.88110607608E+03  0.00000000000E+00 0.  1.
</event>
<event>
12    1  0.1597826E-001  0.2195132E+03  0.7818608E-02  0.1134361E+00
         21   -1    0    0  501  502  0.00000000000E+00  0.00000000000E+00  0.89359644644E+03  0.89359644644E+03  0.00000000000E+00 0. -1.
         21   -1    0    0  502  503 -0.00000000000E+00 -0.00000000000E+00 -0.60057748538E+02  0.60057748538E+02  0.00000000000E+00 0. -1.
         -6    2    1    2    0  503 -0.28616837762E+02  0.13305225262E+03  0.26200936409E+03  0.34141907612E+03  0.17145335616E+03 0.  0.
        -24    2    3    3    0    0 -0.81605089030E+02  0.11084658663E+03  0.17007889949E+03  0.23291033594E+03  0.79837561417E+02 0.  0.
          6    2    1    2  501    0  0.28616837762E+02 -0.13305225262E+03  0.57152933382E+03  0.61223511886E+03  0.17223308630E+03 0.  0.
         24    2    5    5    0    0  0.74514674253E+02 -0.76910815644E+02  0.25013104406E+03  0.28272423436E+03  0.76809786177E+02 0.  0.
          5    1    5    5  501    0 -0.45897836491E+02 -0.56141436980E+02  0.32139828976E+03  0.32951088450E+03  0.47000000000E+01 0. -1.
        -11    1    6    6    0    0  0.27340324864E+02  0.66419853401E+01  0.23644876834E+02  0.36751728305E+02  0.00000000000E+00 0.  1.
         12    1    6    6    0    0  0.47174349389E+02 -0.83552800984E+02  0.22648616722E+03  0.24597250606E+03  0.00000000000E+00 0. -1.
         -5    1    3    3    0  503  0.52988251268E+02  0.22205665992E+02  0.91930464598E+02  0.10850874018E+03  0.47000000000E+01 0.  1.
         11    1    4    4    0    0 -0.75952867938E+02  0.12295405476E+03  0.14637150254E+03  0.20569675371E+03  0.00000000000E+00 0. -1.
        -12    1    4    4    0    0 -0.56522210924E+01 -0.12107468130E+02  0.23707396952E+02  0.27213582235E+02  0.00000000000E+00 0.  1.
</event>
<event>
12    1  0.1597826E-001  0.1777225E+03  0.7818608E-02  0.1170051E+00
         21   -1    0    0  503  502  0.00000000000E+00  0.00000000000E+00  0.16044159486E+03  0.16044159486E+03  0.00000000000E+00 0. -1.
         21   -1    0    0  501  503 -0.00000000000E+00 -0.00000000000E+00 -0.50168013663E+03  0.50168013663E+03  0.00000000000E+00 0. -1.
          6    2    1    2  501    0  0.46341314174E+02 -0.59520056955E+00 -0.42870373737E+03  0.46404231935E+03  0.17146576349E+03 0.  0.
         24    2    3    3    0    0  0.29790388276E+02 -0.48167205124E+02 -0.11814030985E+03  0.14938574262E+03  0.71773396210E+02 0.  0.
         -6    2    1    2    0  502 -0.46341314174E+02  0.59520056955E+00  0.87465195605E+02  0.19807941214E+03  0.17157337033E+03 0.  0.
        -24    2    5    5    0    0 -0.87620779803E+02 -0.10273620266E+01  0.10320323458E+03  0.15362265942E+03  0.72598604207E+02 0.  0.
          5    1    3    3  501    0  0.16550925898E+02  0.47572004554E+02 -0.31056342752E+03  0.31465657673E+03  0.47000000000E+01 0. -1.
        -11    1    4    4    0    0 -0.18574102990E+02 -0.29370351243E+02 -0.72008694623E+02  0.79955405917E+02  0.00000000000E+00 0.  1.
         12    1    4    4    0    0  0.48364491266E+02 -0.18796853881E+02 -0.46131615225E+02  0.69430336701E+02  0.00000000000E+00 0. -1.
         -5    1    5    5    0  502  0.41279465629E+02  0.16225625961E+01 -0.15738038971E+02  0.44456752723E+02  0.47000000000E+01 0.  1.
         13    1    6    6    0    0 -0.15973471010E+02  0.22452448671E+02  0.61663992731E+02  0.67540448821E+02  0.00000000000E+00 0. -1.
        -14    1    6    6    0    0 -0.71647308793E+02 -0.23479810698E+02  0.41539241845E+02  0.86082210594E+02  0.00000000000E+00 0.  1.
</event>
<event>
12    1  0.1597826E-001  0.1841902E+03  0.7818608E-02  0.1164991E+00
         21   -1    0    0  501  502  0.00000000000E+00  0.00000000000E+00  0.14518249939E+04  0.14518249939E+04  0.00000000000E+00 0.  1.
         21   -1    0    0  502  503 -0.00000000000E+00 -0.00000000000E+00 -0.25689793761E+02  0.25689793761E+02  0.00000000000E+00 0.  1.
         -6    2    1    2    0  503  0.19627610319E+02 -0.63694581599E+02  0.95466418021E+03  0.97134193267E+03  0.16637070169E+03 0.  0.
        -24    2    3    3    0    0 -0.17667393923E+02 -0.96914386278E+02  0.73204839911E+03  0.74314388545E+03  0.81629901125E+02 0.  0.
          6    2    1    2  501    0 -0.19627610319E+02  0.63694581599E+02  0.47147101990E+03  0.50617285496E+03  0.17170845547E+03 0.  0.
         24    2    5    5    0    0  0.53815135183E+02  0.95810492094E+01  0.22795369917E+03  0.24608654861E+03  0.74885480319E+02 0.  0.
          5    1    5    5  501    0 -0.73442745502E+02  0.54113532389E+02  0.24351732073E+03  0.26008630635E+03  0.47000000000E+01 0. -1.
        -11    1    6    6    0    0  0.14653559464E+02 -0.35578841847E+01  0.68536557522E+00  0.15094869023E+02  0.00000000000E+00 0.  1.
         12    1    6    6    0    0  0.39161575719E+02  0.13138933394E+02  0.22726833359E+03  0.23099167958E+03  0.00000000000E+00 0. -1.
         -5    1    3    3    0  503  0.37295004242E+02  0.33219804679E+02  0.22261578110E+03  0.22819804723E+03  0.47000000000E+01 0.  1.
         13    1    4    4    0    0 -0.20650034336E+02  0.84715922195E+01  0.11325674130E+03  0.11543518199E+03  0.00000000000E+00 0. -1.
        -14    1    4    4    0    0  0.29826404134E+01 -0.10538597850E+03  0.61879165782E+03  0.62770870345E+03  0.00000000000E+00 0.  1.
</event>
<event>
12    1  0.1597826E-001  0.1979474E+03  0.7818608E-02  0.1151704E+00
         21   -1    0    0  503  502  0.00000000000E+00  0.00000000000E+00  0.35480099042E+03  0.35480099042E+03  0.00000000000E+00 0.  1.
         21   -1    0    0  501  503 -0.00000000000E+00 -0.00000000000E+00 -0.11972987145E+03  0.11972987145E+03  0.00000000000E+00 0.  1.
          6    2    1    2  501    0 -0.92896966942E+01 -0.96735788854E+02  0.49140374680E+02  0.20295508182E+03  0.17126551755E+03 0.  0.
         24    2    3    3    0    0 -0.18990271586E+02  0.91177814861E+01 -0.23473169720E+01  0.84751224442E+02  0.82057880751E+02 0.  0.
         -6    2    1    2    0  502  0.92896966942E+01  0.96735788854E+02  0.18593074429E+03  0.27157578006E+03  0.17245014158E+03 0.  0.
        -24    2    5    5    0    0  0.53401804886E+02  0.26872934240E+02  0.47684196513E+02  0.11045193168E+03  0.79699054288E+02 0.  0.
          5    1    3    3  501    0  0.97005748922E+01 -0.10585357034E+03  0.51487691652E+02  0.11820385738E+03  0.47000000000E+01 0. -1.
        -11    1    4    4    0    0 -0.35634456152E+02 -0.14376331178E+02  0.24346116238E+02  0.45488753987E+02  0.00000000000E+00 0.  1.
         12    1    4    4    0    0  0.16644184566E+02  0.23494112665E+02 -0.26693433210E+02  0.39262470456E+02  0.00000000000E+00 0. -1.
         -5    1    5    5    0  502 -0.44112108192E+02  0.69862854615E+02  0.13824654778E+03  0.16112384838E+03  0.47000000000E+01 0.  1.
         11    1    6    6    0    0  0.39173946521E+02  0.17229115857E+02  0.70144951707E+02  0.82169062117E+02  0.00000000000E+00 0. -1.
        -12    1    6    6    0    0  0.14227858366E+02  0.96438183825E+01 -0.22460755194E+02  0.28282869560E+02  0.00000000000E+00 0.  1.
</event>
<event>
12    1  0.1597826E-001  0.1819749E+03  0.7818608E-02  0.1166527E+00
         21   -1    0    0  501  502  0.00000000000E+00  0.00000000000E+00  0.99174626856E+03  0.99174626856E+03  0.00000000000E+00 0. -1.
         21   -1    0    0  502  503 -0.00000000000E+00 -0.00000000000E+00 -0.39260864280E+02  0.39260864280E+02  0.00000000000E+00 0.  1.
         -6    2    1    2    0  503  0.58924603072E+02 -0.18294836081E+02  0.26617513426E+03  0.32098133022E+03  0.16844287571E+03 0.  0.
        -24    2    3    3    0    0  0.54548062880E+02  0.41256286324E+02  0.22375661225E+03  0.24758574933E+03  0.80957454396E+02 0.  0.
          6    2    1    2  501    0 -0.58924603072E+02  0.18294836081E+02  0.68631027003E+03  0.71002580263E+03  0.17119592220E+03 0.  0.
         24    2    5    5    0    0 -0.99220990521E+02  0.36605585271E+02  0.57367384817E+03  0.58891372270E+03  0.80826449069E+02 0.  0.
          5    1    5    5  501    0  0.40296387449E+02 -0.18310749189E+02  0.11263642185E+03  0.12111207993E+03  0.47000000000E+01 0. -1.
        -11    1    6    6    0    0 -0.80797916206E+02  0.17081519325E+02  0.53782372008E+03  0.54412722359E+03  0.00000000000E+00 0.  1.
         12    1    6    6    0    0 -0.18423074316E+02  0.19524065946E+02  0.35850128090E+02  0.44786499109E+02  0.00000000000E+00 0. -1.
         -5    1    3    3    0  503  0.43765401924E+01 -0.59551122405E+02  0.42418522007E+02  0.73395580882E+02  0.47000000000E+01 0.  1.
         13    1    4    4    0    0 -0.10592433725E+02 -0.15031062751E+02  0.25448343809E+02  0.31396667057E+02  0.00000000000E+00 0. -1.
        -14    1    4    4    0    0  0.65140496604E+02  0.56287349075E+02  0.19830826844E+03  0.21618908228E+03  0.00000000000E+00 0.  1.
</event>
<event>
12    1  0.1597826E-001  0.1746026E+03  0.7818608E-02  0.1173155E+00
         21   -1    0    0  503  502  0.00000000000E+00  0.00000000000E+00  0.10707785708E+03  0.10707785708E+03  0.00000000000E+00 0.  1.
         21   -1    0    0  501  503 -0.00000000000E+00 -0.00000000000E+00 -0.41498540340E+03  0.41498540340E+03  0.00000000000E+00 0.  1.
          6    2    1    2  501    0 -0.25550340254E+02 -0.68317546933E+01 -0.30032388752E+03  0.34739101814E+03  0.17258791762E+03 0.  0.
         24    2    3    3    0    0 -0.81373555446E+02  0.16114683120E+02 -0.21390931771E+03  0.24188112174E+03  0.76602495474E+02 0.  0.
         -6    2    1    2    0  502  0.25550340254E+02  0.68317546933E+01 -0.75836588004E+01  0.17467224234E+03  0.17249170300E+03 0.  0.
        -24    2    5    5    0    0  0.38601892846E+02 -0.45650078217E+02  0.33603486132E+02  0.10653152971E+03  0.81521388414E+02 0.  0.
          5    1    3    3  501    0  0.55823215192E+02 -0.22946437814E+02 -0.86414569805E+02  0.10550989640E+03  0.47000000000E+01 0. -1.
        -11    1    4    4    0    0 -0.37800134799E+02  0.79901558043E+01 -0.18493305194E+03  0.18892571683E+03  0.00000000000E+00 0.  1.
         12    1    4    4    0    0 -0.43573420647E+02  0.81245273160E+01 -0.28976265771E+02  0.52955404909E+02  0.00000000000E+00 0. -1.
         -5    1    5    5    0  502 -0.13051552592E+02  0.52481832910E+02 -0.41187144932E+02  0.68140712635E+02  0.47000000000E+01 0.  1.
         11    1    6    6    0    0  0.12650220162E+02  0.23789361226E+02  0.98680194188E+01  0.28693894559E+02  0.00000000000E+00 0. -1.
        -12    1    6    6    0    0  0.25951672684E+02 -0.69439439443E+02  0.23735466713E+02  0.77837635148E+02  0.00000000000E+00 0.  1.
</event>
<event>
12    1  0.1597826E-001  0.1828003E+03  0.7818608E-02  0.1165177E+00
         21   -1    0    0  501  502  0.00000000000E+00  0.00000000000E+00  0.80850573057E+02  0.80850573057E+02  0.00000000000E+00 0. -1.
         21   -1    0    0  502  503 -0.00000000000E+00 -0.00000000000E+00 -0.71251994329E+03  0.71251994329E+03  0.00000000000E+00 0. -1.
         -6    2    1    2    0  503  0.51154052233E+01  0.62306291799E+02 -0.57324923379E+03  0.60168982920E+03  0.17177812769E+03 0.  0.
        -24    2    3    3    0    0 -0.38800057736E+02 -0.12833506231E+02 -0.37172902328E+03  0.38212880721E+03  0.78548171107E+02 0.  0.
          6    2    1    2  501    0 -0.51154052233E+01 -0.62306291799E+02 -0.58420136439E+02  0.19168068715E+03  0.17152356140E+03 0.  0.
         24    2    5    5    0    0  0.33280206303E+02  0.20882741815E+02 -0.15053543689E+02  0.90204632508E+02  0.79791011467E+02 0.  0.
          5    1    5    5  501    0 -0.38395611526E+02 -0.83189033614E+02 -0.43366592751E+02  0.10147605464E+03  0.47000000000E+01 0. -1.
        -13    1    6    6    0    0 -0.59083528305E+01  0.14628628735E+02  0.27696224403E+02  0.31874539338E+02  0.00000000000E+00 0.  1.
         14    1    6    6    0    0  0.39188559133E+02  0.62541130800E+01 -0.42749768091E+02  0.58330093170E+02  0.00000000000E+00 0. -1.
         -5    1    3    3    0  503  0.43915462959E+02  0.75139798030E+02 -0.20152021050E+03  0.21956102199E+03  0.47000000000E+01 0.  1.
         11    1    4    4    0    0 -0.48080065956E+02  0.19108918448E+02 -0.27541826961E+03  0.28023573423E+03  0.00000000000E+00 0. -1.
        -12    1    4    4    0    0  0.92800082207E+01 -0.31942424679E+02 -0.96310753676E+02  0.10189307298E+03  0.00000000000E+00 0.  1.
</event>
<event>
12    1  0.1597826E-001  0.2197967E+03  0.7818608E-02  0.1134338E+00
         21   -1    0    0  503  502  0.00000000000E+00  0.00000000000E+00  0.10424986205E+03  0.10424986205E+03  0.00000000000E+00 0. -1.
         21   -1    0    0  501  503 -0.00000000000E+00 -0.00000000000E+00 -0.11724813421E+04  0.11724813421E+04  0.00000000000E+00 0. -1.
          6    2    1    2  501    0  0.13207173257E+03  0.31291951395E+02 -0.10309647292E+04  0.10537975571E+04  0.17081829461E+03 0.  0.
         24    2    3    3    0    0  0.94009189423E+02  0.43028573917E+02 -0.38371226926E+03  0.40530365399E+03  0.79666558157E+02 0.  0.
         -6    2    1    2    0  502 -0.13207173257E+03 -0.31291951395E+02 -0.37266750822E+02  0.22293364701E+03  0.17288282588E+03 0.  0.
        -24    2    5    5    0    0 -0.19164860570E+02 -0.51928709665E+02 -0.49092159638E+02  0.10745305197E+03  0.77924549860E+02 0.  0.
          5    1    3    3  501    0  0.38062543148E+02 -0.11736622522E+02 -0.64725245994E+03  0.64849390313E+03  0.47000000000E+01 0. -1.
        -13    1    4    4    0    0  0.91416631510E+02  0.57472691262E+02 -0.36919140294E+03  0.38465881345E+03  0.00000000000E+00 0.  1.
         14    1    4    4    0    0  0.25925579128E+01 -0.14444117345E+02 -0.14520866319E+02  0.20644840543E+02  0.00000000000E+00 0. -1.
         -5    1    5    5    0  502 -0.11290687200E+03  0.20636758270E+02  0.11825408816E+02  0.11548059504E+03  0.47000000000E+01 0.  1.
         11    1    6    6    0    0 -0.36082537606E+02 -0.37306331105E+02  0.17292137180E+01  0.51929779902E+02  0.00000000000E+00 0. -1.
        -12    1    6    6    0    0  0.16917677035E+02 -0.14622378561E+02 -0.50821373356E+02  0.55523272065E+02  0.00000000000E+00 0.  1.
</event>
<event>
12    1  0.1597826E-001  0.1879283E+03  0.7818608E-02  0.1160381E+00
         21   -1    0    0  503  502  0.00000000000E+00  0.00000000000E+00  0.23465237859E+02  0.23465237859E+02  0.00000000000E+00 0.  1.
         21   -1    0    0  501  503 -0.00000000000E+00 -0.00000000000E+00 -0.16659412361E+04  0.16659412361E+04  0.00000000000E+00 0.  1.
          6    2    1    2  501    0  0.20526518187E+01  0.76834287362E+02 -0.10851071740E+04  0.11012604641E+04  0.17149142748E+03 0.  0.
         24    2    3    3    0    0 -0.24466521241E+02  0.73739300650E+02 -0.40045467217E+03  0.41607145098E+03  0.81947621897E+02 0.  0.
         -6    2    1    2    0  502 -0.20526518187E+01 -0.76834287362E+02 -0.55736882421E+03  0.58814600980E+03  0.17131258432E+03 0.  0.
        -24    2    5    5    0    0 -0.40133357049E+02  0.10381632038E+02 -0.33580961729E+03  0.34696697075E+03  0.76808300926E+02 0.  0.
          5    1    3    3  501    0  0.26519173060E+02  0.30949867117E+01 -0.68465250184E+03  0.68518901316E+03  0.47000000000E+01 0. -1.
        -13    1    4    4    0    0  0.83783872632E+01  0.47346683948E+02 -0.33359625498E+03  0.33704356868E+03  0.00000000000E+00 0.  1.
         14    1    4    4    0    0 -0.32844908504E+02  0.26392616702E+02 -0.66858417194E+02  0.79027882299E+02  0.00000000000E+00 0. -1.
         -5    1    5    5    0  502  0.38080705230E+02 -0.87215919400E+02 -0.22155920692E+03  0.24117903905E+03  0.47000000000E+01 0.  1.
         11    1    6    6    0    0  0.59535735388E+01  0.31154081014E+02 -0.19032605066E+03  0.19295084183E+03  0.00000000000E+00 0. -1.
        -12    1    6    6    0    0 -0.46086930587E+02 -0.20772448976E+02 -0.14548356663E+03  0.15401612892E+03  0.00000000000E+00 0.  1.
</event>
<event>
12    1  0.1597826E-001  0.1758044E+03  0.7818608E-02  0.1172012E+00
         21   -1    0    0  503  502  0.00000000000E+00  0.00000000000E+00  0.18088115966E+03  0.18088115966E+03  0.00000000000E+00 0.  1.
         21   -1    0    0  501  503 -0.00000000000E+00 -0.00000000000E+00 -0.19330823823E+03  0.19330823823E+03  0.00000000000E+00 0. -1.
          6    2    1    2  501    0  0.83768626198E+01  0.35642794622E+02  0.58002852801E+02  0.18480209243E+03  0.17160099591E+03 0.  0.
         24    2    3    3    0    0 -0.40405385156E+02  0.23100004788E+02 -0.10970058941E+02  0.99266241299E+02  0.86989879283E+02 0.  0.
         -6    2    1    2    0  502 -0.83768626198E+01 -0.35642794622E+02 -0.70429931373E+02  0.18938730547E+03  0.17194939838E+03 0.  0.
        -24    2    5    5    0    0 -0.31482398417E+02 -0.79571045413E+02 -0.19879269437E+02  0.11838718980E+03  0.79357726013E+02 0.  0.
          5    1    3    3  501    0  0.48782247775E+02  0.12542789834E+02  0.68972911742E+02  0.85535851133E+02  0.47000000000E+01 0. -1.
        -13    1    4    4    0    0  0.18366433002E+02  0.20818515971E+02  0.18618125250E+02  0.33427100626E+02  0.00000000000E+00 0.  1.
         14    1    4    4    0    0 -0.58771818158E+02  0.22814888176E+01 -0.29588184191E+02  0.65839140673E+02  0.00000000000E+00 0. -1.
         -5    1    5    5    0  502  0.23105535797E+02  0.43928250790E+02 -0.50550661936E+02  0.71000115663E+02  0.47000000000E+01 0.  1.
         13    1    6    6    0    0 -0.22809842727E+02  0.89090017897E+01 -0.16288882207E+02  0.29410660001E+02  0.00000000000E+00 0. -1.
        -14    1    6    6    0    0 -0.86725556896E+01 -0.88480047203E+02 -0.35903872298E+01  0.88976529802E+02  0.00000000000E+00 0.  1.
</event>
<event>
12    1  0.1597826E-001  0.2488580E+03  0.7818608E-02  0.1114034E+00
         21   -1    0    0  501  502  0.00000000000E+00  0.00000000000E+00  0.60580859190E+03  0.60580859190E+03  0.00000000000E+00 0. -1.
         21   -1    0    0  502  503 -0.00000000000E+00 -0.00000000000E+00 -0.11440850647E+03  0.11440850647E+03  0.00000000000E+00 0. -1.
         -6    2    1    2    0  503  0.17880516060E+03 -0.26214178478E+02  0.12814155541E+03  0.27991170404E+03  0.17109013773E+03 0.  0.
        -24    2    3    3    0    0  0.19647601211E+03 -0.43586970981E+02  0.91092511413E+02  0.23509212603E+03  0.80422725085E+02 0.  0.
          6    2    1    2  501    0 -0.17880516060E+03  0.26214178478E+02  0.36325853003E+03  0.44030539432E+03  0.17103687328E+03 0.  0.
         24    2    5    5    0    0 -0.65776778771E+02  0.12584519142E+02  0.27849889204E+03  0.29829318025E+03  0.83260037066E+02 0.  0.
          5    1    5    5  501    0 -0.11302838183E+03  0.13629659335E+02  0.84759637989E+02  0.14201221407E+03  0.47000000000E+01 0. -1.
        -11    1    6    6    0    0  0.12502016549E+02  0.10917253278E+02  0.11868777752E+02  0.20404772046E+02  0.00000000000E+00 0.  1.
         12    1    6    6    0    0 -0.78278795319E+02  0.16672658640E+01  0.26663011429E+03  0.27788840821E+03  0.00000000000E+00 0. -1.
         -5    1    3    3    0  503 -0.17670851511E+02  0.17372792504E+02  0.37049043997E+02  0.44819578017E+02  0.47000000000E+01 0.  1.
         11    1    4    4    0    0  0.49754199185E+02 -0.13489224698E+02  0.65161264589E+02  0.83086881770E+02  0.00000000000E+00 0. -1.
        -12    1    4    4    0    0  0.14672181293E+03 -0.30097746283E+02  0.25931246824E+02  0.15200524426E+03  0.00000000000E+00 0.  1.
</event>
<event>
12    1  0.1597826E-001  0.2115475E+03  0.7818608E-02  0.1140373E+00
         21   -1    0    0  503  502  0.00000000000E+00  0.00000000000E+00  0.16209868855E+03  0.16209868855E+03  0.00000000000E+00 0. -1.
         21   -1    0    0  501  503 -0.00000000000E+00 -0.00000000000E+00 -0.33137024204E+03  0.33137024204E+03  0.00000000000E+00 0. -1.
          6    2    1    2  501    0  0.98063819620E+02 -0.74994884742E+02 -0.18560641212E+03  0.28142864311E+03  0.17178939282E+03 0.  0.
         24    2    3    3    0    0  0.83996564448E+02 -0.10284791313E+03 -0.19409745186E+03  0.24875041466E+03  0.81054499566E+02 0.  0.
         -6    2    1    2    0  502 -0.98063819620E+02  0.74994884742E+02  0.16334858629E+02  0.21204028748E+03  0.17162025070E+03 0.  0.
        -24    2    5    5    0    0 -0.11750702406E+03  0.19650053863E+02  0.43708293806E+02  0.14713663999E+03  0.74463081857E+02 0.  0.
          5    1    3    3  501    0  0.14067255173E+02  0.27853028393E+02  0.84910397369E+01  0.32678228449E+02  0.47000000000E+01 0. -1.
        -13    1    4    4    0    0 -0.40257616937E+01 -0.48215177616E+02 -0.88239958765E+02  0.10063399243E+03  0.00000000000E+00 0.  1.
         14    1    4    4    0    0  0.88022326141E+02 -0.54632735519E+02 -0.10585749309E+03  0.14811642223E+03  0.00000000000E+00 0. -1.
         -5    1    5    5    0  502  0.19443204442E+02  0.55344830879E+02 -0.27373435177E+02  0.64903647488E+02  0.47000000000E+01 0.  1.
         11    1    6    6    0    0 -0.88136223748E+02  0.47350912787E+02  0.29011917970E+02  0.10417194566E+03  0.00000000000E+00 0. -1.
        -12    1    6    6    0    0 -0.29370800314E+02 -0.27700858924E+02  0.14696375836E+02  0.42964694330E+02  0.00000000000E+00 0.  1.
</event>
<event>
12    1  0.1597826E-001  0.1909357E+03  0.7818608E-02  0.1158097E+00
         21   -1    0    0  501  502  0.00000000000E+00  0.00000000000E+00  0.25890561787E+03  0.25890561787E+03  0.00000000000E+00 0. -1.
         21   -1    0    0  502  503 -0.00000000000E+00 -0.00000000000E+00 -0.14799590147E+03  0.14799590147E+03  0.00000000000E+00 0. -1.
         -6    2    1    2    0  503 -0.70826579534E+02 -0.41973306757E+02  0.57137515468E+01  0.18890463003E+03  0.16992395193E+03 0.  0.
        -24    2    3    3    0    0 -0.32344694418E+02 -0.75589588739E+02  0.41124515022E+02  0.12655944524E+03  0.86983344729E+02 0.  0.
          6    2    1    2  501    0  0.70826579534E+02  0.41973306757E+02  0.10519596485E+03  0.21799688931E+03  0.17227388044E+03 0.  0.
         24    2    5    5    0    0  0.40972898388E+02  0.92407361157E+02  0.89159782677E+02  0.15705359387E+03  0.80613061606E+02 0.  0.
          5    1    5    5  501    0  0.29853681146E+02 -0.50434054400E+02  0.16036182172E+02  0.60943295446E+02  0.47000000000E+01 0. -1.
        -13    1    6    6    0    0 -0.49182872384E+01  0.25577264536E+02 -0.10933679006E+02  0.28247678615E+02  0.00000000000E+00 0.  1.
         14    1    6    6    0    0  0.45891185626E+02  0.66830096621E+02  0.10009346168E+03  0.12880591525E+03  0.00000000000E+00 0. -1.
         -5    1    3    3    0  503 -0.38481885116E+02  0.33616281982E+02 -0.35410763475E+02  0.62345184788E+02  0.47000000000E+01 0.  1.
         11    1    4    4    0    0 -0.19749603318E+02  0.11695264596E+02 -0.95363572758E+01  0.24854942271E+02  0.00000000000E+00 0. -1.
        -12    1    4    4    0    0 -0.12595091099E+02 -0.87284853336E+02  0.50660872298E+02  0.10170450297E+03  0.00000000000E+00 0.  1.
</event>
<event>
12    1  0.1597826E-001  0.1828479E+03  0.7818608E-02  0.1165190E+00
         21   -1    0    0  503  502  0.00000000000E+00  0.00000000000E+00  0.91422821570E+03  0.91422821570E+03  0.00000000000E+00 0.  1.
         21   -1    0    0  501  503 -0.00000000000E+00 -0.00000000000E+00 -0.61363234180E+02  0.61363234180E+02  0.00000000000E+00 0. -1.
          6    2    1    2  501    0 -0.60498420842E+02  0.13998741720E+02  0.11610141951E+03  0.21659384135E+03  0.17198060589E+03 0.  0.
         24    2    3    3    0    0  0.27727068615E+02 -0.21614451760E+02  0.54341310102E+02  0.10306658623E+03  0.80210774558E+02 0.  0.
         -6    2    1    2    0  502  0.60498420842E+02 -0.13998741720E+02  0.73676356201E+03  0.75899760853E+03  0.17146661412E+03 0.  0.
        -24    2    5    5    0    0  0.86418562117E+02  0.17888532024E+02  0.34076389547E+03  0.36084377162E+03  0.79372713213E+02 0.  0.
          5    1    3    3  501    0 -0.88225489458E+02  0.35613193480E+02  0.61760109411E+02  0.11352725512E+03  0.47000000000E+01 0. -1.
        -11    1    4    4    0    0  0.12848469649E+02  0.29663663054E+02  0.31020360287E+02  0.44802665438E+02  0.00000000000E+00 0.  1.
         12    1    4    4    0    0  0.14878598967E+02 -0.51278114814E+02  0.23320949816E+02  0.58263920795E+02  0.00000000000E+00 0. -1.
         -5    1    5    5    0  502 -0.25920141275E+02 -0.31887273744E+02  0.39599966654E+03  0.39815383692E+03  0.47000000000E+01 0.  1.
         13    1    6    6    0    0  0.30043982938E+02  0.12551769373E+02  0.27846820944E+02  0.42844290890E+02  0.00000000000E+00 0. -1.
        -14    1    6    6    0    0  0.56374579180E+02  0.53367626506E+01  0.31291707453E+03  0.31799948073E+03  0.00000000000E+00 0.  1.
</event>
<event>
12    1  0.1597826E-001  0.1855046E+03  0.7818608E-02  0.1162879E+00
         21   -1    0    0  501  502  0.00000000000E+00  0.00000000000E+00  0.14618551486E+04  0.14618551486E+04  0.00000000000E+00 0. -1.
         21   -1    0    0  502  503 -0.00000000000E+00 -0.00000000000E+00 -0.95496398038E+02  0.95496398038E+02  0.00000000000E+00 0. -1.
         -6    2    1    2    0  503  0.60696335297E+02  0.27138012707E+02  0.70737418844E+01  0.18563945102E+03  0.17318040045E+03 0.  0.
        -24    2    3    3    0    0  0.61032938225E+02  0.81649550946E+02  0.25793306754E+02  0.12781097005E+03  0.72654529616E+02 0.  0.
          6    2    1    2  501    0 -0.60696335297E+02 -0.27138012707E+02  0.13592850087E+04  0.13717120957E+04  0.17180751319E+03 0.  0.
         24    2    5    5    0    0 -0.98266882498E+02 -0.70600122395E+01  0.11997533682E+04  0.12065240015E+04  0.81152928186E+02 0.  0.
          5    1    5    5  501    0  0.37570547200E+02 -0.20078000467E+02  0.15953164050E+03  0.16518809413E+03  0.47000000000E+01 0. -1.
        -13    1    6    6    0    0 -0.32994023760E+02  0.25462979549E+02  0.21049478288E+03  0.21458103958E+03  0.00000000000E+00 0.  1.
         14    1    6    6    0    0 -0.65272858738E+02 -0.32522991789E+02  0.98925858534E+03  0.99194296194E+03  0.00000000000E+00 0. -1.
         -5    1    3    3    0  503 -0.33660292708E+00 -0.54511538239E+02 -0.18719564870E+02  0.57828480973E+02  0.47000000000E+01 0.  1.
         13    1    4    4    0    0  0.51759927370E+02  0.11953461497E+02  0.21694246044E+02  0.57381317818E+02  0.00000000000E+00 0. -1.
        -14    1    4    4    0    0  0.92730108547E+01  0.69696089449E+02  0.40990607102E+01  0.70429652232E+02  0.00000000000E+00 0.  1.
</event>
<event>
12    1  0.1597826E-001  0.1860637E+03  0.7818608E-02  0.1163162E+00
         21   -1    0    0  503  502  0.00000000000E+00  0.00000000000E+00  0.42021045598E+03  0.42021045598E+03  0.00000000000E+00 0. -1.
         21   -1    0    0  501  503 -0.00000000000E+00 -0.00000000000E+00 -0.10945223353E+03  0.10945223353E+03  0.00000000000E+00 0. -1.
          6    2    1    2  501    0 -0.27601978613E+02 -0.52445656291E+02  0.20221209224E+02  0.18715932090E+03  0.17637261128E+03 0.  0.
         24    2    3    3    0    0 -0.79339597758E+02 -0.62826731255E+02  0.31081377128E+02  0.13307992372E+03  0.80636493982E+02 0.  0.
         -6    2    1    2    0  502  0.27601978613E+02  0.52445656291E+02  0.29053701323E+03  0.34250336860E+03  0.17141874274E+03 0.  0.
        -24    2    5    5    0    0 -0.23737940678E+02  0.47454910829E+02  0.82573672770E+02  0.12818693006E+03  0.82450101364E+02 0.  0.
          5    1    3    3  501    0  0.51737619145E+02  0.10381074964E+02 -0.10860167904E+02  0.54079397178E+02  0.47000000000E+01 0. -1.
        -13    1    4    4    0    0  0.52002573652E+01  0.13373908125E+02 -0.21607002995E+01  0.14511124043E+02  0.00000000000E+00 0.  1.
         14    1    4    4    0    0 -0.84539855123E+02 -0.76200639380E+02  0.33242077427E+02  0.11856879968E+03  0.00000000000E+00 0. -1.
         -5    1    5    5    0  502  0.51339919291E+02  0.49907454619E+01  0.20796334046E+03  0.21431643854E+03  0.47000000000E+01 0.  1.
         11    1    6    6    0    0  0.67005706196E+01 -0.13795275351E+02  0.50247648473E+02  0.52536020459E+02  0.00000000000E+00 0. -1.
        -12    1    6    6    0    0 -0.30438511298E+02  0.61250186180E+02  0.32326024298E+02  0.75650909605E+02  0.00000000000E+00 0.  1.
</event>
<event>
12    1  0.1597826E-001  0.2134122E+03  0.7818608E-02  0.1139374E+00
         21   -1    0    0  501  502  0.00000000000E+00  0.00000000000E+00  0.63510248334E+02  0.63510248334E+02  0.00000000000E+00 0.  1.
         21   -1    0    0  502  503 -0.00000000000E+00 -0.00000000000E+00 -0.74744629333E+03  0.74744629333E+03  0.00000000000E+00 0.  1.
         -6    2    1    2    0  503  0.11729867020E+03  0.36726796118E+02 -0.43598798045E+03  0.48541765883E+03  0.17446188357E+03 0.  0.
        -24    2    3    3    0    0  0.69523186538E+02  0.68745874751E+02 -0.39488868043E+03  0.41457303520E+03  0.79838980559E+02 0.  0.
          6    2    1    2  501    0 -0.11729867020E+03 -0.36726796118E+02 -0.24794806455E+03  0.32553888284E+03  0.17143361965E+03 0.  0.
         24    2    5    5    0    0 -0.71825081534E+02 -0.16628445517E+02 -0.46369888917E+02  0.11786692553E+03  0.79417239930E+02 0.  0.
          5    1    5    5  501    0 -0.45473588662E+02 -0.20098350602E+02 -0.20157817563E+03  0.20767195731E+03  0.47000000000E+01 0. -1.
        -11    1    6    6    0    0 -0.35108796718E+02  0.29884506910E+02 -0.67818496942E+01  0.46601554110E+02  0.00000000000E+00 0.  1.
         12    1    6    6    0    0 -0.36716284816E+02 -0.46512952426E+02 -0.39588039223E+02  0.71265371420E+02  0.00000000000E+00 0. -1.
         -5    1    3    3    0  503  0.47775483658E+02 -0.32019078633E+02 -0.41099300016E+02  0.70844623628E+02  0.47000000000E+01 0.  1.
         13    1    4    4    0    0 -0.73754079489E+01  0.44509159643E+02 -0.12468804820E+03  0.13259928845E+03  0.00000000000E+00 0. -1.
        -14    1    4    4    0    0  0.76898594487E+02  0.24236715108E+02 -0.27020063223E+03  0.28197374674E+03  0.00000000000E+00 0.  1.
</event>
<event>
12    1  0.1597826E-001  0.1943249E+03  0.7818608E-02  0.1154836E+00
         21   -1    0    0  501  502  0.00000000000E+00  0.00000000000E+00  0.86204968735E+02  0.86204968735E+02  0.00000000000E+00 0.  1.
         21   -1    0    0  502  503 -0.00000000000E+00 -0.00000000000E+00 -0.64127786797E+03  0.64127786797E+03  0.00000000000E+00 0. -1.
         -6    2    1    2    0  503  0.40078387561E+02 -0.81989034661E+02 -0.48391487018E+03  0.52147461678E+03  0.17156251168E+03 0.  0.
        -24    2    3    3    0    0 -0.16163808404E+02 -0.74762050180E+02 -0.17187457358E+03  0.20428910227E+03  0.79640036516E+02 0.  0.
          6    2    1    2  501    0 -0.40078387561E+02  0.81989034661E+02 -0.71158029060E+02  0.20600821993E+03  0.17043310307E+03 0.  0.
         24    2    5    5    0    0 -0.47232107542E+02  0.25779156225E+02  0.17770359567E+02  0.10045693169E+03  0.82948011234E+02 0.  0.
          5    1    5    5  501    0  0.71537199817E+01  0.56209878436E+02 -0.88928388628E+02  0.10555128823E+03  0.47000000000E+01 0. -1.
        -11    1    6    6    0    0 -0.24166329183E+02  0.55123322764E+02  0.18989768996E+02  0.63112625561E+02  0.00000000000E+00 0.  1.
         12    1    6    6    0    0 -0.23065778360E+02 -0.29344166539E+02 -0.12194094287E+01  0.37344306133E+02  0.00000000000E+00 0. -1.
         -5    1    3    3    0  503  0.56242195965E+02 -0.72269844810E+01 -0.31204029660E+03  0.31718551451E+03  0.47000000000E+01 0.  1.
         11    1    4    4    0    0 -0.14004237573E+02  0.90652004437E+01 -0.71867300577E+02  0.73778082255E+02  0.00000000000E+00 0. -1.
        -12    1    4    4    0    0 -0.21595708311E+01 -0.83827250624E+02 -0.10000727300E+03  0.13051102002E+03  0.00000000000E+00 0.  1.
</event>
<event>
12    1  0.1597826E-001  0.3337307E+03  0.7818608E-02  0.1069512E+00
         21   -1    0    0  503  502  0.00000000000E+00  0.00000000000E+00  0.18540779514E+03  0.18540779514E+03  0.00000000000E+00 0.  1.
         21   -1    0    0  501  503 -0.00000000000E+00 -0.00000000000E+00 -0.73702484417E+03  0.73702484417E+03  0.00000000000E+00 0. -1.
          6    2    1    2  501    0  0.26000958376E+03  0.12032168481E+03 -0.47428948455E+03  0.57986038783E+03  0.17089547314E+03 0.  0.
         24    2    3    3    0    0  0.94785817854E+02  0.10679246751E+03 -0.19243843309E+03  0.25283739514E+03  0.80654915959E+02 0.  0.
         -6    2    1    2    0  502 -0.26000958376E+03 -0.12032168481E+03 -0.77327564473E+02  0.34257225148E+03  0.17115461950E+03 0.  0.
        -24    2    5    5    0    0 -0.58041703481E+02 -0.65861074771E+02  0.36382789242E+01  0.11821864552E+03  0.79094187919E+02 0.  0.
          5    1    3    3  501    0  0.16522376590E+03  0.13529217304E+02 -0.28185105146E+03  0.32702299269E+03  0.47000000000E+01 0. -1.
        -13    1    4    4    0    0  0.10557268463E+03  0.10988050233E+03 -0.17437418227E+03  0.23157217444E+03  0.00000000000E+00 0.  1.
         14    1    4    4    0    0 -0.10786866774E+02 -0.30880348191E+01 -0.18064250819E+02  0.21265220702E+02  0.00000000000E+00 0. -1.
         -5    1    5    5    0  502 -0.20196788027E+03 -0.54460610044E+02 -0.80965843398E+02  0.22435360596E+03  0.47000000000E+01 0.  1.
         13    1    6    6    0    0 -0.28535293177E+02 -0.24714685064E+02  0.40669368701E+02  0.55489423903E+02  0.00000000000E+00 0. -1.
        -14    1    6    6    0    0 -0.29506410304E+02 -0.41146389707E+02 -0.37031089776E+02  0.62729221619E+02  0.00000000000E+00 0.  1.
</event>
<event>
12    1  0.1597826E-001  0.1873574E+03  0.7818608E-02  0.1162230E+00
         21   -1    0    0  501  502  0.00000000000E+00  0.00000000000E+00  0.50080723392E+02  0.50080723392E+02  0.00000000000E+00 0. -1.
         21   -1    0    0  502  503 -0.00000000000E+00 -0.00000000000E+00 -0.15810719405E+04  0.15810719405E+04  0.00000000000E+00 0. -1.
         -6    2    1    2    0  503 -0.16177259981E+02 -0.58111033631E+02 -0.13762115582E+04  0.13881310040E+04  0.17120407516E+03 0.  0.
        -24    2    3    3    0    0 -0.30031608098E+02  0.23613334372E+02 -0.92169393808E+03  0.92609294032E+03  0.81663526521E+02 0.  0.
          6    2    1    2  501    0  0.16177259981E+02  0.58111033631E+02 -0.15477965887E+03  0.24302165986E+03  0.17738147703E+03 0.  0.
         24    2    5    5    0    0 -0.21678644999E+02  0.93059987670E+02 -0.66964658867E+02  0.14109981159E+03  0.79339563512E+02 0.  0.
          5    1    5    5  501    0  0.37855904980E+02 -0.34948954039E+02 -0.87815000006E+02  0.10192184828E+03  0.47000000000E+01 0. -1.
        -11    1    6    6    0    0 -0.26454253630E+02  0.67896824441E+01 -0.43848394435E+02  0.51658581256E+02  0.00000000000E+00 0.  1.
         12    1    6    6    0    0  0.47756086317E+01  0.86270305226E+02 -0.23116264432E+02  0.89441230330E+02  0.00000000000E+00 0. -1.
         -5    1    3    3    0  503  0.13854348117E+02 -0.81724368003E+02 -0.45451762016E+03  0.46203806372E+03  0.47000000000E+01 0.  1.
         11    1    4    4    0    0 -0.27676788033E+02  0.35923811572E+02 -0.89919988213E+03  0.90034268635E+03  0.00000000000E+00 0. -1.
        -12    1    4    4    0    0 -0.23548200652E+01 -0.12310477200E+02 -0.22494055952E+02  0.25750253972E+02  0.00000000000E+00 0.  1.
</event>
<event>
12    1  0.1597826E-001  0.2388279E+03  0.7818608E-02  0.1120687E+00
         21   -1    0    0  503  502  0.00000000000E+00  0.00000000000E+00  0.60070743034E+03  0.60070743034E+03  0.00000000000E+00 0.  1.
         21   -1    0    0  501  503 -0.00000000000E+00 -0.00000000000E+00 -0.27417161234E+03  0.27417161234E+03  0.00000000000E+00 0. -1.
          6    2    1    2  501    0  0.15194406203E+03 -0.67124741126E+02 -0.19073913770E+03  0.30513160662E+03  0.17067849850E+03 0.  0.
         24    2    3    3    0    0  0.97375959449E+02  0.98225860866E+01 -0.31717022724E+02  0.12017568745E+03  0.62110109058E+02 0.  0.
         -6    2    1    2    0  502 -0.15194406203E+03  0.67124741126E+02  0.51727495570E+03  0.56974743606E+03  0.17159846225E+03 0.  0.
        -24    2    5    5    0    0 -0.57729720302E+02 -0.31542724581E+02  0.24909682029E+03  0.26882682645E+03  0.76752672012E+02 0.  0.
          5    1    3    3  501    0  0.54568102576E+02 -0.76947327213E+02 -0.15902211498E+03  0.18495591917E+03  0.47000000000E+01 0. -1.
        -13    1    4    4    0    0  0.41803159797E+02 -0.23644742783E+02 -0.14128788655E+00  0.48027054798E+02  0.00000000000E+00 0.  1.
         14    1    4    4    0    0  0.55572799653E+02  0.33467328870E+02 -0.31575734837E+02  0.72148632651E+02  0.00000000000E+00 0. -1.
         -5    1    5    5    0  502 -0.94214341723E+02  0.98667465707E+02  0.26817813541E+03  0.30092060961E+03  0.47000000000E+01 0.  1.
         11    1    6    6    0    0  0.10373698398E+02  0.12290490475E+02  0.76501150749E+02  0.78173498326E+02  0.00000000000E+00 0. -1.
        -12    1    6    6    0    0 -0.68103418700E+02 -0.43833215056E+02  0.17259566954E+03  0.19065332812E+03  0.00000000000E+00 0.  1.
</event>
<event>
12    1  0.1597826E-001  0.1851482E+03  0.7818608E-02  0.1162938E+00
         21   -1    0    0  501  502  0.00000000000E+00  0.00000000000E+00  0.10330693699E+02  0.10330693699E+02  0.00000000000E+00 0. -1.
         21   -1    0    0  502  503 -0.00000000000E+00 -0.00000000000E+00 -0.35435916185E+04  0.35435916185E+04  0.00000000000E+00 0. -1.
         -6    2    1    2    0  503  0.41956529341E+02 -0.57098252742E+02 -0.22162305453E+04  0.22239415365E+04  0.17093146902E+03 0.  0.
        -24    2    3    3    0    0  0.88009965845E+02 -0.17978701332E+02 -0.12201215442E+04  0.12259903902E+04  0.79289762950E+02 0.  0.
          6    2    1    2  501    0 -0.41956529341E+02  0.57098252742E+02 -0.13170303795E+04  0.13299807757E+04  0.17105344877E+03 0.  0.
         24    2    5    5    0    0 -0.17741654954E+02 -0.25828541093E+02 -0.89001970817E+03  0.89429348334E+03  0.81509959882E+02 0.  0.
          5    1    5    5  501    0 -0.24214874387E+02  0.82926793835E+02 -0.42701067133E+03  0.43568729234E+03  0.47000000000E+01 0. -1.
        -13    1    6    6    0    0 -0.49421966955E+01  0.21859814261E+02 -0.89890242614E+02  0.92641958663E+02  0.00000000000E+00 0.  1.
         14    1    6    6    0    0 -0.12799458258E+02 -0.47688355354E+02 -0.80012946555E+03  0.80165152468E+03  0.00000000000E+00 0. -1.
         -5    1    3    3    0  503 -0.46053436504E+02 -0.39119551409E+02 -0.99610900110E+03  0.99795114629E+03  0.47000000000E+01 0.  1.
         13    1    4    4    0    0  0.45534187752E+02  0.30629616543E+02 -0.51192635084E+03  0.51485932481E+03  0.00000000000E+00 0. -1.
        -14    1    4    4    0    0  0.42475778092E+02 -0.48608317875E+02 -0.70819519339E+03  0.71113106544E+03  0.00000000000E+00 0.  1.
</event>
<event>
12    1  0.1597826E-001  0.1881938E+03  0.7818608E-02  0.1160135E+00
         21   -1    0    0  501  502  0.00000000000E+00  0.00000000000E+00  0.28638165200E+03  0.28638165200E+03  0.00000000000E+00 0.  1.
         21   -1    0    0  502  503 -0.00000000000E+00 -0.00000000000E+00 -0.12614588935E+03  0.12614588935E+03  0.00000000000E+00 0.  1.
         -6    2    1    2    0  503  0.62905182732E+02  0.43941267344E+02  0.50610722779E+02  0.19473282141E+03  0.17167273949E+03 0.  0.
        -24    2    3    3    0    0 -0.12488183933E+02  0.13925869775E+02  0.77913297612E+02  0.10898549246E+03  0.73874698212E+02 0.  0.
          6    2    1    2  501    0 -0.62905182732E+02 -0.43941267344E+02  0.10962503987E+03  0.21779471995E+03  0.17184002351E+03 0.  0.
         24    2    5    5    0    0 -0.17683344284E+02  0.27676860596E+02  0.98764875885E+02  0.13227159977E+03  0.81624543614E+02 0.  0.
          5    1    5    5  501    0 -0.45221838448E+02 -0.71618127940E+02  0.10860163989E+02  0.85523120173E+02  0.47000000000E+01 0. -1.
        -13    1    6    6    0    0 -0.37122367817E+02  0.38250350685E+01  0.10456625896E+02  0.38756188032E+02  0.00000000000E+00 0.  1.
         14    1    6    6    0    0  0.19439023533E+02  0.23851825528E+02  0.88308249989E+02  0.93515411741E+02  0.00000000000E+00 0. -1.
         -5    1    3    3    0  503  0.75393366665E+02  0.30015397569E+02 -0.27302574833E+02  0.85747328943E+02  0.47000000000E+01 0.  1.
         13    1    4    4    0    0 -0.44257107981E+01 -0.18684075546E+02  0.72451324165E+02  0.74952491408E+02  0.00000000000E+00 0. -1.
        -14    1    4    4    0    0 -0.80624731345E+01  0.32609945322E+02  0.54619734472E+01  0.34033001056E+02  0.00000000000E+00 0.  1.
</event>
<event>
12    1  0.1597826E-001  0.1891321E+03  0.7818608E-02  0.1159356E+00
         21   -1    0    0  503  502  0.00000000000E+00  0.00000000000E+00  0.74803023648E+03  0.74803023648E+03  0.00000000000E+00 0.  1.
         21   -1    0    0  501  503 -0.00000000000E+00 -0.00000000000E+00 -0.65243902268E+02  0.65243902268E+02  0.00000000000E+00 0.  1.
          6    2    1    2  501    0 -0.26792082398E+02  0.73720717886E+02  0.13083787819E+03  0.22997718620E+03  0.17209995897E+03 0.  0.
         24    2    3    3    0    0 -0.81106533919E+02  0.61052352945E+02  0.66758986679E+02  0.14489639253E+03  0.78946454134E+02 0.  0.
         -6    2    1    2    0  502  0.26792082398E+02 -0.73720717886E+02  0.55194845602E+03  0.58329695255E+03  0.17156828619E+03 0.  0.
        -24    2    5    5    0    0  0.18830464691E+02  0.15733018896E+02  0.15286364819E+03  0.17420511418E+03  0.79862460417E+02 0.  0.
          5    1    3    3  501    0  0.54314451521E+02  0.12668364940E+02  0.64078891511E+02  0.85080793671E+02  0.47000000000E+01 0. -1.
        -11    1    4    4    0    0 -0.77306533378E+02  0.43857565854E+02  0.82506279791E+02  0.12127271907E+03  0.00000000000E+00 0.  1.
         12    1    4    4    0    0 -0.38000005413E+01  0.17194787092E+02 -0.15747293112E+02  0.23623673457E+02  0.00000000000E+00 0. -1.
         -5    1    5    5    0  502  0.79616177070E+01 -0.89453736782E+02  0.39908480783E+03  0.40909183837E+03  0.47000000000E+01 0.  1.
         11    1    6    6    0    0  0.31285318124E+02 -0.17523595904E+02  0.31423098952E+02  0.47678702701E+02  0.00000000000E+00 0. -1.
        -12    1    6    6    0    0 -0.12454853433E+02  0.33256614800E+02  0.12144054924E+03  0.12652641148E+03  0.00000000000E+00 0.  1.
</event>
<event>
12    1  0.1597826E-001  0.1951006E+03  0.7818608E-02  0.1154122E+00
         21   -1    0    0  503  502  0.00000000000E+00  0.00000000000E+00  0.10862620722E+04  0.10862620722E+04  0.00000000000E+00 0. -1.
         21   -1    0    0  501  503 -0.00000000000E+00 -0.00000000000E+00 -0.95274167337E+02  0.95274167337E+02  0.00000000000E+00 0. -1.
          6    2    1    2  501    0  0.79906641915E+02  0.43754478465E+02  0.25573042559E+02  0.19676949993E+03  0.17252457734E+03 0.  0.
         24    2    3    3    0    0  0.39693516312E+02  0.93729756212E+02  0.26529508517E+02  0.13244509800E+03  0.80480101419E+02 0.  0.
         -6    2    1    2    0  502 -0.79906641915E+02 -0.43754478465E+02  0.96541486227E+03  0.98476673957E+03  0.17158131971E+03 0.  0.
        -24    2    5    5    0    0 -0.10697568444E+03 -0.73441348888E+02  0.79907918135E+03  0.81358352753E+03  0.80951772152E+02 0.  0.
          5    1    3    3  501    0  0.40213125603E+02 -0.49975277747E+02 -0.95646595823E+00  0.64324401931E+02  0.47000000000E+01 0. -1.
        -11    1    4    4    0    0  0.37747845756E+01 -0.12560009769E+01  0.30557149356E+02  0.30815027402E+02  0.00000000000E+00 0.  1.
         12    1    4    4    0    0  0.35918731736E+02  0.94985757189E+02 -0.40276408385E+01  0.10163007059E+03  0.00000000000E+00 0. -1.
         -5    1    5    5    0  502  0.27069042523E+02  0.29686870423E+02  0.16633568092E+03  0.17118321204E+03  0.47000000000E+01 0.  1.
         13    1    6    6    0    0 -0.16153253062E+02 -0.87801929552E+01  0.36343052861E+03  0.36389527134E+03  0.00000000000E+00 0. -1.
        -14    1    6    6    0    0 -0.90822431377E+02 -0.64661155933E+02  0.43564865274E+03  0.44968825619E+03  0.00000000000E+00 0.  1.
</event>
<event>
12    1  0.1597826E-001  0.1947568E+03  0.7818608E-02  0.1154342E+00
         21   -1    0    0  503  502  0.00000000000E+00  0.00000000000E+00  0.30829992870E+03  0.30829992870E+03  0.00000000000E+00 0.  1.
         21   -1    0    0  501  503 -0.00000000000E+00 -0.00000000000E+00 -0.16488140183E+03  0.16488140183E+03  0.00000000000E+00 0.  1.
          6    2    1    2  501    0  0.91346281332E+02 -0.10929460263E+02 -0.47973346198E+02  0.20012260094E+03  0.17112573520E+03 0.  0.
         24    2    3    3    0    0  0.10330540581E+03  0.18915350730E+01 -0.87569865240E+02  0.15656375684E+03  0.78537531678E+02 0.  0.
         -6    2    1    2    0  502 -0.91346281332E+02  0.10929460263E+02  0.19139187307E+03  0.27305872959E+03  0.17165845308E+03 0.  0.
        -24    2    5    5    0    0 -0.11919313147E+03  0.31587647000E+02  0.18743412300E+03  0.23784564214E+03  0.78957057865E+02 0.  0.
          5    1    3    3  501    0 -0.11959124477E+02 -0.12820995336E+02  0.39596519042E+02  0.43558844107E+02  0.47000000000E+01 0. -1.
        -11    1    4    4    0    0  0.67404441298E+02 -0.25023530614E+02 -0.18571941890E+02  0.74259361812E+02  0.00000000000E+00 0.  1.
         12    1    4    4    0    0  0.35900964511E+02  0.26915065687E+02 -0.68997923350E+02  0.82304395024E+02  0.00000000000E+00 0. -1.
         -5    1    5    5    0  502  0.27846850140E+02 -0.20658186737E+02  0.39577500655E+01  0.35213087447E+02  0.47000000000E+01 0.  1.
         13    1    6    6    0    0 -0.48576814200E+02  0.42692412674E+02  0.45965431139E+02  0.79342106334E+02  0.00000000000E+00 0. -1.
        -14    1    6    6    0    0 -0.70616317273E+02 -0.11104765673E+02  0.14146869187E+03  0.15850353581E+03  0.00000000000E+00 0.  1.
</event>
<event>
12    1  0.1597826E-001  0.5363727E+03  0.7818608E-02  0.1004699E+00
         21   -1    0    0  503  502  0.00000000000E+00  0.00000000000E+00  0.25270682021E+04  0.25270682021E+04  0.00000000000E+00 0. -1.
         21   -1    0    0  501  503 -0.00000000000E+00 -0.00000000000E+00 -0.17630200827E+03  0.17630200827E+03  0.00000000000E+00 0.  1.
          6    2    1    2  501    0 -0.42334525477E+03  0.28055577980E+03  0.37085442911E+03  0.65209103649E+03  0.17250206364E+03 0.  0.
         24    2    3    3    0    0 -0.33775180174E+03  0.23483739497E+03  0.36353120377E+03  0.55466347600E+03  0.79194405376E+02 0.  0.
         -6    2    1    2    0  502  0.42334525477E+03 -0.28055577980E+03  0.19799117647E+04  0.20512791738E+04  0.17251928243E+03 0.  0.
        -24    2    5    5    0    0  0.22878457732E+03 -0.23207239598E+03  0.12652929422E+04  0.13090483154E+04  0.80257602724E+02 0.  0.
          5    1    3    3  501    0 -0.85593453028E+02  0.45718384837E+02  0.73232253437E+01  0.97427560489E+02  0.47000000000E+01 0. -1.
        -13    1    4    4    0    0 -0.82740920251E+02  0.50330712858E+02  0.44790081154E+02  0.10670235194E+03  0.00000000000E+00 0.  1.
         14    1    4    4    0    0 -0.25501088149E+03  0.18450668211E+03  0.31874112261E+03  0.44796112406E+03  0.00000000000E+00 0. -1.
         -5    1    5    5    0  502  0.19456067745E+03 -0.48483383827E+02  0.71461882250E+03  0.74223085842E+03  0.47000000000E+01 0.  1.
         11    1    6    6    0    0  0.14203994512E+03 -0.18235609987E+03  0.97482145755E+03  0.10018512700E+04  0.00000000000E+00 0. -1.
        -12    1    6    6    0    0  0.86744632200E+02 -0.49716296104E+02  0.29047148462E+03  0.30719704538E+03  0.00000000000E+00 0.  1.
</event>
<event>
12    1  0.1597826E-001  0.1841169E+03  0.7818608E-02  0.1164066E+00
         21   -1    0    0  503  502  0.00000000000E+00  0.00000000000E+00  0.17193773252E+02  0.17193773252E+02  0.00000000000E+00 0.  1.
         21   -1    0    0  501  503 -0.00000000000E+00 -0.00000000000E+00 -0.22970586411E+04  0.22970586411E+04  0.00000000000E+00 0.  1.
          6    2    1    2  501    0  0.64541599488E+02  0.80049002357E+01 -0.69654584015E+03  0.72026427695E+03  0.17139085371E+03 0.  0.
         24    2    3    3    0    0 -0.14821687345E+02 -0.28752282582E+02 -0.21856063120E+03  0.23432027631E+03  0.78044001762E+02 0.  0.
         -6    2    1    2    0  502 -0.64541599488E+02 -0.80049002357E+01 -0.15833190277E+04  0.15939881374E+04  0.17224790913E+03 0.  0.
        -24    2    5    5    0    0 -0.74054171023E+02  0.51019902097E+02 -0.91421688871E+03  0.92220381285E+03  0.81119061750E+02 0.  0.
          5    1    3    3  501    0  0.79363286834E+02  0.36757182818E+02 -0.47798520895E+03  0.48594400064E+03  0.47000000000E+01 0. -1.
        -13    1    4    4    0    0  0.28986934959E+02  0.40927170710E+01 -0.88062249607E+02  0.92800606341E+02  0.00000000000E+00 0.  1.
         14    1    4    4    0    0 -0.43808622305E+02 -0.32844999653E+02 -0.13049838159E+03  0.14151966997E+03  0.00000000000E+00 0. -1.
         -5    1    5    5    0  502  0.95125715350E+01 -0.59024802332E+02 -0.66910213901E+03  0.67178432457E+03  0.47000000000E+01 0.  1.
         11    1    6    6    0    0 -0.37985920432E+02  0.26156119592E+02 -0.77238019659E+03  0.77375593105E+03  0.00000000000E+00 0. -1.
        -12    1    6    6    0    0 -0.36068250591E+02  0.24863782505E+02 -0.14183669212E+03  0.14844788180E+03  0.00000000000E+00 0.  1.
</event>
<event>
12    1  0.1597826E-001  0.1809728E+03  0.7818608E-02  0.1167404E+00
         21   -1    0    0  501  502  0.00000000000E+00  0.00000000000E+00  0.50231423751E+02  0.50231423751E+02  0.00000000000E+00 0.  1.
         21   -1    0    0  502  503 -0.00000000000E+00 -0.00000000000E+00 -0.14855934312E+04  0.14855934312E+04  0.00000000000E+00 0.  1.
         -6    2    1    2    0  503  0.44261148078E+02 -0.14538261791E+02 -0.12937282581E+04  0.13060178058E+04  0.17256677782E+03 0.  0.
        -24    2    3    3    0    0  0.25021689123E+02 -0.16738733844E+02 -0.30495571003E+03  0.31704447916E+03  0.81320025513E+02 0.  0.
          6    2    1    2  501    0 -0.44261148078E+02  0.14538261791E+02 -0.14163374932E+03  0.22980704918E+03  0.17487352751E+03 0.  0.
         24    2    5    5    0    0 -0.70893089519E+02 -0.10233770227E+02 -0.15605084186E+03  0.19040074978E+03  0.82280131739E+02 0.  0.
          5    1    5    5  501    0  0.26631941441E+02  0.24772032018E+02  0.14417092539E+02  0.39406299401E+02  0.47000000000E+01 0. -1.
        -13    1    6    6    0    0 -0.46463416965E+02 -0.61978543893E+01 -0.15871940164E+03  0.16549655879E+03  0.00000000000E+00 0.  1.
         14    1    6    6    0    0 -0.24429672554E+02 -0.40359158378E+01  0.26685597801E+01  0.24904190993E+02  0.00000000000E+00 0. -1.
         -5    1    3    3    0  503  0.19239458955E+02  0.22004720526E+01 -0.98877254811E+03  0.98897332662E+03  0.47000000000E+01 0.  1.
         11    1    4    4    0    0 -0.14515222250E+02  0.14772865589E+02 -0.24557952332E+02  0.32125103228E+02  0.00000000000E+00 0. -1.
        -12    1    4    4    0    0  0.39536911373E+02 -0.31511599433E+02 -0.28039775770E+03  0.28491937593E+03  0.00000000000E+00 0.  1.
</event>
<event>
12    1  0.1597826E-001  0.2205128E+03  0.7818608E-02  0.1133563E+00
         21   -1    0    0  501  502  0.00000000000E+00  0.00000000000E+00  0.12033871487E+03  0.12033871487E+03  0.00000000000E+00 0.  1.
         21   -1    0    0  502  503 -0.00000000000E+00 -0.00000000000E+00 -0.54158493826E+03  0.54158493826E+03  0.00000000000E+00 0. -1.
         -6    2    1    2    0  503 -0.81970550032E+02 -0.11139785175E+03 -0.37787937366E+03  0.43751422460E+03  0.17174755672E+03 0.  0.
        -24    2    3    3    0    0  0.77494145703E+01 -0.10152143728E+03 -0.21283832559E+03  0.24934447900E+03  0.80658915891E+02 0.  0.
          6    2    1    2  501    0  0.81970550032E+02  0.11139785175E+03 -0.43366849721E+02  0.22440942853E+03  0.17131916271E+03 0.  0.
         24    2    5    5    0    0  0.26972623540E+02  0.15727218027E+02  0.31664442230E+02  0.90882551662E+02  0.79259910973E+02 0.  0.
          5    1    5    5  501    0  0.54997926492E+02  0.95670633720E+02 -0.75031291952E+02  0.13352687687E+03  0.47000000000E+01 0. -1.
        -11    1    6    6    0    0  0.77863925495E+01  0.31525940247E+02  0.50262925330E+02  0.59840408422E+02  0.00000000000E+00 0.  1.
         12    1    6    6    0    0  0.19186230990E+02 -0.15798722220E+02 -0.18598483099E+02  0.31042143241E+02  0.00000000000E+00 0. -1.
         -5    1    3    3    0  503 -0.89719964602E+02 -0.98764144685E+01 -0.16504104807E+03  0.18816974560E+03  0.47000000000E+01 0.  1.
         13    1    4    4    0    0  0.44202392228E+02 -0.49541023537E+02 -0.11047895313E+03  0.12889438924E+03  0.00000000000E+00 0. -1.
        -14    1    4    4    0    0 -0.36452977658E+02 -0.51980413742E+02 -0.10235937246E+03  0.12045008976E+03  0.00000000000E+00 0.  1.
</event>
<event>
12    1  0.1597826E-001  0.1947216E+03  0.7818608E-02  0.1154663E+00
         21   -1    0    0  501  502  0.00000000000E+00  0.00000000000E+00  0.90648294635E+02  0.90648294635E+02  0.00000000000E+00 0.  1.
         21   -1    0    0  502  503 -0.00000000000E+00 -0.00000000000E+00 -0.55928413848E+03  0.55928413848E+03  0.00000000000E+00 0.  1.
         -6    2    1    2    0  503  0.46411989522E+02 -0.74251577860E+02 -0.39888625201E+03  0.44309548149E+03  0.17191856819E+03 0.  0.
        -24    2    3    3    0    0  0.43022274755E+02 -0.22110901530E+02 -0.11042096506E+03  0.14989853051E+03  0.89089684198E+02 0.  0.
          6    2    1    2  501    0 -0.46411989522E+02  0.74251577860E+02 -0.69749591834E+02  0.20683695162E+03  0.17392282602E+03 0.  0.
         24    2    5    5    0    0 -0.10453339342E+02 -0.24704469545E+02 -0.89264253714E+01  0.85153462935E+02  0.80323396723E+02 0.  0.
          5    1    5    5  501    0 -0.35958650180E+02  0.98956047405E+02 -0.60823166463E+02  0.12168348869E+03  0.47000000000E+01 0. -1.
        -11    1    6    6    0    0 -0.43955313958E+02 -0.16006285078E+01 -0.42340343811E+01  0.44187766224E+02  0.00000000000E+00 0.  1.
         12    1    6    6    0    0  0.33501974616E+02 -0.23103841037E+02 -0.46923909903E+01  0.40965696711E+02  0.00000000000E+00 0. -1.
         -5    1    3    3    0  503  0.33897147667E+01 -0.52140676330E+02 -0.28846528694E+03  0.29319695098E+03  0.47000000000E+01 0.  1.
         11    1    4    4    0    0  0.15375913453E+02 -0.54819687124E+02 -0.75954313015E+02  0.94924572564E+02  0.00000000000E+00 0. -1.
        -12    1    4    4    0    0  0.27646361302E+02  0.32708785594E+02 -0.34466652050E+02  0.54973957942E+02  0.00000000000E+00 0.  1.
</event>
<event>
12    1  0.1597826E-001  0.1775769E+03  0.7818608E-02  0.1170743E+00
         21   -1    0    0  503  502  0.00000000000E+00  0.00000000000E+00  0.13733105003E+03  0.13733105003E+03  0.00000000000E+00 0.  1.
         21   -1    0    0  501  503 -0.00000000000E+00 -0.00000000000E+00 -0.38336459171E+03  0.38336459171E+03  0.00000000000E+00 0.  1.
          6    2    1    2  501    0  0.14054897937E+02  0.31325135573E+02 -0.28995906636E+03  0.34001443894E+03  0.17422615833E+03 0.  0.
         24    2    3    3    0    0 -0.13598532546E+02 -0.47128511782E+02 -0.14152229073E+03  0.16979324942E+03  0.79969819712E+02 0.  0.
         -6    2    1    2    0  502 -0.14054897937E+02 -0.31325135573E+02  0.43925524685E+02  0.18068120280E+03  0.17186460093E+03 0.  0.
        -24    2    5    5    0    0  0.29821640442E+02  0.36983034196E+02  0.26929130498E+02  0.97602179619E+02  0.80894575467E+02 0.  0.
          5    1    3    3  501    0  0.27653430483E+02  0.78453647355E+02 -0.14843677563E+03  0.17022118951E+03  0.47000000000E+01 0. -1.
        -13    1    4    4    0    0 -0.34031463166E+02 -0.12036135717E+01 -0.96430383557E+02  0.10226635832E+03  0.00000000000E+00 0.  1.
         14    1    4    4    0    0  0.20432930619E+02 -0.45924898211E+02 -0.45091907177E+02  0.67526891104E+02  0.00000000000E+00 0. -1.
         -5    1    5    5    0  502 -0.43876538379E+02 -0.68308169769E+02  0.16996394187E+02  0.83079023181E+02  0.47000000000E+01 0.  1.
         13    1    6    6    0    0 -0.18164473208E+02  0.27908678844E+02  0.34766235116E+02  0.48140768024E+02  0.00000000000E+00 0. -1.
        -14    1    6    6    0    0  0.47986113650E+02  0.90743553517E+01 -0.78371046181E+01  0.49461411596E+02  0.00000000000E+00 0.  1.
</event>
<event>
12    1  0.1597826E-001  0.2074389E+03  0.7818608E-02  0.1143753E+00
         21   -1    0    0  503  502  0.00000000000E+00  0.00000000000E+00  0.57480153864E+02  0.57480153864E+02  0.00000000000E+00 0. -1.
         21   -1    0    0  501  503 -0.00000000000E+00 -0.00000000000E+00 -0.76129835258E+03  0.76129835258E+03  0.00000000000E+00 0. -1.
          6    2    1    2  501    0  0.67524333531E+02  0.94330075899E+02 -0.40921932150E+03  0.45847390028E+03  0.17111448012E+03 0.  0.
         24    2    3    3    0    0 -0.21605859806E+02  0.29754638406E+02 -0.11521418059E+03  0.14450687753E+03  0.79093479880E+02 0.  0.
         -6    2    1    2    0  502 -0.67524333531E+02 -0.94330075899E+02 -0.29459887721E+03  0.36030460617E+03  0.17196863647E+03 0.  0.
        -24    2    5    5    0    0  0.30390723734E+02 -0.30671140475E+02 -0.15041422663E+03  0.17469447184E+03  0.77649236785E+02 0.  0.
          5    1    3    3  501    0  0.89130193337E+02  0.64575437494E+02 -0.29400514091E+03  0.31396702274E+03  0.47000000000E+01 0. -1.
        -13    1    4    4    0    0 -0.32695683676E+01 -0.27028245705E+02 -0.42071332673E+02  0.50112006307E+02  0.00000000000E+00 0.  1.
         14    1    4    4    0    0 -0.18336291439E+02  0.56782884111E+02 -0.73142847921E+02  0.94394871225E+02  0.00000000000E+00 0. -1.
         -5    1    5    5    0  502 -0.97915057265E+02 -0.63658935425E+02 -0.14418465058E+03  0.18561013432E+03  0.47000000000E+01 0.  1.
         11    1    6    6    0    0  0.10428994956E+02 -0.40203826002E+02 -0.27517928310E+02  0.49823166695E+02  0.00000000000E+00 0. -1.
        -12    1    6    6    0    0  0.19961728778E+02  0.95326855275E+01 -0.12289629832E+03  0.12487130515E+03  0.00000000000E+00 0.  1.
</event>
<event>
12    1  0.1597826E-001  0.3783664E+03  0.7818608E-02  0.1051670E+00
         21   -1    0    0  501  502  0.00000000000E+00  0.00000000000E+00  0.92800792916E+03  0.92800792916E+03  0.00000000000E+00 0.  1.
         21   -1    0    0  502  503 -0.00000000000E+00 -0.00000000000E+00 -0.24800704734E+03  0.24800704734E+03  0.00000000000E+00 0. -1.
         -6    2    1    2    0  503  0.50189781862E+02  0.33280436333E+03  0.70221620026E+03  0.79699694551E+03  0.16976095191E+03 0.  0.
        -24    2    3    3    0    0  0.27334588228E+02  0.26058225938E+03  0.39557979261E+03  0.48110714088E+03  0.79563905544E+02 0.  0.
          6    2    1    2  501    0 -0.50189781862E+02 -0.33280436333E+03 -0.22215318439E+02  0.37901803100E+03  0.17286812602E+03 0.  0.
         24    2    5    5    0    0  0.31207361559E+02 -0.16865086966E+03 -0.46177302348E+02  0.19417179459E+03  0.78443146989E+02 0.  0.
          5    1    5    5  501    0 -0.81397143421E+02 -0.16415349367E+03  0.23961983909E+02  0.18484623641E+03  0.47000000000E+01 0. -1.
        -11    1    6    6    0    0  0.41038247988E+02 -0.12192377049E+03 -0.13129418301E+01  0.12865172919E+03  0.00000000000E+00 0.  1.
         12    1    6    6    0    0 -0.98308864287E+01 -0.46727099169E+02 -0.44864360517E+02  0.65520065395E+02  0.00000000000E+00 0. -1.
         -5    1    3    3    0  503  0.22855193634E+02  0.72222103949E+02  0.30663640765E+03  0.31588980463E+03  0.47000000000E+01 0.  1.
         13    1    4    4    0    0 -0.21896653390E+02  0.30015820016E+02  0.68282895545E+02  0.77736521050E+02  0.00000000000E+00 0. -1.
        -14    1    4    4    0    0  0.49231241618E+02  0.23056643936E+03  0.32729689706E+03  0.40337061983E+03  0.00000000000E+00 0.  1.
</event>
<event>
12    1  0.1597826E-001  0.1842798E+03  0.7818608E-02  0.1164043E+00
         21   -1    0    0  501  502  0.00000000000E+00  0.00000000000E+00  0.17806270042E+03  0.17806270042E+03  0.00000000000E+00 0.  1.
         21   -1    0    0  502  503 -0.00000000000E+00 -0.00000000000E+00 -0.19873391609E+03  0.19873391609E+03  0.00000000000E+00 0.  1.
         -6    2    1    2    0  503 -0.30936859515E+02  0.53016561363E+02 -0.51385337167E+02  0.19130993522E+03  0.17375613193E+03 0.  0.
        -24    2    3    3    0    0  0.36084895368E+02  0.71726279545E+02 -0.43194913451E+02  0.12108784309E+03  0.79684919188E+02 0.  0.
          6    2    1    2  501    0  0.30936859515E+02 -0.53016561363E+02  0.30714121499E+02  0.18548668129E+03  0.17231978012E+03 0.  0.
         24    2    5    5    0    0  0.72606960145E+02 -0.63497352455E+02 -0.10490562540E+02  0.12576934498E+03  0.80026194490E+02 0.  0.
          5    1    5    5  501    0 -0.41670100630E+02  0.10480791092E+02  0.41204684040E+02  0.59717336304E+02  0.47000000000E+01 0. -1.
        -13    1    6    6    0    0  0.73886015150E+02 -0.22770134299E+02 -0.26872842555E+02  0.81852134473E+02  0.00000000000E+00 0.  1.
         14    1    6    6    0    0 -0.12790550055E+01 -0.40727218156E+02  0.16382280015E+02  0.43917210510E+02  0.00000000000E+00 0. -1.
         -5    1    3    3    0  503 -0.67021754883E+02 -0.18709718183E+02 -0.81904237159E+01  0.70222092127E+02  0.47000000000E+01 0.  1.
         11    1    4    4    0    0  0.15746269620E+01 -0.44445651285E+01 -0.36929771953E+02  0.37229580521E+02  0.00000000000E+00 0. -1.
        -12    1    4    4    0    0  0.34510268406E+02  0.76170844674E+02 -0.62651414975E+01  0.83858262573E+02  0.00000000000E+00 0.  1.
</event>
<event>
12    1  0.1597826E-001  0.3539097E+03  0.7818608E-02  0.1061134E+00
         21   -1    0    0  503  502  0.00000000000E+00  0.00000000000E+00  0.10412995471E+04  0.10412995471E+04  0.00000000000E+00 0. -1.
         21   -1    0    0  501  503 -0.00000000000E+00 -0.00000000000E+00 -0.14437899930E+03  0.14437899930E+03  0.00000000000E+00 0.  1.
          6    2    1    2  501    0  0.30471387868E+03 -0.50142156437E+02  0.20381778607E+03  0.40744751922E+03  0.17060775856E+03 0.  0.
         24    2    3    3    0    0  0.20807455112E+03 -0.99505484232E+02  0.13941626687E+03  0.28117185474E+03  0.80152081781E+02 0.  0.
         -6    2    1    2    0  502 -0.30471387868E+03  0.50142156437E+02  0.69310276171E+03  0.77823102716E+03  0.17287946562E+03 0.  0.
        -24    2    5    5    0    0 -0.30842251069E+03  0.30056920104E+02  0.57082356116E+03  0.65416868978E+03  0.77905540014E+02 0.  0.
          5    1    3    3  501    0  0.96639327561E+02  0.49363327796E+02  0.64401519197E+02  0.12627566447E+03  0.47000000000E+01 0. -1.
        -13    1    4    4    0    0  0.19956828644E+03 -0.92148498458E+02  0.10242204129E+03  0.24250592006E+03  0.00000000000E+00 0.  1.
         14    1    4    4    0    0  0.85062646794E+01 -0.73569857747E+01  0.36994225583E+02  0.38665934684E+02  0.00000000000E+00 0. -1.
         -5    1    5    5    0  502  0.37086320069E+01  0.20085236333E+02  0.12227920055E+03  0.12406233738E+03  0.47000000000E+01 0.  1.
         13    1    6    6    0    0 -0.34155107268E+02  0.46004407078E+00  0.12774223946E+03  0.13223033969E+03  0.00000000000E+00 0. -1.
        -14    1    6    6    0    0 -0.27426740342E+03  0.29596876033E+02  0.44308132170E+03  0.52193835009E+03  0.00000000000E+00 0.  1.
</event>
<event>
12    1  0.1597826E-001  0.2919219E+03  0.7818608E-02  0.1089796E+00
         21   -1    0    0  501  502  0.00000000000E+00  0.00000000000E+00  0.23426160392E+03  0.23426160392E+03  0.00000000000E+00 0. -1.
         21   -1    0    0  502  503 -0.00000000000E+00 -0.00000000000E+00 -0.37183167601E+03  0.37183167601E+03  0.00000000000E+00 0.  1.
         -6    2    1    2    0  503 -0.19605050777E+03  0.12325291377E+03 -0.12431910974E+03  0.31729111291E+03  0.17773949178E+03 0.  0.
        -24    2    3    3    0    0 -0.16351834145E+03  0.11667121071E+03 -0.15999790887E+03  0.26833473061E+03  0.77806024257E+02 0.  0.
          6    2    1    2  501    0  0.19605050777E+03 -0.12325291377E+03 -0.13250962356E+02  0.28880216702E+03  0.17205819168E+03 0.  0.
         24    2    5    5    0    0  0.15417499642E+03 -0.13823386861E+03 -0.53681069748E+02  0.22851393399E+03  0.80364350449E+02 0.  0.
          5    1    5    5  501    0  0.41875511343E+02  0.14980954843E+02  0.40430107392E+02  0.60288233031E+02  0.47000000000E+01 0. -1.
        -13    1    6    6    0    0  0.33992472550E+02  0.42286710531E+01  0.10134916135E+01  0.34269476421E+02  0.00000000000E+00 0.  1.
         14    1    6    6    0    0  0.12018252387E+03 -0.14246253966E+03 -0.54694561362E+02  0.19424445756E+03  0.00000000000E+00 0. -1.
         -5    1    3    3    0  503 -0.32532166318E+02  0.65817030584E+01  0.35678799132E+02  0.48956382301E+02  0.47000000000E+01 0.  1.
         11    1    4    4    0    0 -0.21397941181E+02  0.57711799316E+02 -0.45952240033E+02  0.76812316923E+02  0.00000000000E+00 0. -1.
        -12    1    4    4    0    0 -0.14212040027E+03  0.58959411393E+02 -0.11404566884E+03  0.19152241369E+03  0.00000000000E+00 0.  1.
</event>
<event>
12    1  0.1597826E-001  0.2381616E+03  0.7818608E-02  0.1121051E+00
         21   -1    0    0  501  502  0.00000000000E+00  0.00000000000E+00  0.35742752520E+03  0.35742752520E+03  0.00000000000E+00 0. -1.
         21   -1    0    0  502  503 -0.00000000000E+00 -0.00000000000E+00 -0.67863344106E+03  0.67863344106E+03  0.00000000000E+00 0.  1.
         -6    2    1    2    0  503 -0.12659361467E+03 -0.10568831575E+03 -0.61409775118E+03  0.65866305102E+03  0.17182841270E+03 0.  0.
        -24    2    3    3    0    0 -0.58745244365E+02 -0.12833849599E+03 -0.47873867074E+03  0.50549450765E+03  0.80076270656E+02 0.  0.
          6    2    1    2  501    0  0.12659361467E+03  0.10568831575E+03  0.29289183531E+03  0.37739791524E+03  0.17160301825E+03 0.  0.
         24    2    5    5    0    0  0.11477456938E+03  0.12015772019E+03  0.16478336100E+03  0.24784898746E+03  0.81636297238E+02 0.  0.
          5    1    5    5  501    0  0.11819045295E+02 -0.14469404446E+02  0.12810847432E+03  0.12954892778E+03  0.47000000000E+01 0. -1.
        -13    1    6    6    0    0  0.98343961294E+02  0.78295211089E+02  0.72306119111E+02  0.14501672201E+03  0.00000000000E+00 0.  1.
         14    1    6    6    0    0  0.16430608081E+02  0.41862509105E+02  0.92477241885E+02  0.10283226545E+03  0.00000000000E+00 0. -1.
         -5    1    3    3    0  503 -0.67848370305E+02  0.22650180240E+02 -0.13535908044E+03  0.15316854337E+03  0.47000000000E+01 0.  1.
         13    1    4    4    0    0 -0.15601146720E+01 -0.76988638154E+02 -0.31991555358E+03  0.32905264896E+03  0.00000000000E+00 0. -1.
        -14    1    4    4    0    0 -0.57185129693E+02 -0.51349857834E+02 -0.15882311715E+03  0.17644185870E+03  0.00000000000E+00 0.  1.
</event>
<event>
12    1  0.1597826E-001  0.1764890E+03  0.7818608E-02  0.1171524E+00
         21   -1    0    0  503  502  0.00000000000E+00  0.00000000000E+00  0.42424332918E+03  0.42424332918E+03  0.00000000000E+00 0. -1.
         21   -1    0    0  501  503 -0.00000000000E+00 -0.00000000000E+00 -0.15777736453E+03  0.15777736453E+03  0.00000000000E+00 0. -1.
          6    2    1    2  501    0 -0.10047478562E+02  0.29814824263E+02 -0.79942970852E+02  0.19375044715E+03  0.17366197514E+03 0.  0.
         24    2    3    3    0    0 -0.39268225237E+02 -0.35070707846E+02 -0.13940059347E+02  0.96578132983E+02  0.79756269056E+02 0.  0.
         -6    2    1    2    0  502  0.10047478562E+02 -0.29814824263E+02  0.34640893550E+03  0.38827024656E+03  0.17252465969E+03 0.  0.
        -24    2    5    5    0    0 -0.63779724392E+02 -0.20073699235E+02  0.20735770638E+03  0.23046441736E+03  0.75138689280E+02 0.  0.
          5    1    3    3  501    0  0.29220746675E+02  0.64885532109E+02 -0.66002911506E+02  0.97172314167E+02  0.47000000000E+01 0. -1.
        -11    1    4    4    0    0 -0.20093666849E+02  0.18669458620E+02  0.16397429616E+02  0.31955904472E+02  0.00000000000E+00 0.  1.
         12    1    4    4    0    0 -0.19174558388E+02 -0.53740166466E+02 -0.30337488962E+02  0.64622228511E+02  0.00000000000E+00 0. -1.
         -5    1    5    5    0  502  0.73827202954E+02 -0.97411250278E+01  0.13905122911E+03  0.15780582920E+03  0.47000000000E+01 0.  1.
         13    1    6    6    0    0 -0.24924359723E+02  0.16808956913E+02  0.14576475746E+03  0.14883255443E+03  0.00000000000E+00 0. -1.
        -14    1    6    6    0    0 -0.38855364669E+02 -0.36882656148E+02  0.61592948920E+02  0.81631862926E+02  0.00000000000E+00 0.  1.
</event>
<event>
12    1  0.1597826E-001  0.1805724E+03  0.7818608E-02  0.1168810E+00
         21   -1    0    0  501  502  0.00000000000E+00  0.00000000000E+00  0.14836238506E+03  0.14836238506E+03  0.00000000000E+00 0.  1.
         21   -1    0    0  502  503 -0.00000000000E+00 -0.00000000000E+00 -0.23179785631E+03  0.23179785631E+03  0.00000000000E+00 0.  1.
         -6    2    1    2    0  503  0.16406782526E+01 -0.55602002580E+02  0.12982256646E+02  0.18103847459E+03  0.17179090714E+03 0.  0.
        -24    2    3    3    0    0 -0.50213039537E+02  0.77390054816E+01  0.25736432095E+02  0.98058655703E+02  0.79824147198E+02 0.  0.
          6    2    1    2  501    0 -0.16406782526E+01  0.55602002580E+02 -0.96417727896E+02  0.19912176678E+03  0.16510246890E+03 0.  0.
         24    2    5    5    0    0 -0.43061356190E+02  0.29914641615E+02 -0.11280668472E+03  0.14748649802E+03  0.79232271206E+02 0.  0.
          5    1    5    5  501    0  0.41420677938E+02  0.25687360965E+02  0.16388956821E+02  0.51635268759E+02  0.47000000000E+01 0. -1.
        -13    1    6    6    0    0 -0.19045336763E+02  0.37316638186E+02 -0.11979795208E+02  0.43574899095E+02  0.00000000000E+00 0.  1.
         14    1    6    6    0    0 -0.24016019428E+02 -0.74019965713E+01 -0.10082688951E+03  0.10391159892E+03  0.00000000000E+00 0. -1.
         -5    1    3    3    0  503  0.51853717790E+02 -0.63341008062E+02 -0.12754175449E+02  0.82979818886E+02  0.47000000000E+01 0.  1.
         13    1    4    4    0    0 -0.21133394351E+02  0.25462511017E+02  0.47318456282E+02  0.57740766613E+02  0.00000000000E+00 0. -1.
        -14    1    4    4    0    0 -0.29079645187E+02 -0.17723505536E+02 -0.21582024187E+02  0.40317889090E+02  0.00000000000E+00 0.  1.
</event>
<event>
12    1  0.1597826E-001  0.1760135E+03  0.7818608E-02  0.1172393E+00
         21   -1    0    0  503  502  0.00000000000E+00  0.00000000000E+00  0.45986286222E+03  0.45986286222E+03  0.00000000000E+00 0.  1.
         21   -1    0    0  501  503 -0.00000000000E+00 -0.00000000000E+00 -0.26353827032E+03  0.26353827032E+03  0.00000000000E+00 0.  1.
          6    2    1    2  501    0 -0.88867491423E+00  0.39840500705E+02 -0.21452257297E+03  0.27748997177E+03  0.17144297850E+03 0.  0.
         24    2    3    3    0    0 -0.21307690509E+02  0.26344065389E+02 -0.23147681012E+03  0.24734654593E+03  0.80316702529E+02 0.  0.
         -6    2    1    2    0  502  0.88867491423E+00 -0.39840500705E+02  0.41084716487E+03  0.44591116077E+03  0.16868110497E+03 0.  0.
        -24    2    5    5    0    0  0.25230195194E+02 -0.10141634966E+02  0.73062759757E+02  0.10591862177E+03  0.71701966952E+02 0.  0.
          5    1    3    3  501    0  0.20419015594E+02  0.13496435316E+02  0.16954237144E+02  0.30143425838E+02  0.47000000000E+01 0. -1.
        -11    1    4    4    0    0 -0.41821730279E+02 -0.78979019567E+01 -0.79044806240E+02  0.89774803661E+02  0.00000000000E+00 0.  1.
         12    1    4    4    0    0  0.20514039771E+02  0.34241967346E+02 -0.15243200388E+03  0.15757174227E+03  0.00000000000E+00 0. -1.
         -5    1    5    5    0  502 -0.24341520280E+02 -0.29698865740E+02  0.33778440512E+03  0.33999253900E+03  0.47000000000E+01 0.  1.
         11    1    6    6    0    0 -0.10693383683E+02 -0.11052502834E+02 -0.79365020881E+01  0.17305904740E+02  0.00000000000E+00 0. -1.
        -12    1    6    6    0    0  0.35923578878E+02  0.91086786796E+00  0.80999261846E+02  0.88612717029E+02  0.00000000000E+00 0.  1.
</event>
<event>
12    1  0.1597826E-001  0.2106151E+03  0.7818608E-02  0.1141339E+00
         21   -1    0    0  503  502  0.00000000000E+00  0.00000000000E+00  0.21915038180E+03  0.21915038180E+03  0.00000000000E+00 0. -1.
         21   -1    0    0  501  503 -0.00000000000E+00 -0.00000000000E+00 -0.23851614211E+03  0.23851614211E+03  0.00000000000E+00 0.  1.
          6    2    1    2  501    0  0.11811150907E+03  0.49009690145E+01 -0.10027592675E+03  0.23326803798E+03  0.17431112410E+03 0.  0.
         24    2    3    3    0    0  0.13597289354E+03 -0.36805039055E+02 -0.93966920701E+02  0.18722117357E+03  0.79867058101E+02 0.  0.
         -6    2    1    2    0  502 -0.11811150907E+03 -0.49009690145E+01  0.80910166444E+02  0.22439848592E+03  0.17272486034E+03 0.  0.
        -24    2    5    5    0    0 -0.29119700075E+02  0.18703372956E+00 -0.22087516228E+02  0.88104529798E+02  0.80165814932E+02 0.  0.
          5    1    3    3  501    0 -0.17861384470E+02  0.41706008070E+02 -0.63090060512E+01  0.46046864406E+02  0.47000000000E+01 0. -1.
        -11    1    4    4    0    0  0.25131922649E+02 -0.38855130591E+01 -0.62370389638E+02  0.67355595546E+02  0.00000000000E+00 0.  1.
         12    1    4    4    0    0  0.11084097089E+03 -0.32919525996E+02 -0.31596531063E+02  0.11986557803E+03  0.00000000000E+00 0. -1.
         -5    1    5    5    0  502 -0.88991808999E+02 -0.50880027440E+01  0.10299768267E+03  0.13629395613E+03  0.47000000000E+01 0.  1.
         13    1    6    6    0    0  0.67718360048E+01 -0.31384923712E+02  0.59982287086E+01  0.32662669011E+02  0.00000000000E+00 0. -1.
        -14    1    6    6    0    0 -0.35891536080E+02  0.31571957441E+02 -0.28085744937E+02  0.55441860787E+02  0.00000000000E+00 0.  1.
</event>
<event>
12    1  0.1597826E-001  0.2521985E+03  0.7818608E-02  0.1111950E+00
         21   -1    0    0  503  502  0.00000000000E+00  0.00000000000E+00  0.28792320259E+03  0.28792320259E+03  0.00000000000E+00 0. -1.
         21   -1    0    0  501  503 -0.00000000000E+00 -0.00000000000E+00 -0.22639567295E+03  0.22639567295E+03  0.00000000000E+00 0. -1.
          6    2    1    2  501    0  0.24968549605E+02  0.18358291582E+03  0.71354585852E+02  0.26209840004E+03  0.17110809136E+03 0.  0.
         24    2    3    3    0    0  0.53030868393E+02  0.73645824602E+02  0.81520119001E+02  0.14808486651E+03  0.83950088771E+02 0.  0.
         -6    2    1    2    0  502 -0.24968549605E+02 -0.18358291582E+03 -0.98270562144E+01  0.25222047551E+03  0.17085807496E+03 0.  0.
        -24    2    5    5    0    0  0.28528852597E+01 -0.20130506740E+03 -0.19698288009E+02  0.21746938759E+03  0.79831340177E+02 0.  0.
          5    1    3    3  501    0 -0.28062318788E+02  0.10993709122E+03 -0.10165533150E+02  0.11401353352E+03  0.47000000000E+01 0. -1.
        -11    1    4    4    0    0 -0.15666035242E+02  0.12690961240E+02  0.44887830741E+02  0.49207748435E+02  0.00000000000E+00 0.  1.
         12    1    4    4    0    0  0.68696903634E+02  0.60954863362E+02  0.36632288260E+02  0.98877118079E+02  0.00000000000E+00 0. -1.
         -5    1    5    5    0  502 -0.27821434864E+02  0.17722151572E+02  0.98712317948E+01  0.34751087917E+02  0.47000000000E+01 0.  1.
         11    1    6    6    0    0  0.69313296364E+01 -0.46382589986E+01 -0.19010078206E+02  0.20759090791E+02  0.00000000000E+00 0. -1.
        -12    1    6    6    0    0 -0.40784443767E+01 -0.19666680840E+03 -0.68820980288E+00  0.19671029680E+03  0.00000000000E+00 0.  1.
</event>
<event>
12    1  0.1597826E-001  0.1794112E+03  0.7818608E-02  0.1169659E+00
         21   -1    0    0  501  502  0.00000000000E+00  0.00000000000E+00  0.77135107894E+03  0.77135107894E+03  0.00000000000E+00 0.  1.
         21   -1    0    0  502  503 -0.00000000000E+00 -0.00000000000E+00 -0.21108975946E+03  0.21108975946E+03  0.00000000000E+00 0.  1.
         -6    2    1    2    0  503  0.25617917019E+02  0.23855558440E+02 -0.16220529266E+03  0.23803074982E+03  0.17065378856E+03 0.  0.
        -24    2    3    3    0    0  0.29832293022E+02  0.17966762117E+02 -0.19109093921E+02  0.94674372281E+02  0.85937820826E+02 0.  0.
          6    2    1    2  501    0 -0.25617917019E+02 -0.23855558440E+02  0.72246661214E+03  0.74441008858E+03  0.17596308983E+03 0.  0.
         24    2    5    5    0    0  0.52985653665E+01  0.28874981401E+02  0.17933269253E+03  0.19782717324E+03  0.78189107396E+02 0.  0.
          5    1    5    5  501    0 -0.30916482386E+02 -0.52730539841E+02  0.54313391961E+03  0.54658291534E+03  0.47000000000E+01 0. -1.
        -11    1    6    6    0    0 -0.32313276639E+02  0.12197089788E+02  0.12494094684E+03  0.12962699195E+03  0.00000000000E+00 0.  1.
         12    1    6    6    0    0  0.37611842006E+02  0.16677891613E+02  0.54391745697E+02  0.68200181288E+02  0.00000000000E+00 0. -1.
         -5    1    3    3    0  503 -0.42143760030E+01  0.58887963232E+01 -0.14309619874E+03  0.14335637754E+03  0.47000000000E+01 0.  1.
         11    1    4    4    0    0 -0.19193809716E+02 -0.13620124643E+02 -0.27005235368E+02  0.35821681479E+02  0.00000000000E+00 0. -1.
        -12    1    4    4    0    0  0.49026102738E+02  0.31586886760E+02  0.78961414464E+01  0.58852690802E+02  0.00000000000E+00 0.  1.
</event>
<event>
12    1  0.1597826E-001  0.1888423E+03  0.7818608E-02  0.1159730E+00
         21   -1    0    0  503  502  0.00000000000E+00  0.00000000000E+00  0.21689812247E+03  0.21689812247E+03  0.00000000000E+00 0. -1.
         21   -1    0    0  501  503 -0.00000000000E+00 -0.00000000000E+00 -0.19767557740E+03  0.19767557740E+03  0.00000000000E+00 0. -1.
          6    2    1    2  501    0 -0.40443463854E+02 -0.63079914218E+02  0.95686036224E+02  0.21083841615E+03  0.17228543423E+03 0.  0.
         24    2    3    3    0    0 -0.54220009625E+02  0.16072528306E+02  0.19084130018E+02  0.99731060831E+02  0.79899592403E+02 0.  0.
         -6    2    1    2    0  502  0.40443463854E+02  0.63079914218E+02 -0.76463491157E+02  0.20373528372E+03  0.17333969830E+03 0.  0.
        -24    2    5    5    0    0  0.16828338662E+02  0.76771569916E+02 -0.11141297525E+03  0.15914053053E+03  0.82071861652E+02 0.  0.
          5    1    3    3  501    0  0.13776545771E+02 -0.79152442524E+02  0.76601906206E+02  0.11110735532E+03  0.47000000000E+01 0. -1.
        -11    1    4    4    0    0 -0.39142171354E+02  0.48294603865E+02  0.14766774248E+02  0.63894725623E+02  0.00000000000E+00 0.  1.
         12    1    4    4    0    0 -0.15077838271E+02 -0.32222075559E+02  0.43173557700E+01  0.35836335208E+02  0.00000000000E+00 0. -1.
         -5    1    5    5    0  502  0.23615125192E+02 -0.13691655699E+02  0.34949484090E+02  0.44594753187E+02  0.47000000000E+01 0.  1.
         11    1    6    6    0    0  0.27192359313E+02  0.62938383732E+02 -0.28171726678E+02  0.74123617935E+02  0.00000000000E+00 0. -1.
        -12    1    6    6    0    0 -0.10364020651E+02  0.13833186184E+02 -0.83241248569E+02  0.85016912596E+02  0.00000000000E+00 0.  1.
</event>
<event>
12    1  0.1597826E-001  0.2608108E+03  0.7818608E-02  0.1106743E+00
         21   -1    0    0  503  502  0.00000000000E+00  0.00000000000E+00  0.39137176534E+03  0.39137176534E+03  0.00000000000E+00 0. -1.
         21   -1    0    0  501  503 -0.00000000000E+00 -0.00000000000E+00 -0.17933749002E+03  0.17933749002E+03  0.00000000000E+00 0. -1.
          6    2    1    2  501    0  0.15015247981E+03 -0.12422459684E+03  0.15795108011E+03  0.30491116971E+03  0.17333424373E+03 0.  0.
         24    2    3    3    0    0  0.20133714212E+02 -0.72226235234E+01  0.28245871730E+02  0.87104208733E+02  0.79572490037E+02 0.  0.
         -6    2    1    2    0  502 -0.15015247981E+03  0.12422459684E+03  0.54083195206E+02  0.26579808565E+03  0.17247061395E+03 0.  0.
        -24    2    5    5    0    0 -0.13814500225E+03  0.12731795794E+03 -0.61278136981E+01  0.20414418071E+03  0.79645416423E+02 0.  0.
          5    1    3    3  501    0  0.13001876560E+03 -0.11700197331E+03  0.12970520838E+03  0.21780696097E+03  0.47000000000E+01 0. -1.
        -11    1    4    4    0    0  0.38836866960E+02 -0.95450792644E+01 -0.12756435379E+02  0.41977820537E+02  0.00000000000E+00 0.  1.
         12    1    4    4    0    0 -0.18703152748E+02  0.23224557411E+01  0.41002307109E+02  0.45126388197E+02  0.00000000000E+00 0. -1.
         -5    1    5    5    0  502 -0.12007477562E+02 -0.30933611074E+01  0.60211008904E+02  0.61653904933E+02  0.47000000000E+01 0.  1.
         11    1    6    6    0    0 -0.14055554532E+02  0.34508081501E+02 -0.29381574419E+02  0.47451482774E+02  0.00000000000E+00 0. -1.
        -12    1    6    6    0    0 -0.12408944772E+03  0.92809876443E+02  0.23253760721E+02  0.15669269794E+03  0.00000000000E+00 0.  1.
</event>
<event>
12    1  0.1597826E-001  0.1919157E+03  0.7818608E-02  0.1157021E+00
         21   -1    0    0  501  502  0.00000000000E+00  0.00000000000E+00  0.24135143357E+03  0.24135143357E+03  0.00000000000E+00 0. -1.
         21   -1    0    0  502  503 -0.00000000000E+00 -0.00000000000E+00 -0.35645008115E+03  0.35645008115E+03  0.00000000000E+00 0. -1.
         -6    2    1    2    0  503 -0.76597367747E+02 -0.26162944850E+02 -0.28404930644E+03  0.34211429712E+03  0.17264567001E+03 0.  0.
        -24    2    3    3    0    0 -0.78064627508E+02 -0.78883267040E+02 -0.20412822829E+03  0.24624431248E+03  0.81555330625E+02 0.  0.
          6    2    1    2  501    0  0.76597367747E+02  0.26162944850E+02  0.16895065886E+03  0.25568721760E+03  0.17401141252E+03 0.  0.
         24    2    5    5    0    0  0.17829471376E+01  0.69258913480E+02  0.87264759298E+02  0.13673707582E+03  0.79258524405E+02 0.  0.
          5    1    5    5  501    0  0.74814420609E+02 -0.43095968630E+02  0.81685899562E+02  0.11895014178E+03  0.47000000000E+01 0. -1.
        -11    1    6    6    0    0  0.98577771058E+01 -0.12332759166E+02 -0.15488501642E+01  0.15864162599E+02  0.00000000000E+00 0.  1.
         12    1    6    6    0    0 -0.80748299683E+01  0.81591672646E+02  0.88813609462E+02  0.12087291322E+03  0.00000000000E+00 0. -1.
         -5    1    3    3    0  503  0.14672597614E+01  0.52720322189E+02 -0.79921078150E+02  0.95869984644E+02  0.47000000000E+01 0.  1.
         13    1    4    4    0    0 -0.16227263246E+01 -0.58613943359E+02 -0.87855387854E+02  0.10562573915E+03  0.00000000000E+00 0. -1.
        -14    1    4    4    0    0 -0.76441901183E+02 -0.20269323680E+02 -0.11627284044E+03  0.14061857332E+03  0.00000000000E+00 0.  1.
</event>
<event>
12    1  0.1597826E-001  0.2231916E+03  0.7818608E-02  0.1132324E+00
         21   -1    0    0  503  502  0.00000000000E+00  0.00000000000E+00  0.17709448105E+03  0.17709448105E+03  0.00000000000E+00 0.  1.
         21   -1    0    0  501  503 -0.00000000000E+00 -0.00000000000E+00 -0.38191475027E+03  0.38191475027E+03  0.00000000000E+00 0.  1.
          6    2    1    2  501    0 -0.48995782001E+02 -0.12641881875E+03 -0.24896521768E+03  0.33149376845E+03  0.17182006436E+03 0.  0.
         24    2    3    3    0    0  0.51322703441E+01 -0.64366828225E+01 -0.13684580035E+03  0.15852437019E+03  0.79595425647E+02 0.  0.
         -6    2    1    2    0  502  0.48995782001E+02  0.12641881875E+03  0.44144948459E+02  0.22751546288E+03  0.17729129981E+03 0.  0.
        -24    2    5    5    0    0  0.31809615841E+02  0.57630819071E+02 -0.44653201503E+02  0.11378615864E+03  0.81364725318E+02 0.  0.
          5    1    3    3  501    0 -0.54128052345E+02 -0.11998213593E+03 -0.11211941732E+03  0.17296939826E+03  0.47000000000E+01 0. -1.
        -13    1    4    4    0    0  0.33703262946E+02 -0.19473006558E+02 -0.11171653138E+03  0.11830338668E+03  0.00000000000E+00 0.  1.
         14    1    4    4    0    0 -0.28570992602E+02  0.13036323736E+02 -0.25129268979E+02  0.40220983506E+02  0.00000000000E+00 0. -1.
         -5    1    5    5    0  502  0.17186166160E+02  0.68787999681E+02  0.88798149962E+02  0.11372930425E+03  0.47000000000E+01 0.  1.
         11    1    6    6    0    0 -0.25625769121E+02  0.58151560541E+01 -0.18476278870E+02  0.32122717256E+02  0.00000000000E+00 0. -1.
        -12    1    6    6    0    0  0.57435384962E+02  0.51815663017E+02 -0.26176922632E+02  0.81663441381E+02  0.00000000000E+00 0.  1.
</event>
<event>
12    1  0.1597826E-001  0.1842266E+03  0.7818608E-02  0.1164487E+00
         21   -1    0    0  501  502  0.00000000000E+00  0.00000000000E+00  0.74543091366E+03  0.74543091366E+03  0.00000000000E+00 0.  1.
         21   -1    0    0  502  503 -0.00000000000E+00 -0.00000000000E+00 -0.27700158761E+03  0.27700158761E+03  0.00000000000E+00 0.  1.
         -6    2    1    2    0  503  0.33458675786E+02 -0.51070619006E+02 -0.23415985541E+03  0.29609168590E+03  0.17062167934E+03 0.  0.
        -24    2    3    3    0    0  0.32209032416E+02  0.25179877882E+02 -0.61751761306E+02  0.10751188635E+03  0.77936369321E+02 0.  0.
          6    2    1    2  501    0 -0.33458675786E+02  0.51070619006E+02  0.70258918146E+03  0.72634081538E+03  0.17381522107E+03 0.  0.
         24    2    5    5    0    0 -0.40844163314E+02  0.62546127418E+02  0.70349636024E+03  0.71187894508E+03  0.79273197464E+02 0.  0.
          5    1    5    5  501    0  0.73854875279E+01 -0.11475508411E+02 -0.90717878726E+00  0.14461870304E+02  0.47000000000E+01 0. -1.
        -13    1    6    6    0    0 -0.72794395632E+00 -0.89283339506E+01  0.30042863151E+03  0.30056215278E+03  0.00000000000E+00 0.  1.
         14    1    6    6    0    0 -0.40116219358E+02  0.71474461368E+02  0.40306772873E+03  0.41131679230E+03  0.00000000000E+00 0. -1.
         -5    1    3    3    0  503  0.12496433700E+01 -0.76250496888E+02 -0.17240809410E+03  0.18857979954E+03  0.47000000000E+01 0.  1.
         13    1    4    4    0    0 -0.71653565287E+01  0.42793716071E+02 -0.21131579868E+02  0.48261663223E+02  0.00000000000E+00 0. -1.
        -14    1    4    4    0    0  0.39374388945E+02 -0.17613838189E+02 -0.40620181438E+02  0.59250223127E+02  0.00000000000E+00 0.  1.
</event>
<event>
12    1  0.1597826E-001  0.2850843E+03  0.7818608E-02  0.1093104E+00
         21   -1    0    0  501  502  0.00000000000E+00  0.00000000000E+00  0.11958790477E+03  0.11958790477E+03  0.00000000000E+00 0. -1.
         21   -1    0    0  502  503 -0.00000000000E+00 -0.00000000000E+00 -0.70776005232E+03  0.70776005232E+03  0.00000000000E+00 0.  1.
         -6    2    1    2    0  503  0.20653906001E+03  0.95865372426E+02 -0.38124158111E+03  0.47604430487E+03  0.17153566421E+03 0.  0.
        -24    2    3    3    0    0  0.24637957435E+02  0.40189490115E+02 -0.16479469068E+03  0.18784444129E+03  0.76850634271E+02 0.  0.
          6    2    1    2  501    0 -0.20653906001E+03 -0.95865372426E+02 -0.20693056644E+03  0.35130365222E+03  0.16954481353E+03 0.  0.
         24    2    5    5    0    0 -0.71406953152E+02 -0.15963613039E+02 -0.14908927039E+03  0.18393375354E+03  0.79058366072E+02 0.  0.
          5    1    5    5  501    0 -0.13513210685E+03 -0.79901759387E+02 -0.57841296057E+02  0.16736989868E+03  0.47000000000E+01 0. -1.
        -11    1    6    6    0    0 -0.64668595351E+02 -0.10264767938E+02 -0.15822096424E+03  0.17123453568E+03  0.00000000000E+00 0.  1.
         12    1    6    6    0    0 -0.67383578012E+01 -0.56988451015E+01  0.91316938563E+01  0.12699217851E+02  0.00000000000E+00 0. -1.
         -5    1    3    3    0  503  0.18190110257E+03  0.55675882312E+02 -0.21644689043E+03  0.28819986358E+03  0.47000000000E+01 0.  1.
         13    1    4    4    0    0  0.82115232876E+01  0.32569027982E+02 -0.14704684130E+02  0.36666039243E+02  0.00000000000E+00 0. -1.
        -14    1    4    4    0    0  0.16426434147E+02  0.76204621329E+01 -0.15009000655E+03  0.15117840205E+03  0.00000000000E+00 0.  1.
</event>
<event>
12    1  0.1597826E-001  0.2143858E+03  0.7818608E-02  0.1138211E+00
         21   -1    0    0  501  502  0.00000000000E+00  0.00000000000E+00  0.38680831788E+03  0.38680831788E+03  0.00000000000E+00 0. -1.
         21   -1    0    0  502  503 -0.00000000000E+00 -0.00000000000E+00 -0.12148903462E+03  0.12148903462E+03  0.00000000000E+00 0.  1.
         -6    2    1    2    0  503  0.38338506871E+02 -0.12172928021E+03  0.93456629450E+02  0.23352825233E+03  0.17179477372E+03 0.  0.
        -24    2    3    3    0    0 -0.13006192423E+02 -0.99023071866E+02  0.11609433515E+03  0.17281247380E+03  0.80072009116E+02 0.  0.
          6    2    1    2  501    0 -0.38338506871E+02  0.12172928021E+03  0.17186265381E+03  0.27476910017E+03  0.17225976856E+03 0.  0.
         24    2    5    5    0    0  0.33289508017E+02  0.83516665674E+02  0.72874108583E+02  0.14666133884E+03  0.90087112398E+02 0.  0.
          5    1    5    5  501    0 -0.71628014888E+02  0.38212614536E+02  0.98988545223E+02  0.12810776133E+03  0.47000000000E+01 0. -1.
        -11    1    6    6    0    0  0.63710802455E+02  0.59721132569E+02  0.59994165895E+02  0.10594800596E+03  0.00000000000E+00 0.  1.
         12    1    6    6    0    0 -0.30421294439E+02  0.23795533105E+02  0.12879942688E+02  0.40713332886E+02  0.00000000000E+00 0. -1.
         -5    1    3    3    0  503  0.51344699294E+02 -0.22706208344E+02 -0.22637705700E+02  0.60715778528E+02  0.47000000000E+01 0.  1.
         11    1    4    4    0    0 -0.30403996685E+02 -0.40323025130E+01  0.20242129906E+02  0.36747874783E+02  0.00000000000E+00 0. -1.
        -12    1    4    4    0    0  0.17397804262E+02 -0.94990769353E+02  0.95852205244E+02  0.13606459902E+03  0.00000000000E+00 0.  1.
</event>
<event>
12    1  0.1597826E-001  0.1848293E+03  0.7818608E-02  0.1163587E+00
         21   -1    0    0  503  502  0.00000000000E+00  0.00000000000E+00  0.82224070994E+02  0.82224070994E+02  0.00000000000E+00 0. -1.
         21   -1    0    0  501  503 -0.00000000000E+00 -0.00000000000E+00 -0.48129957727E+03  0.48129957727E+03  0.00000000000E+00 0. -1.
          6    2    1    2  501    0 -0.46695452905E+02  0.40156497956E+02 -0.30730091617E+03  0.35860243450E+03  0.17426658687E+03 0.  0.
         24    2    3    3    0    0 -0.96718097419E+02  0.41883074455E+02 -0.24758370439E+03  0.28054167987E+03  0.79355914531E+02 0.  0.
         -6    2    1    2    0  502  0.46695452905E+02 -0.40156497956E+02 -0.91774590109E+02  0.20492121377E+03  0.17256047871E+03 0.  0.
        -24    2    5    5    0    0 -0.35689355519E+02  0.29387515612E+01 -0.26013741410E+02  0.90942985970E+02  0.79445236464E+02 0.  0.
          5    1    3    3  501    0  0.50022644513E+02 -0.17265764987E+01 -0.59717211776E+02  0.78060754626E+02  0.47000000000E+01 0. -1.
        -13    1    4    4    0    0 -0.15250222671E+02  0.75582327392E+01  0.65331241443E+00  0.17032997116E+02  0.00000000000E+00 0.  1.
         14    1    4    4    0    0 -0.81467874748E+02  0.34324841716E+02 -0.24823701681E+03  0.26350868276E+03  0.00000000000E+00 0. -1.
         -5    1    5    5    0  502  0.82384808424E+02 -0.43095249517E+02 -0.65760848699E+02  0.11397822780E+03  0.47000000000E+01 0.  1.
         13    1    6    6    0    0 -0.26877615220E+02 -0.28902235080E+02 -0.38960786799E+02  0.55458888381E+02  0.00000000000E+00 0. -1.
        -14    1    6    6    0    0 -0.88117402984E+01  0.31840986641E+02  0.12947045388E+02  0.35484097588E+02  0.00000000000E+00 0.  1.
</event>
<event>
12    1  0.1597826E-001  0.2002475E+03  0.7818608E-02  0.1149823E+00
         21   -1    0    0  503  502  0.00000000000E+00  0.00000000000E+00  0.13406085776E+03  0.13406085776E+03  0.00000000000E+00 0. -1.
         21   -1    0    0  501  503 -0.00000000000E+00 -0.00000000000E+00 -0.33071159091E+03  0.33071159091E+03  0.00000000000E+00 0. -1.
          6    2    1    2  501    0 -0.16237577228E+01  0.10076594148E+03 -0.24486021417E+02  0.20173903681E+03  0.17303948155E+03 0.  0.
         24    2    3    3    0    0  0.19024165483E+01  0.32329994956E+02 -0.76777363787E+02  0.11541182691E+03  0.79851602609E+02 0.  0.
         -6    2    1    2    0  502  0.16237577228E+01 -0.10076594148E+03 -0.17216471174E+03  0.26303341186E+03  0.17143359133E+03 0.  0.
        -24    2    5    5    0    0 -0.65723637021E+02 -0.38920171983E+02 -0.99812784219E+02  0.14633952942E+03  0.74955251497E+02 0.  0.
          5    1    3    3  501    0 -0.35261742711E+01  0.68435946521E+02  0.52291342370E+02  0.86327209894E+02  0.47000000000E+01 0. -1.
        -13    1    4    4    0    0 -0.29671604481E+02  0.43513147483E+02 -0.46247538123E+02  0.70090176907E+02  0.00000000000E+00 0.  1.
         14    1    4    4    0    0  0.31574021030E+02 -0.11183152527E+02 -0.30529825664E+02  0.45321650008E+02  0.00000000000E+00 0. -1.
         -5    1    5    5    0  502  0.67347394744E+02 -0.61845769494E+02 -0.72351927520E+02  0.11669388244E+03  0.47000000000E+01 0.  1.
         13    1    6    6    0    0 -0.49479969773E+02 -0.43610586054E+02 -0.26463130047E+02  0.71066503197E+02  0.00000000000E+00 0. -1.
        -14    1    6    6    0    0 -0.16243667248E+02  0.46904140705E+01 -0.73349654172E+02  0.75273026224E+02  0.00000000000E+00 0.  1.
</event>
<event>
12    1  0.1597826E-001  0.1864584E+03  0.7818608E-02  0.1161995E+00
         21   -1    0    0  501  502  0.00000000000E+00  0.00000000000E+00  0.48125637743E+03  0.48125637743E+03  0.00000000000E+00 0. -1.
         21   -1    0    0  502  503 -0.00000000000E+00 -0.00000000000E+00 -0.72472716019E+02  0.72472716019E+02  0.00000000000E+00 0. -1.
         -6    2    1    2    0  503  0.31672084468E+02 -0.66430233924E+02  0.17585643191E+03  0.25536380091E+03  0.16990906174E+03 0.  0.
        -24    2    3    3    0    0  0.32585047924E+02 -0.10763924915E+03  0.15887345867E+03  0.21053604369E+03  0.80228776102E+02 0.  0.
          6    2    1    2  501    0 -0.31672084468E+02  0.66430233924E+02  0.23292722950E+03  0.29836529254E+03  0.17132033339E+03 0.  0.
         24    2    5    5    0    0 -0.51294554050E+02  0.10154524160E+03  0.21266723481E+03  0.25308105177E+03  0.76681801232E+02 0.  0.
          5    1    5    5  501    0  0.19622469582E+02 -0.35115007672E+02  0.20259994695E+02  0.45284240762E+02  0.47000000000E+01 0. -1.
        -13    1    6    6    0    0 -0.80959780966E+01  0.18264116672E+02  0.11843785975E+03  0.12011098801E+03  0.00000000000E+00 0.  1.
         14    1    6    6    0    0 -0.43198575953E+02  0.83281124924E+02  0.94229375059E+02  0.13297006376E+03  0.00000000000E+00 0. -1.
         -5    1    3    3    0  503 -0.91296345600E+00  0.41209015226E+02  0.16982973235E+02  0.44827757228E+02  0.47000000000E+01 0.  1.
         13    1    4    4    0    0  0.26480710559E+02 -0.20904906376E+02  0.99980573520E+02  0.10551946846E+03  0.00000000000E+00 0. -1.
        -14    1    4    4    0    0  0.61043373645E+01 -0.86734342774E+02  0.58892885153E+02  0.10501657523E+03  0.00000000000E+00 0.  1.
</event>
<event>
12    1  0.1597826E-001  0.2201829E+03  0.7818608E-02  0.1134458E+00
         21   -1    0    0  503  502  0.00000000000E+00  0.00000000000E+00  0.73646171393E+03  0.73646171393E+03  0.00000000000E+00 0.  1.
         21   -1    0    0  501  503 -0.00000000000E+00 -0.00000000000E+00 -0.74248404911E+02  0.74248404911E+02  0.00000000000E+00 0.  1.
          6    2    1    2  501    0  0.80979546815E+02  0.10981035680E+03  0.18326187013E+03  0.28357163700E+03  0.16796415929E+03 0.  0.
         24    2    3    3    0    0  0.10985195917E+03  0.12383623809E+03  0.15309796000E+03  0.23927386035E+03  0.80063275566E+02 0.  0.
         -6    2    1    2    0  502 -0.80979546815E+02 -0.10981035680E+03  0.47895143889E+03  0.52713848184E+03  0.17281347390E+03 0.  0.
        -24    2    5    5    0    0 -0.61987191463E+02 -0.57545896118E+02  0.44913064843E+03  0.46386405608E+03  0.79357300225E+02 0.  0.
          5    1    3    3  501    0 -0.28872412358E+02 -0.14025881292E+02  0.30163910134E+02  0.44297776648E+02  0.47000000000E+01 0. -1.
        -11    1    4    4    0    0  0.37088692045E+02  0.69946946291E+02  0.26220288643E+02  0.83400539025E+02  0.00000000000E+00 0.  1.
         12    1    4    4    0    0  0.72763267128E+02  0.53889291798E+02  0.12687767135E+03  0.15587332133E+03  0.00000000000E+00 0. -1.
         -5    1    5    5    0  502 -0.18992355352E+02 -0.52264460679E+02  0.29820790461E+02  0.63274425763E+02  0.47000000000E+01 0.  1.
         13    1    6    6    0    0 -0.55289868096E+02  0.25438194147E+01  0.22724036740E+03  0.23388378547E+03  0.00000000000E+00 0. -1.
        -14    1    6    6    0    0 -0.66973233678E+01 -0.60089715532E+02  0.22189028103E+03  0.22998027060E+03  0.00000000000E+00 0.  1.
</event>
<event>
12    1  0.1597826E-001  0.1824808E+03  0.7818608E-02  0.1165513E+00
         21   -1    0    0  503  502  0.00000000000E+00  0.00000000000E+00  0.21028578653E+03  0.21028578653E+03  0.00000000000E+00 0. -1.
         21   -1    0    0  501  503 -0.00000000000E+00 -0.00000000000E+00 -0.15824291395E+03  0.15824291395E+03  0.00000000000E+00 0. -1.
          6    2    1    2  501    0 -0.51378847374E+02 -0.26164815829E+02  0.32842682611E+02  0.18541271769E+03  0.17313246529E+03 0.  0.
         24    2    3    3    0    0  0.12787381356E+02 -0.54623083589E+02 -0.17650369721E+02  0.98817011984E+02  0.79410754457E+02 0.  0.
         -6    2    1    2    0  502  0.51378847374E+02  0.26164815829E+02  0.19200189968E+02  0.18311598278E+03  0.17273804535E+03 0.  0.
        -24    2    5    5    0    0  0.15876462803E+02  0.81298346138E+02  0.17208196197E+02  0.11734225312E+03  0.81311740817E+02 0.  0.
          5    1    3    3  501    0 -0.64166228730E+02  0.28458267759E+02  0.50493052332E+02  0.86595705708E+02  0.47000000000E+01 0. -1.
        -13    1    4    4    0    0 -0.20357654841E+01 -0.52656277183E+01  0.28854125392E+02  0.29401219847E+02  0.00000000000E+00 0.  1.
         14    1    4    4    0    0  0.14823146840E+02 -0.49357455871E+02 -0.46504495113E+02  0.69415792137E+02  0.00000000000E+00 0. -1.
         -5    1    5    5    0  502  0.35502384571E+02 -0.55133530308E+02  0.19919937712E+01  0.65773729662E+02  0.47000000000E+01 0.  1.
         11    1    6    6    0    0 -0.11910799766E+02  0.22918811183E+02  0.40992344331E+02  0.48451123319E+02  0.00000000000E+00 0. -1.
        -12    1    6    6    0    0  0.27787262570E+02  0.58379534955E+02 -0.23784148134E+02  0.68891129800E+02  0.00000000000E+00 0.  1.
</event>
<event>
12    1  0.1597826E-001  0.2443051E+03  0.7818608E-02  0.1117045E+00
         21   -1    0    0  503  502  0.00000000000E+00  0.00000000000E+00  0.12368503084E+03  0.12368503084E+03  0.00000000000E+00 0. -1.
         21   -1    0    0  501  503 -0.00000000000E+00 -0.00000000000E+00 -0.48349965393E+03  0.48349965393E+03  0.00000000000E+00 0.  1.
          6    2    1    2  501    0  0.13143738891E+03  0.11322076319E+03 -0.19925167167E+03  0.31483994012E+03  0.17125487092E+03 0.  0.
         24    2    3    3    0    0  0.13572343958E+03  0.30231798640E+02 -0.13900114803E+03  0.21208900793E+03  0.79533731407E+02 0.  0.
         -6    2    1    2    0  502 -0.13143738891E+03 -0.11322076319E+03 -0.16056295142E+03  0.29234474464E+03  0.17201819651E+03 0.  0.
        -24    2    5    5    0    0 -0.15007676414E+03 -0.12257169304E+03 -0.16855167463E+03  0.26952422982E+03  0.81772784994E+02 0.  0.
          5    1    3    3  501    0 -0.42860506703E+01  0.82988964547E+02 -0.60250523636E+02  0.10275093219E+03  0.47000000000E+01 0. -1.
        -13    1    4    4    0    0  0.96762220400E+02  0.55988706186E+02 -0.11148131655E+03  0.15787889807E+03  0.00000000000E+00 0.  1.
         14    1    4    4    0    0  0.38961219179E+02 -0.25756907545E+02 -0.27519831483E+02  0.54210109860E+02  0.00000000000E+00 0. -1.
         -5    1    5    5    0  502  0.18639375236E+02  0.93509298564E+01  0.79887232097E+01  0.22820514825E+02  0.47000000000E+01 0.  1.
         11    1    6    6    0    0 -0.10405019309E+03 -0.12628162572E+03 -0.13904980369E+03  0.21472852531E+03  0.00000000000E+00 0. -1.
        -12    1    6    6    0    0 -0.46026571053E+02  0.37099326715E+01 -0.29501870941E+02  0.54795704507E+02  0.00000000000E+00 0.  1.
</event>
<event>
12    1  0.1597826E-001  0.1856652E+03  0.7818608E-02  0.1162537E+00
         21   -1    0    0  503  502  0.00000000000E+00  0.00000000000E+00  0.56296117210E+02  0.56296117210E+02  0.00000000000E+00 0. -1.
         21   -1    0    0  501  503 -0.00000000000E+00 -0.00000000000E+00 -0.61129048322E+03  0.61129048322E+03  0.00000000000E+00 0. -1.
          6    2    1    2  501    0  0.35503420124E+02  0.57182992128E+02 -0.26781703101E+03  0.32561819494E+03  0.17254234075E+03 0.  0.
         24    2    3    3    0    0  0.17326507312E+02  0.10366149539E+03 -0.16593690065E+03  0.21207391993E+03  0.79964861274E+02 0.  0.
         -6    2    1    2    0  502 -0.35503420124E+02 -0.57182992128E+02 -0.28717733500E+03  0.34196840549E+03  0.17303520215E+03 0.  0.
        -24    2    5    5    0    0  0.31105646135E+02  0.14454750633E+02 -0.15407961555E+03  0.17672365726E+03  0.79462079432E+02 0.  0.
          5    1    3    3  501    0  0.18176912812E+02 -0.46478503259E+02 -0.10188013036E+03  0.11354427501E+03  0.47000000000E+01 0. -1.
        -13    1    4    4    0    0 -0.29409858989E+02  0.26715511116E+02 -0.33695236053E+02  0.52096326863E+02  0.00000000000E+00 0.  1.
         14    1    4    4    0    0  0.46736366301E+02  0.76945984271E+02 -0.13224166459E+03  0.15997759307E+03  0.00000000000E+00 0. -1.
         -5    1    5    5    0  502 -0.66609066258E+02 -0.71637742761E+02 -0.13309771945E+03  0.16524474823E+03  0.47000000000E+01 0.  1.
         13    1    6    6    0    0  0.10828474212E+01 -0.56228082508E+01 -0.13638392975E+03  0.13650408355E+03  0.00000000000E+00 0. -1.
        -14    1    6    6    0    0  0.30022798713E+02  0.20077558884E+02 -0.17695685805E+02  0.40219573710E+02  0.00000000000E+00 0.  1.
</event>
<event>
12    1  0.1597826E-001  0.1957029E+03  0.7818608E-02  0.1153588E+00
         21   -1    0    0  503  502  0.00000000000E+00  0.00000000000E+00  0.61658272939E+03  0.61658272939E+03  0.00000000000E+00 0.  1.
         21   -1    0    0  501  503 -0.00000000000E+00 -0.00000000000E+00 -0.29932873875E+03  0.29932873875E+03  0.00000000000E+00 0. -1.
          6    2    1    2  501    0  0.81081384481E+02 -0.50399791760E+02 -0.24933433238E+03  0.31647676182E+03  0.16992822469E+03 0.  0.
         24    2    3    3    0    0  0.18181297075E+02  0.28953835365E+02 -0.15696337487E+03  0.17933485383E+03  0.79715773868E+02 0.  0.
         -6    2    1    2    0  502 -0.81081384481E+02  0.50399791760E+02  0.56658832302E+03  0.59943470633E+03  0.17083708452E+03 0.  0.
        -24    2    5    5    0    0 -0.27921229530E+01  0.52925660576E+02  0.44469070452E+03  0.45446330267E+03  0.77318492510E+02 0.  0.
          5    1    3    3  501    0  0.62900087406E+02 -0.79353627124E+02 -0.92370957514E+02  0.13714190798E+03  0.47000000000E+01 0. -1.
        -11    1    4    4    0    0 -0.26348247499E+02 -0.61837125548E+01 -0.30767657081E+02  0.40977032219E+02  0.00000000000E+00 0.  1.
         12    1    4    4    0    0  0.44529544574E+02  0.35137547920E+02 -0.12619571779E+03  0.13835782161E+03  0.00000000000E+00 0. -1.
         -5    1    5    5    0  502 -0.78289261528E+02 -0.25258688169E+01  0.12189761850E+03  0.14497140366E+03  0.47000000000E+01 0.  1.
         11    1    6    6    0    0  0.23345026139E+02  0.57228681541E+02  0.23057099918E+03  0.23871132755E+03  0.00000000000E+00 0. -1.
        -12    1    6    6    0    0 -0.26137149092E+02 -0.43030209646E+01  0.21411970534E+03  0.21575197512E+03  0.00000000000E+00 0.  1.
</event>
<event>
12    1  0.1597826E-001  0.2093293E+03  0.7818608E-02  0.1142661E+00
         21   -1    0    0  503  502  0.00000000000E+00  0.00000000000E+00  0.30206621682E+03  0.30206621682E+03  0.00000000000E+00 0. -1.
         21   -1    0    0  501  503 -0.00000000000E+00 -0.00000000000E+00 -0.25790021125E+03  0.25790021125E+03  0.00000000000E+00 0. -1.
          6    2    1    2  501    0  0.90312404791E+02  0.78129372947E+02 -0.16461478026E+03  0.26630207035E+03  0.17192509246E+03 0.  0.
         24    2    3    3    0    0 -0.63766884463E+01  0.76181151857E+02 -0.10522842389E+03  0.15271771562E+03  0.80034051607E+02 0.  0.
         -6    2    1    2    0  502 -0.90312404791E+02 -0.78129372947E+02  0.20878078583E+03  0.29366435772E+03  0.16848978927E+03 0.  0.
        -24    2    5    5    0    0 -0.93868048982E+02  0.29829272523E+01  0.14265793270E+03  0.18884942770E+03  0.80577367201E+02 0.  0.
          5    1    3    3  501    0  0.96689093238E+02  0.19482210896E+01 -0.59386356371E+02  0.11358435473E+03  0.47000000000E+01 0. -1.
        -13    1    4    4    0    0 -0.51086232887E+01  0.14797701424E+02  0.12439422704E+02  0.19995230345E+02  0.00000000000E+00 0.  1.
         14    1    4    4    0    0 -0.12680651576E+01  0.61383450433E+02 -0.11766784659E+03  0.13272248527E+03  0.00000000000E+00 0. -1.
         -5    1    5    5    0  502  0.35556441907E+01 -0.81112300199E+02  0.66122853125E+02  0.10481493002E+03  0.47000000000E+01 0.  1.
         11    1    6    6    0    0 -0.46191400800E+02  0.41700166272E+02  0.68042698574E+02  0.92208232844E+02  0.00000000000E+00 0. -1.
        -12    1    6    6    0    0 -0.47676648182E+02 -0.38717239020E+02  0.74615234127E+02  0.96641194855E+02  0.00000000000E+00 0.  1.
</event>
<event>
12    1  0.1597826E-001  0.2269551E+03  0.7818608E-02  0.1129889E+00
         21   -1    0    0  501  502  0.00000000000E+00  0.00000000000E+00  0.18920160829E+03  0.18920160829E+03  0.00000000000E+00 0.  1.
         21   -1    0    0  502  503 -0.00000000000E+00 -0.00000000000E+00 -0.30918229914E+03  0.30918229914E+03  0.00000000000E+00 0. -1.
         -6    2    1    2    0  503  0.39509995897E+02  0.13289291509E+03 -0.15475926722E+03  0.27469812764E+03  0.17968601471E+03 0.  0.
        -24    2    3    3    0    0 -0.21182226896E+01  0.12635713426E+03 -0.17238740412E+03  0.22878008953E+03  0.81561633264E+02 0.  0.
          6    2    1    2  501    0 -0.39509995897E+02 -0.13289291509E+03  0.34778576372E+02  0.22368577980E+03  0.17205874593E+03 0.  0.
         24    2    5    5    0    0  0.23909393926E+02 -0.54205227461E+02  0.66083726258E+02  0.11778075820E+03  0.77429854218E+02 0.  0.
          5    1    5    5  501    0 -0.63419389823E+02 -0.78687687625E+02 -0.31305149887E+02  0.10590502159E+03  0.47000000000E+01 0. -1.
        -13    1    6    6    0    0 -0.23025684146E+02 -0.27779117361E+02  0.51396884111E+01  0.36445546898E+02  0.00000000000E+00 0.  1.
         14    1    6    6    0    0  0.46935078072E+02 -0.26426110101E+02  0.60944037847E+02  0.81335211303E+02  0.00000000000E+00 0. -1.
         -5    1    3    3    0  503  0.41628218587E+02  0.65357808233E+01  0.17628136893E+02  0.45918038112E+02  0.47000000000E+01 0.  1.
         11    1    4    4    0    0  0.36244772123E+02  0.50292711316E+02 -0.49902624228E+02  0.79582109941E+02  0.00000000000E+00 0. -1.
        -12    1    4    4    0    0 -0.38362994812E+02  0.76064422947E+02 -0.12248477989E+03  0.14919797959E+03  0.00000000000E+00 0.  1.
</event>
<event>
12    1  0.1597826E-001  0.2794029E+03  0.7818608E-02  0.1096237E+00
         21   -1    0    0  503  502  0.00000000000E+00  0.00000000000E+00  0.46647023650E+02  0.46647023650E+02  0.00000000000E+00 0. -1.
         21   -1    0    0  501  503 -0.00000000000E+00 -0.00000000000E+00 -0.16974332203E+04  0.16974332203E+04  0.00000000000E+00 0.  1.
          6    2    1    2  501    0 -0.15555779982E+03 -0.15407363008E+03 -0.70047046511E+03  0.75354203087E+03  0.17096726946E+03 0.  0.
         24    2    3    3    0    0 -0.95273632351E+02 -0.17363469207E+03 -0.57519584687E+03  0.61306912968E+03  0.76009369145E+02 0.  0.
         -6    2    1    2    0  502  0.15555779982E+03  0.15407363008E+03 -0.95031573151E+03  0.99053821305E+03  0.17357721446E+03 0.  0.
        -24    2    5    5    0    0  0.11052605210E+03  0.20608537406E+02 -0.50783543724E+03  0.52615508449E+03  0.79382753908E+02 0.  0.
          5    1    3    3  501    0 -0.60284167472E+02  0.19561061991E+02 -0.12527461824E+03  0.14047290119E+03  0.47000000000E+01 0. -1.
        -13    1    4    4    0    0 -0.68369274267E+02 -0.11016779944E+03 -0.46794252237E+03  0.48557337853E+03  0.00000000000E+00 0.  1.
         14    1    4    4    0    0 -0.26904358084E+02 -0.63466892636E+02 -0.10725332450E+03  0.12749575115E+03  0.00000000000E+00 0. -1.
         -5    1    5    5    0  502  0.45031747725E+02  0.13346509268E+03 -0.44248029427E+03  0.46438312856E+03  0.47000000000E+01 0.  1.
         11    1    6    6    0    0  0.12650810573E+02 -0.69134422562E+01 -0.88486000828E+01  0.16915567251E+02  0.00000000000E+00 0. -1.
        -12    1    6    6    0    0  0.97875241524E+02  0.27521979662E+02 -0.49898683716E+03  0.50923951724E+03  0.00000000000E+00 0.  1.
</event>
<event>
12    1  0.1597826E-001  0.2249333E+03  0.7818608E-02  0.1130387E+00
         21   -1    0    0  503  502  0.00000000000E+00  0.00000000000E+00  0.41816655348E+03  0.41816655348E+03  0.00000000000E+00 0. -1.
         21   -1    0    0  501  503 -0.00000000000E+00 -0.00000000000E+00 -0.13169980584E+03  0.13169980584E+03  0.00000000000E+00 0.  1.
          6    2    1    2  501    0  0.16151236972E+02 -0.14244646026E+03  0.63240674420E+02  0.23296750580E+03  0.17240249233E+03 0.  0.
         24    2    3    3    0    0  0.22171159317E+02 -0.14259136356E+03 -0.39332786344E+01  0.16536062427E+03  0.80652390600E+02 0.  0.
         -6    2    1    2    0  502 -0.16151236972E+02  0.14244646026E+03  0.22322607322E+03  0.31689885351E+03  0.17332959094E+03 0.  0.
        -24    2    5    5    0    0  0.17535418669E+02  0.16213967483E+03  0.15341171867E+03  0.23678176689E+03  0.77030413756E+02 0.  0.
          5    1    3    3  501    0 -0.60199223444E+01  0.14490330173E+00  0.67173953054E+02  0.67606881535E+02  0.47000000000E+01 0. -1.
        -13    1    4    4    0    0 -0.38572162606E+01  0.84048998139E+01 -0.77861003627E+01  0.12088995699E+02  0.00000000000E+00 0.  1.
         14    1    4    4    0    0  0.26028375577E+02 -0.15099626338E+03  0.38528217282E+01  0.15327162857E+03  0.00000000000E+00 0. -1.
         -5    1    5    5    0  502 -0.33686655642E+02 -0.19693214570E+02  0.69814354544E+02  0.80117086622E+02  0.47000000000E+01 0.  1.
         13    1    6    6    0    0 -0.39675600889E+01  0.14533934609E+02  0.57505778528E+02  0.59446541972E+02  0.00000000000E+00 0. -1.
        -14    1    6    6    0    0  0.21502978758E+02  0.14760574022E+03  0.95905940144E+02  0.17733522492E+03  0.00000000000E+00 0.  1.
</event>
<event>
12    1  0.1597826E-001  0.1934258E+03  0.7818608E-02  0.1155434E+00
         21   -1    0    0  501  502  0.00000000000E+00  0.00000000000E+00  0.45184935082E+02  0.45184935082E+02  0.00000000000E+00 0. -1.
         21   -1    0    0  502  503 -0.00000000000E+00 -0.00000000000E+00 -0.12683215861E+04  0.12683215861E+04  0.00000000000E+00 0. -1.
         -6    2    1    2    0  503  0.28235530003E+02  0.83689754041E+02 -0.99863211329E+03  0.10171691424E+04  0.17194692916E+03 0.  0.
        -24    2    3    3    0    0 -0.49603680939E+02  0.35968915679E+02 -0.56810965967E+03  0.57704655237E+03  0.80497516316E+02 0.  0.
          6    2    1    2  501    0 -0.28235530003E+02 -0.83689754041E+02 -0.22450453769E+03  0.29633737876E+03  0.17208234807E+03 0.  0.
         24    2    5    5    0    0 -0.81151560614E+01  0.22434359482E+00 -0.18462351714E+03  0.20115864673E+03  0.79454716579E+02 0.  0.
          5    1    5    5  501    0 -0.20120373941E+02 -0.83914097635E+02 -0.39881020553E+02  0.95178732025E+02  0.47000000000E+01 0. -1.
        -11    1    6    6    0    0 -0.34532880919E+02 -0.23342632332E+02 -0.12556131150E+03  0.13229906007E+03  0.00000000000E+00 0.  1.
         12    1    6    6    0    0  0.26417724857E+02  0.23566975927E+02 -0.59062205639E+02  0.68859586666E+02  0.00000000000E+00 0. -1.
         -5    1    3    3    0  503  0.77839210941E+02  0.47720838362E+02 -0.43052245362E+03  0.44012259001E+03  0.47000000000E+01 0.  1.
         13    1    4    4    0    0 -0.10966511487E+02  0.37370186121E+02 -0.46974064618E+03  0.47135238396E+03  0.00000000000E+00 0. -1.
        -14    1    4    4    0    0 -0.38637169452E+02 -0.14012704423E+01 -0.98369013490E+02  0.10569416842E+03  0.00000000000E+00 0.  1.
</event>
<event>
12    1  0.1597826E-001  0.2094835E+03  0.7818608E-02  0.1142487E+00
         21   -1    0    0  501  502  0.00000000000E+00  0.00000000000E+00  0.46354927392E+03  0.46354927392E+03  0.00000000000E+00 0.  1.
         21   -1    0    0  502  503 -0.00000000000E+00 -0.00000000000E+00 -0.96524971032E+02  0.96524971032E+02  0.00000000000E+00 0. -1.
         -6    2    1    2    0  503 -0.96649598395E+02 -0.64344788449E+02  0.23404773566E+03  0.31410457116E+03  0.17436152781E+03 0.  0.
        -24    2    3    3    0    0  0.69991246480E+01 -0.52203077781E+02  0.67821839499E+02  0.11777928628E+03  0.80610230662E+02 0.  0.
          6    2    1    2  501    0  0.96649598395E+02  0.64344788449E+02  0.13297656722E+03  0.24596967379E+03  0.17128022748E+03 0.  0.
         24    2    5    5    0    0  0.13260000680E+02  0.40753531763E+02  0.13074575225E+03  0.15915124871E+03  0.79987438166E+02 0.  0.
          5    1    5    5  501    0  0.83389597715E+02  0.23591256685E+02  0.22308149711E+01  0.86818425086E+02  0.47000000000E+01 0. -1.
        -13    1    6    6    0    0  0.20887540554E+02 -0.14429868548E+02  0.79509266236E+02  0.83463967520E+02  0.00000000000E+00 0.  1.
         14    1    6    6    0    0 -0.76275398738E+01  0.55183400311E+02  0.51236486012E+02  0.75687281186E+02  0.00000000000E+00 0. -1.
         -5    1    3    3    0  503 -0.10364872304E+03 -0.12141710668E+02  0.16622589617E+03  0.19632528488E+03  0.47000000000E+01 0.  1.
         13    1    4    4    0    0 -0.19630807128E+02  0.34733142500E+01 -0.66887126291E+01  0.21027871433E+02  0.00000000000E+00 0. -1.
        -14    1    4    4    0    0  0.26629931776E+02 -0.55676392031E+02  0.74510552128E+02  0.96751414844E+02  0.00000000000E+00 0.  1.
</event>
<event>
12    1  0.1597826E-001  0.1905076E+03  0.7818608E-02  0.1158599E+00
         21   -1    0    0  501  502  0.00000000000E+00  0.00000000000E+00  0.12006918314E+04  0.12006918314E+04  0.00000000000E+00 0.  1.
         21   -1    0    0  502  503 -0.00000000000E+00 -0.00000000000E+00 -0.12407189775E+03  0.12407189775E+03  0.00000000000E+00 0.  1.
         -6    2    1    2    0  503  0.28331664491E+02 -0.70514813533E+02 -0.38135097301E+02  0.19428700780E+03  0.17469440063E+03 0.  0.
        -24    2    3    3    0    0  0.15849953955E+02 -0.23095626198E+02  0.54173584038E+02  0.89657398813E+02  0.65719426082E+02 0.  0.
          6    2    1    2  501    0 -0.28331664491E+02  0.70514813533E+02  0.11147550309E+04  0.11304767213E+04  0.17182495846E+03 0.  0.
         24    2    5    5    0    0 -0.30316558435E+02  0.62879416818E+02  0.11161472468E+04  0.11211886994E+04  0.80040666181E+02 0.  0.
          5    1    5    5  501    0  0.19848939441E+01  0.76353967149E+01 -0.13922158842E+01  0.92880219655E+01  0.47000000000E+01 0. -1.
        -13    1    6    6    0    0 -0.47721990217E+02  0.59926092653E+02  0.61816895605E+03  0.62289757036E+03  0.00000000000E+00 0.  1.
         14    1    6    6    0    0  0.17405431782E+02  0.29533241656E+01  0.49797829076E+03  0.49829112901E+03  0.00000000000E+00 0. -1.
         -5    1    3    3    0  503  0.12481710536E+02 -0.47419187335E+02 -0.92308681340E+02  0.10462960898E+03  0.47000000000E+01 0.  1.
         11    1    4    4    0    0  0.32989898871E+02  0.96320381890E+01  0.28796880445E+02  0.44837148778E+02  0.00000000000E+00 0. -1.
        -12    1    4    4    0    0 -0.17139944916E+02 -0.32727664387E+02  0.25376703593E+02  0.44820250035E+02  0.00000000000E+00 0.  1.
</event>
<event>
12    1  0.1597826E-001  0.1739587E+03  0.7818608E-02  0.1177524E+00
         21   -1    0    0  501  502  0.00000000000E+00  0.00000000000E+00  0.28433472435E+03  0.28433472435E+03  0.00000000000E+00 0.  1.
         21   -1    0    0  502  503 -0.00000000000E+00 -0.00000000000E+00 -0.14384632730E+03  0.14384632730E+03  0.00000000000E+00 0.  1.
         -6    2    1    2    0  503  0.25412693251E+02  0.22581951505E+02 -0.48579771062E+02  0.18061455078E+03  0.17060443219E+03 0.  0.
        -24    2    3    3    0    0 -0.41154556110E+02  0.12159688844E+02  0.12407696094E+02  0.89612444228E+02  0.77684514008E+02 0.  0.
          6    2    1    2  501    0 -0.25412693251E+02 -0.22581951505E+02  0.18906816812E+03  0.24756650088E+03  0.15616225744E+03 0.  0.
         24    2    5    5    0    0 -0.71276640077E+02 -0.48364785586E+01  0.15232300076E+03  0.18599783390E+03  0.79304140568E+02 0.  0.
          5    1    5    5  501    0  0.45863946826E+02 -0.17745472946E+02  0.36745167362E+02  0.61568666974E+02  0.47000000000E+01 0. -1.
        -11    1    6    6    0    0 -0.47613714745E+02 -0.38096878116E+02  0.11734116955E+03  0.13223988818E+03  0.00000000000E+00 0.  1.
         12    1    6    6    0    0 -0.23662925332E+02  0.33260399557E+02  0.34981831209E+02  0.53757945726E+02  0.00000000000E+00 0. -1.
         -5    1    3    3    0  503  0.66567249361E+02  0.10422262661E+02 -0.60987467156E+02  0.91002106550E+02  0.47000000000E+01 0.  1.
         11    1    4    4    0    0 -0.35492849795E+02  0.42467217888E+02  0.18158400347E+02  0.58248901147E+02  0.00000000000E+00 0. -1.
        -12    1    4    4    0    0 -0.56617063154E+01 -0.30307529044E+02 -0.57507042530E+01  0.31363543080E+02  0.00000000000E+00 0.  1.
</event>
<event>
12    1  0.1597826E-001  0.2049072E+03  0.7818608E-02  0.1146275E+00
         21   -1    0    0  501  502  0.00000000000E+00  0.00000000000E+00  0.40488809934E+02  0.40488809934E+02  0.00000000000E+00 0. -1.
         21   -1    0    0  502  503 -0.00000000000E+00 -0.00000000000E+00 -0.13582325261E+04  0.13582325261E+04  0.00000000000E+00 0. -1.
         -6    2    1    2    0  503 -0.86513249304E+02  0.60939684694E+02 -0.30732009833E+03  0.36773014173E+03  0.17199310109E+03 0.  0.
        -24    2    3    3    0    0 -0.74615893497E+02  0.65366266027E+02 -0.32192828236E+03  0.34781455140E+03  0.86584426350E+02 0.  0.
          6    2    1    2  501    0  0.86513249304E+02 -0.60939684694E+02 -0.10104236178E+04  0.10309911943E+04  0.17546728407E+03 0.  0.
         24    2    5    5    0    0  0.10156944287E+03  0.12384772197E+02 -0.63657088020E+03  0.64968931340E+03  0.80024896894E+02 0.  0.
          5    1    5    5  501    0 -0.15056193567E+02 -0.73324456891E+02 -0.37385273759E+03  0.38130188086E+03  0.47000000000E+01 0. -1.
        -13    1    6    6    0    0 -0.23472892172E+01  0.18970509971E+02 -0.19829611049E+03  0.19921530426E+03  0.00000000000E+00 0.  1.
         14    1    6    6    0    0  0.10391673209E+03 -0.65857377743E+01 -0.43827476971E+03  0.45047400914E+03  0.00000000000E+00 0. -1.
         -5    1    3    3    0  503 -0.11897355807E+02 -0.44265813332E+01  0.14608184028E+02  0.19915590328E+02  0.47000000000E+01 0.  1.
         13    1    4    4    0    0 -0.61615398825E+02  0.64069227627E+01 -0.22710019356E+03  0.23539754448E+03  0.00000000000E+00 0. -1.
        -14    1    4    4    0    0 -0.13000494671E+02  0.58959343265E+02 -0.94828088802E+02  0.11241700692E+03  0.00000000000E+00 0.  1.
</event>
<event>
12    1  0.1597826E-001  0.2332677E+03  0.7818608E-02  0.1124417E+00
         21   -1    0    0  501  502  0.00000000000E+00  0.00000000000E+00  0.50052527868E+03  0.50052527868E+03  0.00000000000E+00 0. -1.
         21   -1    0    0  502  503 -0.00000000000E+00 -0.00000000000E+00 -0.10908699398E+03  0.10908699398E+03  0.00000000000E+00 0.  1.
         -6    2    1    2    0  503 -0.38628298916E+02  0.15331189627E+03  0.21702442524E+03  0.31861173041E+03  0.17151428684E+03 0.  0.
        -24    2    3    3    0    0  0.35845839290E+01  0.32781205088E+02  0.33286815395E+02  0.94801153658E+02  0.82412317081E+02 0.  0.
          6    2    1    2  501    0  0.38628298916E+02 -0.15331189627E+03  0.17441385946E+03  0.29100054225E+03  0.17106851902E+03 0.  0.
         24    2    5    5    0    0  0.47863737872E+02 -0.11131624476E+03  0.41878135846E+02  0.15158484689E+03  0.80882283563E+02 0.  0.
          5    1    5    5  501    0 -0.92354389564E+01 -0.41995651514E+02  0.13253572361E+03  0.13941569536E+03  0.47000000000E+01 0. -1.
        -11    1    6    6    0    0  0.32122214640E+02 -0.12194923881E+03  0.31692804612E+02  0.13003033255E+03  0.00000000000E+00 0.  1.
         12    1    6    6    0    0  0.15741523232E+02  0.10632994047E+02  0.10185331234E+02  0.21554514340E+02  0.00000000000E+00 0. -1.
         -5    1    3    3    0  503 -0.42212882845E+02  0.12053069118E+03  0.18373760985E+03  0.22381057676E+03  0.47000000000E+01 0.  1.
         11    1    4    4    0    0  0.92353991638E+01 -0.23559733008E+02  0.28291882220E+02  0.37957663478E+02  0.00000000000E+00 0. -1.
        -12    1    4    4    0    0 -0.56508152348E+01  0.56340938097E+02  0.49949331749E+01  0.56843490180E+02  0.00000000000E+00 0.  1.
</event>
<event>
12    1  0.1597826E-001  0.3317674E+03  0.7818608E-02  0.1070374E+00
         21   -1    0    0  501  502  0.00000000000E+00  0.00000000000E+00  0.11295640225E+04  0.11295640225E+04  0.00000000000E+00 0. -1.
         21   -1    0    0  502  503 -0.00000000000E+00 -0.00000000000E+00 -0.26956726694E+03  0.26956726694E+03  0.00000000000E+00 0.  1.
         -6    2    1    2    0  503 -0.91050141652E+02 -0.26869012615E+03 -0.12911376779E+03  0.35586274106E+03  0.17170734771E+03 0.  0.
        -24    2    3    3    0    0 -0.12097431374E+03 -0.17839581616E+03 -0.60065084231E+02  0.23822631306E+03  0.81756406974E+02 0.  0.
          6    2    1    2  501    0  0.91050141652E+02  0.26869012615E+03  0.98911052338E+03  0.10432685484E+04  0.17200326867E+03 0.  0.
         24    2    5    5    0    0  0.55927908567E+02  0.15399465755E+03  0.79041194989E+03  0.81112239857E+03  0.79537471804E+02 0.  0.
          5    1    5    5  501    0  0.35122233085E+02  0.11469546860E+03  0.19869857349E+03  0.23214614983E+03  0.47000000000E+01 0. -1.
        -13    1    6    6    0    0  0.14911481269E+02 -0.28038278059E+01  0.14005528188E+03  0.14087475184E+03  0.00000000000E+00 0.  1.
         14    1    6    6    0    0  0.41016427297E+02  0.15679848536E+03  0.65035666801E+03  0.67024764672E+03  0.00000000000E+00 0. -1.
         -5    1    3    3    0  503  0.29924172090E+02 -0.90294309989E+02 -0.69048683560E+02  0.11763642800E+03  0.47000000000E+01 0.  1.
         13    1    4    4    0    0  0.11339612335E+02 -0.19368237692E+02  0.11875313020E+01  0.22475000996E+02  0.00000000000E+00 0. -1.
        -14    1    4    4    0    0 -0.13231392608E+03 -0.15902757847E+03 -0.61252615533E+02  0.21575131206E+03  0.00000000000E+00 0.  1.
</event>
<event>
12    1  0.1597826E-001  0.1780768E+03  0.7818608E-02  0.1169829E+00
         21   -1    0    0  501  502  0.00000000000E+00  0.00000000000E+00  0.49072666146E+03  0.49072666146E+03  0.00000000000E+00 0. -1.
         21   -1    0    0  502  503 -0.00000000000E+00 -0.00000000000E+00 -0.35221399718E+03  0.35221399718E+03  0.00000000000E+00 0. -1.
         -6    2    1    2    0  503 -0.41015280127E+02 -0.22499065974E+02 -0.31176227530E+03  0.35873111985E+03  0.17118364081E+03 0.  0.
        -24    2    3    3    0    0  0.10998010550E+02 -0.19129304838E+02 -0.29043829235E+03  0.30221970556E+03  0.80594430464E+02 0.  0.
          6    2    1    2  501    0  0.41015280127E+02  0.22499065974E+02  0.45027493957E+03  0.48420953879E+03  0.17182227757E+03 0.  0.
         24    2    5    5    0    0  0.30681292123E+02 -0.14550282737E+02  0.95793635849E+02  0.12761659124E+03  0.77178502684E+02 0.  0.
          5    1    5    5  501    0  0.10333988004E+02  0.37049348710E+02  0.35448130373E+03  0.35659294754E+03  0.47000000000E+01 0. -1.
        -11    1    6    6    0    0  0.54534830980E+02 -0.20493017774E+02  0.55787870861E+02  0.80661627201E+02  0.00000000000E+00 0.  1.
         12    1    6    6    0    0 -0.23853538856E+02  0.59427350374E+01  0.40005764988E+02  0.46954964040E+02  0.00000000000E+00 0. -1.
         -5    1    3    3    0  503 -0.52013290678E+02 -0.33697611362E+01 -0.21323982941E+02  0.56511414296E+02  0.47000000000E+01 0.  1.
         13    1    4    4    0    0 -0.27565417736E+02  0.12499548408E+02 -0.70951954987E+02  0.77137998949E+02  0.00000000000E+00 0. -1.
        -14    1    4    4    0    0  0.38563428286E+02 -0.31628853245E+02 -0.21948633737E+03  0.22508170661E+03  0.00000000000E+00 0.  1.
</event>
<event>
12    1  0.1597826E-001  0.1840310E+03  0.7818608E-02  0.1164571E+00
         21   -1    0    0  503  502  0.00000000000E+00  0.00000000000E+00  0.33904710633E+03  0.33904710633E+03  0.00000000000E+00 0. -1.
         21   -1    0    0  501  503 -0.00000000000E+00 -0.00000000000E+00 -0.14337130687E+03  0.14337130687E+03  0.00000000000E+00 0.  1.
          6    2    1    2  501    0 -0.52640480033E+02 -0.35278860692E+02 -0.36640735328E+02  0.18764317801E+03  0.17277673633E+03 0.  0.
         24    2    3    3    0    0  0.18318405084E+02 -0.58638640229E+02 -0.52781410059E+02  0.11106998389E+03  0.76004012923E+02 0.  0.
         -6    2    1    2    0  502  0.52640480033E+02  0.35278860692E+02  0.23231653479E+03  0.29477523519E+03  0.17001720148E+03 0.  0.
        -24    2    5    5    0    0  0.42498571165E+02  0.63883864702E+02  0.60663810240E+02  0.12039676057E+03  0.70199753287E+02 0.  0.
          5    1    3    3  501    0 -0.70958885117E+02  0.23359779537E+02  0.16140674731E+02  0.76573194121E+02  0.47000000000E+01 0. -1.
        -13    1    4    4    0    0 -0.19382130852E+02 -0.26985428489E+02  0.66659431876E+01  0.33886798988E+02  0.00000000000E+00 0.  1.
         14    1    4    4    0    0  0.37700535936E+02 -0.31653211741E+02 -0.59447353246E+02  0.77183184900E+02  0.00000000000E+00 0. -1.
         -5    1    5    5    0  502  0.10141908868E+02 -0.28605004009E+02  0.17165272455E+03  0.17437847463E+03  0.47000000000E+01 0.  1.
         13    1    6    6    0    0  0.44303676991E+02  0.43674024839E+02  0.73571855505E+02  0.96348607479E+02  0.00000000000E+00 0. -1.
        -14    1    6    6    0    0 -0.18051058262E+01  0.20209839862E+02 -0.12908045266E+02  0.24048153087E+02  0.00000000000E+00 0.  1.
</event>
<event>
12    1  0.1597826E-001  0.1791387E+03  0.7818608E-02  0.1169239E+00
         21   -1    0    0  501  502  0.00000000000E+00  0.00000000000E+00  0.37532979939E+03  0.37532979939E+03  0.00000000000E+00 0.  1.
         21   -1    0    0  502  503 -0.00000000000E+00 -0.00000000000E+00 -0.11194870376E+03  0.11194870376E+03  0.00000000000E+00 0.  1.
         -6    2    1    2    0  503 -0.15294867831E+02 -0.42558848131E+02  0.11375371665E+02  0.17949954529E+03  0.17333637570E+03 0.  0.
        -24    2    3    3    0    0 -0.17362319388E+02  0.51667471672E+01  0.65910656771E+02  0.10684836413E+03  0.82123156476E+02 0.  0.
          6    2    1    2  501    0  0.15294867831E+02  0.42558848131E+02  0.25200572397E+03  0.30777895786E+03  0.17080928971E+03 0.  0.
         24    2    5    5    0    0  0.30801338462E+02  0.33294599669E+01  0.25041553377E+03  0.26530526916E+03  0.81970351557E+02 0.  0.
          5    1    5    5  501    0 -0.15506470630E+02  0.39229388164E+02  0.15901902022E+01  0.42473688703E+02  0.47000000000E+01 0. -1.
        -11    1    6    6    0    0  0.29144552672E+02  0.18262375599E+02  0.33978107337E+02  0.48346986371E+02  0.00000000000E+00 0.  1.
         12    1    6    6    0    0  0.16567857901E+01 -0.14932915632E+02  0.21643742643E+03  0.21695828279E+03  0.00000000000E+00 0. -1.
         -5    1    3    3    0  503  0.20674515566E+01 -0.47725595299E+02 -0.54535285106E+02  0.72651181161E+02  0.47000000000E+01 0.  1.
         11    1    4    4    0    0  0.14117448194E+01  0.40950236363E+02  0.19708880083E+02  0.45468173877E+02  0.00000000000E+00 0. -1.
        -12    1    4    4    0    0 -0.18774064207E+02 -0.35783489196E+02  0.46201776688E+02  0.61380190249E+02  0.00000000000E+00 0.  1.
</event>
<event>
12    1  0.1597826E-001  0.1917880E+03  0.7818608E-02  0.1157089E+00
         21   -1    0    0  501  502  0.00000000000E+00  0.00000000000E+00  0.15576527743E+03  0.15576527743E+03  0.00000000000E+00 0. -1.
         21   -1    0    0  502  503 -0.00000000000E+00 -0.00000000000E+00 -0.28240579758E+03  0.28240579758E+03  0.00000000000E+00 0. -1.
         -6    2    1    2    0  503  0.53143273756E+02  0.64694746675E+02 -0.15334590385E+03  0.24555573915E+03  0.17254865113E+03 0.  0.
        -24    2    3    3    0    0  0.63521268049E+02  0.91845455898E+02 -0.73247167455E+02  0.16021664289E+03  0.88508111807E+02 0.  0.
          6    2    1    2  501    0 -0.53143273756E+02 -0.64694746675E+02  0.26705383707E+02  0.19261533586E+03  0.17139974415E+03 0.  0.
         24    2    5    5    0    0 -0.73818181688E+02 -0.49564249458E+02  0.72803444541E+02  0.13966720108E+03  0.79377873161E+02 0.  0.
          5    1    5    5  501    0  0.20674907933E+02 -0.15130497217E+02 -0.46098060835E+02  0.52948134781E+02  0.47000000000E+01 0. -1.
        -13    1    6    6    0    0 -0.17105002152E+02 -0.17674303615E+02 -0.16174904548E+02  0.29437894695E+02  0.00000000000E+00 0.  1.
         14    1    6    6    0    0 -0.56713179537E+02 -0.31889945843E+02  0.88978349090E+02  0.11022930638E+03  0.00000000000E+00 0. -1.
         -5    1    3    3    0  503 -0.10377994293E+02 -0.27150709222E+02 -0.80098736399E+02  0.85339096254E+02  0.47000000000E+01 0.  1.
         11    1    4    4    0    0  0.62677517420E+02  0.15224585225E+02 -0.22506210029E+02  0.68313898110E+02  0.00000000000E+00 0. -1.
        -12    1    4    4    0    0  0.84375062897E+00  0.76620870673E+02 -0.50740957426E+02  0.91902744781E+02  0.00000000000E+00 0.  1.
</event>
<event>
12    1  0.1597826E-001  0.2027158E+03  0.7818608E-02  0.1147583E+00
         21   -1    0    0  501  502  0.00000000000E+00  0.00000000000E+00  0.29567053426E+02  0.29567053426E+02  0.00000000000E+00 0.  1.
         21   -1    0    0  502  503 -0.00000000000E+00 -0.00000000000E+00 -0.16523371803E+04  0.16523371803E+04  0.00000000000E+00 0.  1.
         -6    2    1    2    0  503  0.26118335720E+02 -0.10184271237E+03 -0.11480484353E+04  0.11657120573E+04  0.17267103163E+03 0.  0.
        -24    2    3    3    0    0  0.15474511562E+02 -0.65245748527E+02 -0.29752412811E+03  0.31432124462E+03  0.76031373807E+02 0.  0.
          6    2    1    2  501    0 -0.26118335720E+02  0.10184271237E+03 -0.47472169156E+03  0.51619217643E+03  0.17331928067E+03 0.  0.
         24    2    5    5    0    0 -0.51645363812E+02  0.12656827341E+03 -0.31425160095E+03  0.35176674497E+03  0.79366256869E+02 0.  0.
          5    1    5    5  501    0  0.25527028092E+02 -0.24725561042E+02 -0.16047009061E+03  0.16442543147E+03  0.47000000000E+01 0. -1.
        -11    1    6    6    0    0 -0.25046503749E+02 -0.35142379755E+01 -0.49497715836E+02  0.55585079757E+02  0.00000000000E+00 0.  1.
         12    1    6    6    0    0 -0.26598860063E+02  0.13008251139E+03 -0.26475388511E+03  0.29618166521E+03  0.00000000000E+00 0. -1.
         -5    1    3    3    0  503  0.10643824158E+02 -0.36596963842E+02 -0.85052430721E+03  0.85139081268E+03  0.47000000000E+01 0.  1.
         11    1    4    4    0    0  0.25917092846E+02 -0.78911356754E+02 -0.26204609048E+03  0.27489425506E+03  0.00000000000E+00 0. -1.
        -12    1    4    4    0    0 -0.10442581284E+02  0.13665608227E+02 -0.35478037624E+02  0.39426989559E+02  0.00000000000E+00 0.  1.
</event>
<event>
12    1  0.1597826E-001  0.2028161E+03  0.7818608E-02  0.1148111E+00
         21   -1    0    0  501  502  0.00000000000E+00  0.00000000000E+00  0.17136197874E+04  0.17136197874E+04  0.00000000000E+00 0. -1.
         21   -1    0    0  502  503 -0.00000000000E+00 -0.00000000000E+00 -0.40613283534E+02  0.40613283534E+02  0.00000000000E+00 0. -1.
         -6    2    1    2    0  503 -0.46943635277E+02 -0.91292272522E+02  0.26453699079E+03  0.33123598018E+03  0.17087852748E+03 0.  0.
        -24    2    3    3    0    0 -0.20989779647E+02 -0.12914728465E+03  0.20706514415E+03  0.25753585995E+03  0.79555975614E+02 0.  0.
          6    2    1    2  501    0  0.46943635277E+02  0.91292272522E+02  0.14084695131E+04  0.14229970908E+04  0.17491817265E+03 0.  0.
         24    2    5    5    0    0 -0.38219855984E+00  0.63325859033E+02  0.38721543720E+03  0.40025380316E+03  0.79101211366E+02 0.  0.
          5    1    5    5  501    0  0.47325833837E+02  0.27966413490E+02  0.10212540759E+04  0.10227432876E+04  0.47000000000E+01 0. -1.
        -13    1    6    6    0    0  0.16373243366E+02 -0.13921660101E+01  0.15548818913E+02  0.22622709698E+02  0.00000000000E+00 0.  1.
         14    1    6    6    0    0 -0.16755441925E+02  0.64718025043E+02  0.37166661828E+03  0.37763109346E+03  0.00000000000E+00 0. -1.
         -5    1    3    3    0  503 -0.25953855630E+02  0.37855012130E+02  0.57471846644E+02  0.73700120231E+02  0.47000000000E+01 0.  1.
         11    1    4    4    0    0 -0.14904741171E+02 -0.33498152244E+02  0.93842952429E+01  0.37846301144E+02  0.00000000000E+00 0. -1.
        -12    1    4    4    0    0 -0.60850384759E+01 -0.95649132408E+02  0.19768084891E+03  0.21968955881E+03  0.00000000000E+00 0.  1.
</event>
<event>
12    1  0.1597826E-001  0.1943185E+03  0.7818608E-02  0.1154630E+00
         21   -1    0    0  503  502  0.00000000000E+00  0.00000000000E+00  0.25612280906E+03  0.25612280906E+03  0.00000000000E+00 0.  1.
         21   -1    0    0  501  503 -0.00000000000E+00 -0.00000000000E+00 -0.30460973573E+03  0.30460973573E+03  0.00000000000E+00 0.  1.
          6    2    1    2  501    0  0.72742169765E+02  0.55259858270E+02 -0.22565891190E+03  0.29779462114E+03  0.17150689975E+03 0.  0.
         24    2    3    3    0    0 -0.20862914241E+02 -0.43943463114E+01 -0.10990800921E+03  0.13735492110E+03  0.79574068588E+02 0.  0.
         -6    2    1    2    0  502 -0.72742169765E+02 -0.55259858270E+02  0.17717198523E+03  0.26293792364E+03  0.17146825987E+03 0.  0.
        -24    2    5    5    0    0 -0.51661072746E+02 -0.76686561871E+02  0.71411729498E+02  0.15288867117E+03  0.98618535034E+02 0.  0.
          5    1    3    3  501    0  0.93605084005E+02  0.59654204582E+02 -0.11575090269E+03  0.16043970004E+03  0.47000000000E+01 0. -1.
        -13    1    4    4    0    0 -0.37376427864E+02  0.26645211689E+02 -0.49863924001E+02  0.67774446384E+02  0.00000000000E+00 0.  1.
         14    1    4    4    0    0  0.16513513624E+02 -0.31039558001E+02 -0.60044085208E+02  0.69580474714E+02  0.00000000000E+00 0. -1.
         -5    1    5    5    0  502 -0.21081097018E+02  0.21426703600E+02  0.10576025573E+03  0.11004925248E+03  0.47000000000E+01 0.  1.
         13    1    6    6    0    0 -0.83667467322E+01  0.23967384452E+02  0.10018942171E+02  0.27291338746E+02  0.00000000000E+00 0. -1.
        -14    1    6    6    0    0 -0.43294326014E+02 -0.10065394632E+03  0.61392787327E+02  0.12559733242E+03  0.00000000000E+00 0.  1.
</event>
<event>
12    1  0.1597826E-001  0.2014594E+03  0.7818608E-02  0.1148807E+00
         21   -1    0    0  501  502  0.00000000000E+00  0.00000000000E+00  0.38727640657E+03  0.38727640657E+03  0.00000000000E+00 0.  1.
         21   -1    0    0  502  503 -0.00000000000E+00 -0.00000000000E+00 -0.10663392109E+03  0.10663392109E+03  0.00000000000E+00 0.  1.
         -6    2    1    2    0  503  0.87441698839E+02 -0.53238775079E+02  0.10251656979E+03  0.22604322074E+03  0.17350928706E+03 0.  0.
        -24    2    3    3    0    0 -0.18503616911E+02 -0.37891913549E+01  0.57111189591E+02  0.10053063249E+03  0.80547987448E+02 0.  0.
          6    2    1    2  501    0 -0.87441698839E+02  0.53238775079E+02  0.17812591569E+03  0.26786710691E+03  0.17188230642E+03 0.  0.
         24    2    5    5    0    0 -0.62052351124E+02  0.24748261295E+02  0.19862205367E+03  0.22429521201E+03  0.79966563091E+02 0.  0.
          5    1    5    5  501    0 -0.25389347715E+02  0.28490513784E+02 -0.20496137981E+02  0.43571894900E+02  0.47000000000E+01 0. -1.
        -13    1    6    6    0    0 -0.54258582135E+02  0.46166517686E+02  0.18375762915E+03  0.19708426462E+03  0.00000000000E+00 0.  1.
         14    1    6    6    0    0 -0.77937689895E+01 -0.21418256390E+02  0.14864424519E+02  0.27210947395E+02  0.00000000000E+00 0. -1.
         -5    1    3    3    0  503  0.10594531575E+03 -0.49449583724E+02  0.45405380198E+02  0.12551258826E+03  0.47000000000E+01 0.  1.
         13    1    4    4    0    0 -0.11761167399E+02  0.18896926857E+01  0.77451521578E+02  0.78362198743E+02  0.00000000000E+00 0. -1.
        -14    1    4    4    0    0 -0.67424495125E+01 -0.56788840406E+01 -0.20340331987E+02  0.22168433745E+02  0.00000000000E+00 0.  1.
</event>
<event>
12    1  0.1597826E-001  0.2227332E+03  0.7818608E-02  0.1131872E+00
         21   -1    0    0  503  502  0.00000000000E+00  0.00000000000E+00  0.20929379102E+03  0.20929379102E+03  0.00000000000E+00 0. -1.
         21   -1    0    0  501  503 -0.00000000000E+00 -0.00000000000E+00 -0.24558942758E+03  0.24558942758E+03  0.00000000000E+00 0.  1.
          6    2    1    2  501    0 -0.19402857621E+02  0.13981044279E+03 -0.60738417449E+02  0.23081286714E+03  0.17222657602E+03 0.  0.
         24    2    3    3    0    0 -0.61084292220E+02  0.12024729435E+03 -0.17106397085E+02  0.16720546216E+03  0.97336196767E+02 0.  0.
         -6    2    1    2    0  502  0.19402857621E+02 -0.13981044279E+03  0.24442780895E+02  0.22407035145E+03  0.17229811974E+03 0.  0.
        -24    2    5    5    0    0 -0.45832844577E+02 -0.59593509895E+02  0.45774637005E+02  0.11839352689E+03  0.79181271479E+02 0.  0.
          5    1    3    3  501    0  0.41681434599E+02  0.19563148445E+02 -0.43632020364E+02  0.63607404980E+02  0.47000000000E+01 0. -1.
        -13    1    4    4    0    0 -0.33028845816E+02  0.44863560354E+02 -0.55004939978E+02  0.78289125206E+02  0.00000000000E+00 0.  1.
         14    1    4    4    0    0 -0.28055446404E+02  0.75383733996E+02  0.37898542894E+02  0.88916336955E+02  0.00000000000E+00 0. -1.
         -5    1    5    5    0  502  0.65235702198E+02 -0.80216932899E+02 -0.21331856109E+02  0.10567682456E+03  0.47000000000E+01 0.  1.
         13    1    6    6    0    0  0.87928758899E+01  0.31728645149E+01 -0.13365113541E+02  0.16309751550E+02  0.00000000000E+00 0. -1.
        -14    1    6    6    0    0 -0.54625720467E+02 -0.62766374410E+02  0.59139750546E+02  0.10208377534E+03  0.00000000000E+00 0.  1.
</event>
<event>
12    1  0.1597826E-001  0.1992915E+03  0.7818608E-02  0.1152236E+00
         21   -1    0    0  501  502  0.00000000000E+00  0.00000000000E+00  0.63416479306E+03  0.63416479306E+03  0.00000000000E+00 0.  1.
         21   -1    0    0  502  503 -0.00000000000E+00 -0.00000000000E+00 -0.61037678929E+02  0.61037678929E+02  0.00000000000E+00 0.  1.
         -6    2    1    2    0  503 -0.10481616659E+02 -0.87675825951E+02  0.24565679605E+03  0.31632952439E+03  0.17866222826E+03 0.  0.
        -24    2    3    3    0    0  0.31207594256E+02  0.21016206252E+01  0.17301375654E+03  0.19345934326E+03  0.80711999066E+02 0.  0.
          6    2    1    2  501    0  0.10481616659E+02  0.87675825951E+02  0.32747031808E+03  0.37887294760E+03  0.16885196611E+03 0.  0.
         24    2    5    5    0    0  0.45315577538E+02  0.98977473366E+02  0.17863291971E+03  0.22552434729E+03  0.84270216655E+02 0.  0.
          5    1    5    5  501    0 -0.34833960879E+02 -0.11301647414E+02  0.14883739837E+03  0.15334860031E+03  0.47000000000E+01 0. -1.
        -13    1    6    6    0    0 -0.15497334725E+02  0.49599562006E+02  0.37407376048E+02  0.64028085381E+02  0.00000000000E+00 0.  1.
         14    1    6    6    0    0  0.60812912262E+02  0.49377911359E+02  0.14122554366E+03  0.16149626191E+03  0.00000000000E+00 0. -1.
         -5    1    3    3    0  503 -0.41689210915E+02 -0.89777446577E+02  0.72643039508E+02  0.12287018112E+03  0.47000000000E+01 0.  1.
         11    1    4    4    0    0  0.42949674517E+01 -0.25795526832E+02  0.14036187417E+03  0.14277713987E+03  0.00000000000E+00 0. -1.
        -12    1    4    4    0    0  0.26912626805E+02  0.27897147457E+02  0.32651882376E+02  0.50682203390E+02  0.00000000000E+00 0.  1.
</event>
<event>
12    1  0.1597826E-001  0.3225922E+03  0.7818608E-02  0.1074527E+00
         21   -1    0    0  503  502  0.00000000000E+00  0.00000000000E+00  0.38400756153E+03  0.38400756153E+03  0.00000000000E+00 0.  1.
         21   -1    0    0  501  503 -0.00000000000E+00 -0.00000000000E+00 -0.27072495722E+03  0.27072495722E+03  0.00000000000E+00 0. -1.
          6    2    1    2  501    0 -0.25150034716E+03 -0.10543672956E+03  0.65600849749E+02  0.32863547582E+03  0.17125558653E+03 0.  0.
         24    2    3    3    0    0 -0.16326660183E+03 -0.76519420957E+01  0.73855543323E+02  0.19658515041E+03  0.80476981749E+02 0.  0.
         -6    2    1    2    0  502  0.25150034716E+03  0.10543672956E+03  0.47681754566E+02  0.32609704293E+03  0.17232644349E+03 0.  0.
        -24    2    5    5    0    0  0.10910641957E+03  0.85566120473E+02 -0.24580400258E+02  0.16511635856E+03  0.86217422963E+02 0.  0.
          5    1    3    3  501    0 -0.88233745329E+02 -0.97784787467E+02 -0.82546935741E+01  0.13205032541E+03  0.47000000000E+01 0. -1.
        -13    1    4    4    0    0 -0.13650279488E+03 -0.32967531195E+02  0.76016082275E+02  0.15968192098E+03  0.00000000000E+00 0.  1.
         14    1    4    4    0    0 -0.26763806954E+02  0.25315589099E+02 -0.21605389527E+01  0.36903229434E+02  0.00000000000E+00 0. -1.
         -5    1    5    5    0  502  0.14239392760E+03  0.19870609090E+02  0.72262154824E+02  0.16098068437E+03  0.47000000000E+01 0.  1.
         13    1    6    6    0    0  0.54343383621E+02  0.45488843726E+02  0.31044622896E+02  0.77370581345E+02  0.00000000000E+00 0. -1.
        -14    1    6    6    0    0  0.54763035945E+02  0.40077276747E+02 -0.55625023154E+02  0.87745777210E+02  0.00000000000E+00 0.  1.
</event>
<event>
12    1  0.1597826E-001  0.2156597E+03  0.7818608E-02  0.1137399E+00
         21   -1    0    0  501  502  0.00000000000E+00  0.00000000000E+00  0.32002359346E+03  0.32002359346E+03  0.00000000000E+00 0.  1.
         21   -1    0    0  502  503 -0.00000000000E+00 -0.00000000000E+00 -0.14549882410E+03  0.14549882410E+03  0.00000000000E+00 0.  1.
         -6    2    1    2    0  503  0.79147182483E+02 -0.10393910748E+03  0.67666614140E+02  0.22484050157E+03  0.17002019267E+03 0.  0.
        -24    2    3    3    0    0  0.96506005725E+02 -0.19536313756E+02  0.50264878227E+02  0.13680601545E+03  0.80586916952E+02 0.  0.
          6    2    1    2  501    0 -0.79147182483E+02  0.10393910748E+03  0.10685815522E+03  0.24068191599E+03  0.17158526974E+03 0.  0.
         24    2    5    5    0    0 -0.72533308426E+02  0.11639211510E+03  0.28614071530E+02  0.16103866543E+03  0.79413357717E+02 0.  0.
          5    1    5    5  501    0 -0.66138740577E+01 -0.12453007620E+02  0.78244083685E+02  0.79643250565E+02  0.47000000000E+01 0. -1.
        -11    1    6    6    0    0 -0.58060675950E+02  0.71195520422E+02 -0.19000211695E+02  0.93812857671E+02  0.00000000000E+00 0.  1.
         12    1    6    6    0    0 -0.14472632476E+02  0.45196594681E+02  0.47614283225E+02  0.67225807757E+02  0.00000000000E+00 0. -1.
         -5    1    3    3    0  503 -0.17358823242E+02 -0.84402793728E+02  0.17401735913E+02  0.88034486119E+02  0.47000000000E+01 0.  1.
         11    1    4    4    0    0  0.39493138029E+02  0.10459201122E+02  0.59031624213E+02  0.71790218670E+02  0.00000000000E+00 0. -1.
        -12    1    4    4    0    0  0.57012867696E+02 -0.29995514878E+02 -0.87667459858E+01  0.65015796779E+02  0.00000000000E+00 0.  1.
</event>
<event>
12    1  0.1597826E-001  0.1912552E+03  0.7818608E-02  0.1157515E+00
         21   -1    0    0  501  502  0.00000000000E+00  0.00000000000E+00  0.68960150857E+02  0.68960150857E+02  0.00000000000E+00 0.  1.
         21   -1    0    0  502  503 -0.00000000000E+00 -0.00000000000E+00 -0.60470820019E+03  0.60470820019E+03  0.00000000000E+00 0.  1.
         -6    2    1    2    0  503 -0.68926867582E+02 -0.44762996921E+02 -0.14756401521E+03  0.24092664008E+03  0.17180182871E+03 0.  0.
        -24    2    3    3    0    0  0.22533677234E+01  0.96951911282E+00 -0.11382139116E+02  0.80534363777E+02  0.79688223877E+02 0.  0.
          6    2    1    2  501    0  0.68926867582E+02  0.44762996921E+02 -0.38818403412E+03  0.43274171096E+03  0.17269599038E+03 0.  0.
         24    2    5    5    0    0  0.94386026509E+02  0.59302080646E+02 -0.37677612070E+03  0.40093315524E+03  0.79760209826E+02 0.  0.
          5    1    5    5  501    0 -0.25459158927E+02 -0.14539083726E+02 -0.11407913425E+02  0.31808555729E+02  0.47000000000E+01 0. -1.
        -13    1    6    6    0    0  0.85864891945E+02  0.94950404997E+01 -0.24658502708E+03  0.26127975628E+03  0.00000000000E+00 0.  1.
         14    1    6    6    0    0  0.85211345639E+01  0.49807040146E+02 -0.13019109362E+03  0.13965339896E+03  0.00000000000E+00 0. -1.
         -5    1    3    3    0  503 -0.71180235305E+02 -0.45732516033E+02 -0.13618187609E+03  0.16039227630E+03  0.47000000000E+01 0.  1.
         11    1    4    4    0    0  0.45661809668E+01 -0.31446327456E+02  0.18173802390E+02  0.36606128072E+02  0.00000000000E+00 0. -1.
        -12    1    4    4    0    0 -0.23128132433E+01  0.32415846569E+02 -0.29555941506E+02  0.43928235705E+02  0.00000000000E+00 0.  1.
</event>
<event>
12    1  0.1597826E-001  0.2101270E+03  0.7818608E-02  0.1141676E+00
         21   -1    0    0  503  502  0.00000000000E+00  0.00000000000E+00  0.13512567692E+02  0.13512567692E+02  0.00000000000E+00 0.  1.
         21   -1    0    0  501  503 -0.00000000000E+00 -0.00000000000E+00 -0.36201986299E+04  0.36201986299E+04  0.00000000000E+00 0. -1.
          6    2    1    2  501    0  0.83420436043E+02 -0.83491973744E+02 -0.23876012700E+04  0.23968298150E+04  0.17384895366E+03 0.  0.
         24    2    3    3    0    0  0.57257597082E+02 -0.10623607264E+03 -0.11688916332E+04  0.11776181611E+04  0.76891791548E+02 0.  0.
         -6    2    1    2    0  502 -0.83420436043E+02  0.83491973744E+02 -0.12190847922E+04  0.12368813826E+04  0.17256287320E+03 0.  0.
        -24    2    5    5    0    0 -0.82775037246E+01  0.57813147852E+02 -0.97819940640E+03  0.98320102965E+03  0.79995680515E+02 0.  0.
          5    1    3    3  501    0  0.26162838961E+02  0.22744098897E+02 -0.12187096368E+04  0.12192116539E+04  0.47000000000E+01 0. -1.
        -11    1    4    4    0    0  0.42214588147E+02 -0.83421043026E+01 -0.29262665779E+03  0.29577360093E+03  0.00000000000E+00 0.  1.
         12    1    4    4    0    0  0.15043008935E+02 -0.97893968339E+02 -0.87626497540E+03  0.88184456015E+03  0.00000000000E+00 0. -1.
         -5    1    5    5    0  502 -0.75142932319E+02  0.25678825892E+02 -0.24088538583E+03  0.25368035297E+03  0.47000000000E+01 0.  1.
         11    1    6    6    0    0 -0.42329284386E+02  0.23151733553E+02 -0.59071232030E+03  0.59267935382E+03  0.00000000000E+00 0. -1.
        -12    1    6    6    0    0  0.34051780662E+02  0.34661414299E+02 -0.38748708609E+03  0.39052167583E+03  0.00000000000E+00 0.  1.
</event>
<event>
12    1  0.1597826E-001  0.2137451E+03  0.7818608E-02  0.1139249E+00
         21   -1    0    0  501  502  0.00000000000E+00  0.00000000000E+00  0.48653016929E+03  0.48653016929E+03  0.00000000000E+00 0.  1.
         21   -1    0    0  502  503 -0.00000000000E+00 -0.00000000000E+00 -0.28037624421E+03  0.28037624421E+03  0.00000000000E+00 0.  1.
         -6    2    1    2    0  503  0.72325097786E+02  0.10041841683E+03 -0.21053716689E+03  0.30002143755E+03  0.17427617776E+03 0.  0.
        -24    2    3    3    0    0  0.22002209308E+02  0.39602018757E+02 -0.26667315696E+02  0.99868397203E+02  0.84912507497E+02 0.  0.
          6    2    1    2  501    0 -0.72325097786E+02 -0.10041841683E+03  0.41669109197E+03  0.46688497595E+03  0.17039758339E+03 0.  0.
         24    2    5    5    0    0 -0.16802413654E+02 -0.12505942257E+03  0.27293163724E+03  0.31074779766E+03  0.78424070707E+02 0.  0.
          5    1    5    5  501    0 -0.55522684132E+02  0.24641005739E+02  0.14375945473E+03  0.15613717828E+03  0.47000000000E+01 0. -1.
        -13    1    6    6    0    0 -0.38577426399E+02 -0.11193091833E+03  0.18872996022E+03  0.22279081263E+03  0.00000000000E+00 0.  1.
         14    1    6    6    0    0  0.21775012745E+02 -0.13128504243E+02  0.84201677020E+02  0.87956985036E+02  0.00000000000E+00 0. -1.
         -5    1    3    3    0  503  0.50322888478E+02  0.60816398076E+02 -0.18386985120E+03  0.20015304034E+03  0.47000000000E+01 0.  1.
         11    1    4    4    0    0 -0.12459878920E+02 -0.18444746131E+02 -0.23381623403E+02  0.32282465140E+02  0.00000000000E+00 0. -1.
        -12    1    4    4    0    0  0.34462088228E+02  0.58046764888E+02 -0.32856922928E+01  0.67585932063E+02  0.00000000000E+00 0.  1.
</event>
<event>
12    1  0.1597826E-001  0.1886504E+03  0.7818608E-02  0.1159767E+00
         21   -1    0    0  501  502  0.00000000000E+00  0.00000000000E+00  0.46852034482E+02  0.46852034482E+02  0.00000000000E+00 0. -1.
         21   -1    0    0  502  503 -0.00000000000E+00 -0.00000000000E+00 -0.34100139398E+04  0.34100139398E+04  0.00000000000E+00 0. -1.
         -6    2    1    2    0  503  0.51227835023E+02 -0.55799448147E+02 -0.32061707995E+04  0.32117160808E+04  0.17277476288E+03 0.  0.
        -24    2    3    3    0    0  0.23323135836E+02 -0.76858720977E+02 -0.30251664271E+04  0.30273066504E+04  0.80637534964E+02 0.  0.
          6    2    1    2  501    0 -0.51227835023E+02  0.55799448147E+02 -0.15699110584E+03  0.24514989349E+03  0.17237863403E+03 0.  0.
         24    2    5    5    0    0 -0.34122402121E+02  0.68267934379E+02 -0.18161148717E+03  0.21234269672E+03  0.79258055663E+02 0.  0.
          5    1    5    5  501    0 -0.17105432902E+02 -0.12468486232E+02  0.24620381325E+02  0.32807196775E+02  0.47000000000E+01 0. -1.
        -11    1    6    6    0    0  0.25714115139E+02  0.15160218253E+02 -0.44156187535E+02  0.53299313621E+02  0.00000000000E+00 0.  1.
         12    1    6    6    0    0 -0.59836517260E+02  0.53107716125E+02 -0.13745529963E+03  0.15904338310E+03  0.00000000000E+00 0. -1.
         -5    1    3    3    0  503  0.27904699187E+02  0.21059272830E+02 -0.18100437232E+03  0.18440943036E+03  0.47000000000E+01 0.  1.
         13    1    4    4    0    0 -0.21832850119E+01 -0.38114676041E+02 -0.24419683221E+04  0.24422667302E+04  0.00000000000E+00 0. -1.
        -14    1    4    4    0    0  0.25506420848E+02 -0.38744044935E+02 -0.58319810508E+03  0.58503992026E+03  0.00000000000E+00 0.  1.
</event>
<event>
12    1  0.1597826E-001  0.2357787E+03  0.7818608E-02  0.1123996E+00
         21   -1    0    0  503  502  0.00000000000E+00  0.00000000000E+00  0.30152093866E+02  0.30152093866E+02  0.00000000000E+00 0.  1.
         21   -1    0    0  501  503 -0.00000000000E+00 -0.00000000000E+00 -0.21414968807E+04  0.21414968807E+04  0.00000000000E+00 0.  1.
          6    2    1    2  501    0  0.14009051087E+03  0.80295560438E+02 -0.14850555907E+04  0.15024481327E+04  0.16089610199E+03 0.  0.
         24    2    3    3    0    0  0.15303948113E+03  0.29837021967E+02 -0.11028917647E+04  0.11167215198E+04  0.79908557646E+02 0.  0.
         -6    2    1    2    0  502 -0.14009051087E+03 -0.80295560438E+02 -0.62628919604E+03  0.66920084180E+03  0.17181059726E+03 0.  0.
        -24    2    5    5    0    0 -0.31795400656E+02 -0.64581533957E+02 -0.19816830803E+03  0.22729095701E+03  0.84904527564E+02 0.  0.
          5    1    3    3  501    0 -0.12948970268E+02  0.50458538471E+02 -0.38216382607E+03  0.38572661289E+03  0.47000000000E+01 0. -1.
        -11    1    4    4    0    0  0.41031465486E+02  0.19035629412E+02 -0.58498309502E+03  0.58672920313E+03  0.00000000000E+00 0.  1.
         12    1    4    4    0    0  0.11200801565E+03  0.10801392555E+02 -0.51790866966E+03  0.52999231670E+03  0.00000000000E+00 0. -1.
         -5    1    5    5    0  502 -0.10829511021E+03 -0.15714026481E+02 -0.42812088801E+03  0.44190988479E+03  0.47000000000E+01 0.  1.
         13    1    6    6    0    0 -0.32908492542E+02  0.98195263110E+01 -0.41626550183E+02  0.53964448098E+02  0.00000000000E+00 0. -1.
        -14    1    6    6    0    0  0.11130918867E+01 -0.74401060268E+02 -0.15654175784E+03  0.17332650891E+03  0.00000000000E+00 0.  1.
</event>
<event>
12    1  0.1597826E-001  0.4120126E+03  0.7818608E-02  0.1039771E+00
         21   -1    0    0  501  502  0.00000000000E+00  0.00000000000E+00  0.24863901713E+04  0.24863901713E+04  0.00000000000E+00 0. -1.
         21   -1    0    0  502  503 -0.00000000000E+00 -0.00000000000E+00 -0.24282909376E+03  0.24282909376E+03  0.00000000000E+00 0.  1.
         -6    2    1    2    0  503 -0.34663417482E+03 -0.13981661159E+03 -0.36017677257E+02  0.41270599757E+03  0.17124552935E+03 0.  0.
        -24    2    3    3    0    0 -0.65187101245E+02 -0.38245405605E+02  0.12729748895E+02  0.10951040613E+03  0.78220287176E+02 0.  0.
          6    2    1    2  501    0  0.34663417482E+03  0.13981661159E+03  0.22795787549E+04  0.23165132675E+04  0.17335075161E+03 0.  0.
         24    2    5    5    0    0  0.14448255402E+03  0.72190272864E+02  0.71968223263E+03  0.74211247691E+03  0.81864329935E+02 0.  0.
          5    1    5    5  501    0  0.20215162080E+03  0.67626338726E+02  0.15598965222E+04  0.15744007906E+04  0.47000000000E+01 0. -1.
        -13    1    6    6    0    0  0.31127843150E+02 -0.15969283017E+02  0.19601782858E+03  0.19911541814E+03  0.00000000000E+00 0.  1.
         14    1    6    6    0    0  0.11335471087E+03  0.88159555882E+02  0.52366440405E+03  0.54299705877E+03  0.00000000000E+00 0. -1.
         -5    1    3    3    0  503 -0.28144707358E+03 -0.10157120599E+03 -0.48747426152E+02  0.30319559144E+03  0.47000000000E+01 0.  1.
         11    1    4    4    0    0 -0.27348193112E+02 -0.58807806498E+02  0.94775544032E+00  0.64862778324E+02  0.00000000000E+00 0. -1.
        -12    1    4    4    0    0 -0.37838908133E+02  0.20562400893E+02  0.11781993454E+02  0.44647627809E+02  0.00000000000E+00 0.  1.
</event>
<event>
12    1  0.1597826E-001  0.5966166E+03  0.7818608E-02  0.9912624E-01
         21   -1    0    0  501  502  0.00000000000E+00  0.00000000000E+00  0.47140595261E+03  0.47140595261E+03  0.00000000000E+00 0.  1.
         21   -1    0    0  502  503 -0.00000000000E+00 -0.00000000000E+00 -0.76653993168E+03  0.76653993168E+03  0.00000000000E+00 0. -1.
         -6    2    1    2    0  503 -0.50366965297E+03 -0.27021678732E+03 -0.22464605428E+03  0.63750859087E+03  0.17102959467E+03 0.  0.
        -24    2    3    3    0    0 -0.51165517893E+03 -0.25165967467E+03 -0.21525905415E+03  0.61474149123E+03  0.80293378697E+02 0.  0.
          6    2    1    2  501    0  0.50366965297E+03  0.27021678732E+03 -0.70487924790E+02  0.60043729342E+03  0.16987102258E+03 0.  0.
         24    2    5    5    0    0  0.40818618143E+03  0.27129389615E+03 -0.83472237528E+02  0.50395446656E+03  0.82378110732E+02 0.  0.
          5    1    5    5  501    0  0.95483471543E+02 -0.10771088340E+01  0.12984312738E+02  0.96482826859E+02  0.47000000000E+01 0. -1.
        -13    1    6    6    0    0  0.24007804007E+03  0.12167252625E+03 -0.71998786823E+02  0.27861352134E+03  0.00000000000E+00 0.  1.
         14    1    6    6    0    0  0.16810814136E+03  0.14962136990E+03 -0.11473450705E+02  0.22534094522E+03  0.00000000000E+00 0. -1.
         -5    1    3    3    0  503  0.79855259574E+01 -0.18557112648E+02 -0.93870001229E+01  0.22767099639E+02  0.47000000000E+01 0.  1.
         13    1    4    4    0    0 -0.21544692892E+03 -0.12070342492E+03 -0.53317507619E+02  0.25264491403E+03  0.00000000000E+00 0. -1.
        -14    1    4    4    0    0 -0.29620825002E+03 -0.13095624975E+03 -0.16194154653E+03  0.36209657720E+03  0.00000000000E+00 0.  1.
</event>
<event>
12    1  0.1597826E-001  0.3604344E+03  0.7818608E-02  0.1058417E+00
         21   -1    0    0  503  502  0.00000000000E+00  0.00000000000E+00  0.29510823240E+03  0.29510823240E+03  0.00000000000E+00 0.  1.
         21   -1    0    0  501  503 -0.00000000000E+00 -0.00000000000E+00 -0.87934099049E+03  0.87934099049E+03  0.00000000000E+00 0. -1.
          6    2    1    2  501    0  0.14482122193E+03 -0.28132323643E+03 -0.70710571180E+03  0.79364652642E+03  0.17251194614E+03 0.  0.
         24    2    3    3    0    0  0.66420232229E+02 -0.19297455929E+03 -0.31304729160E+03  0.38223878163E+03  0.80355781523E+02 0.  0.
         -6    2    1    2    0  502 -0.14482122193E+03  0.28132323643E+03  0.12287295372E+03  0.38080269647E+03  0.17261802110E+03 0.  0.
        -24    2    5    5    0    0 -0.15874731895E+03  0.16884375854E+03  0.66630807342E+02  0.25418975024E+03  0.80398001035E+02 0.  0.
          5    1    3    3  501    0  0.78400989705E+02 -0.88348677139E+02 -0.39405842020E+03  0.41140774479E+03  0.47000000000E+01 0. -1.
        -11    1    4    4    0    0  0.66539823115E+02 -0.19552247224E+03 -0.31651159872E+03  0.37793673721E+03  0.00000000000E+00 0.  1.
         12    1    4    4    0    0 -0.11959088630E+00  0.25479129540E+01  0.34643071169E+01  0.43020444211E+01  0.00000000000E+00 0. -1.
         -5    1    5    5    0  502  0.13926097015E+02  0.11247947789E+03  0.56242146373E+02  0.12661294623E+03  0.47000000000E+01 0.  1.
         11    1    6    6    0    0 -0.11367203027E+03  0.14384344466E+03  0.19542754556E+02  0.18437512385E+03  0.00000000000E+00 0. -1.
        -12    1    6    6    0    0 -0.45075288681E+02  0.25000313873E+02  0.47088052786E+02  0.69814626395E+02  0.00000000000E+00 0.  1.
</event>
<event>
12    1  0.1597826E-001  0.2022661E+03  0.7818608E-02  0.1147901E+00
         21   -1    0    0  503  502  0.00000000000E+00  0.00000000000E+00  0.54200401168E+02  0.54200401168E+02  0.00000000000E+00 0. -1.
         21   -1    0    0  501  503 -0.00000000000E+00 -0.00000000000E+00 -0.12784964178E+04  0.12784964178E+04  0.00000000000E+00 0. -1.
          6    2    1    2  501    0  0.22215076419E+00 -0.10632883420E+03 -0.10393114233E+04  0.10588105545E+04  0.17206302731E+03 0.  0.
         24    2    3    3    0    0  0.65470976249E+02 -0.59307609156E+02 -0.54996699061E+03  0.56287863513E+03  0.81023613204E+02 0.  0.
         -6    2    1    2    0  502 -0.22215076419E+00  0.10632883420E+03 -0.18498459327E+03  0.27388626442E+03  0.17172220519E+03 0.  0.
        -24    2    5    5    0    0 -0.99137341188E+01 -0.78572633406E+01 -0.41303228729E+02  0.90041720911E+02  0.79003392900E+02 0.  0.
          5    1    3    3  501    0 -0.65248825485E+02 -0.47021225044E+02 -0.48934443270E+03  0.49593191937E+03  0.47000000000E+01 0. -1.
        -13    1    4    4    0    0  0.16481232865E+02 -0.31974219522E+02 -0.61861753284E+02  0.71560172374E+02  0.00000000000E+00 0.  1.
         14    1    4    4    0    0  0.48989743385E+02 -0.27333389634E+02 -0.48810523732E+03  0.49131846276E+03  0.00000000000E+00 0. -1.
         -5    1    5    5    0  502  0.96915833546E+01  0.11418609754E+03 -0.14368136454E+03  0.18384454351E+03  0.47000000000E+01 0.  1.
         13    1    6    6    0    0  0.28670883439E+02 -0.24742475819E+02 -0.20592253981E+02  0.43107430808E+02  0.00000000000E+00 0. -1.
        -14    1    6    6    0    0 -0.38584617557E+02  0.16885212479E+02 -0.20710974747E+02  0.46934290103E+02  0.00000000000E+00 0.  1.
</event>
<event>
12    1  0.1597826E-001  0.3183185E+03  0.7818608E-02  0.1076435E+00
         21   -1    0    0  503  502  0.00000000000E+00  0.00000000000E+00  0.33063076927E+03  0.33063076927E+03  0.00000000000E+00 0.  1.
         21   -1    0    0  501  503 -0.00000000000E+00 -0.00000000000E+00 -0.37548040367E+03  0.37548040367E+03  0.00000000000E+00 0. -1.
          6    2    1    2  501    0  0.23172740807E+03 -0.13459583920E+03 -0.17386941386E+03  0.36263949579E+03  0.17164847582E+03 0.  0.
         24    2    3    3    0    0  0.22330925533E+03 -0.11420737255E+03 -0.19848418289E+03  0.32925489272E+03  0.78118282474E+02 0.  0.
         -6    2    1    2    0  502 -0.23172740807E+03  0.13459583920E+03  0.12901977945E+03  0.34347167715E+03  0.17179364927E+03 0.  0.
        -24    2    5    5    0    0 -0.23037347485E+03  0.14480278831E+03  0.82090876155E+02  0.29519718171E+03  0.79766400965E+02 0.  0.
          5    1    3    3  501    0  0.84181527337E+01 -0.20388466658E+02  0.24614769033E+02  0.33384603078E+02  0.47000000000E+01 0. -1.
        -13    1    4    4    0    0  0.43729627656E+02 -0.34105559679E+02 -0.90029117861E+01  0.56182932965E+02  0.00000000000E+00 0.  1.
         14    1    4    4    0    0  0.17957962768E+03 -0.80101812867E+02 -0.18948127111E+03  0.27307195975E+03  0.00000000000E+00 0. -1.
         -5    1    5    5    0  502 -0.13539332223E+01 -0.10206949110E+02  0.46928903298E+02  0.48274495441E+02  0.47000000000E+01 0.  1.
         11    1    6    6    0    0 -0.42915592696E+02  0.25303383611E+02 -0.15837238320E+02  0.52276452024E+02  0.00000000000E+00 0. -1.
        -12    1    6    6    0    0 -0.18745788215E+03  0.11949940470E+03  0.97928114475E+02  0.24292072968E+03  0.00000000000E+00 0.  1.
</event>
<event>
12    1  0.1597826E-001  0.1916485E+03  0.7818608E-02  0.1157079E+00
         21   -1    0    0  501  502  0.00000000000E+00  0.00000000000E+00  0.58044152073E+02  0.58044152073E+02  0.00000000000E+00 0. -1.
         21   -1    0    0  502  503 -0.00000000000E+00 -0.00000000000E+00 -0.81080846531E+03  0.81080846531E+03  0.00000000000E+00 0. -1.
         -6    2    1    2    0  503  0.35674614926E+02 -0.77752426192E+02 -0.58042608759E+03  0.61111316916E+03  0.17101679579E+03 0.  0.
        -24    2    3    3    0    0  0.41033141438E+02  0.18645034130E+02 -0.30101391909E+03  0.31545384820E+03  0.82887845119E+02 0.  0.
          6    2    1    2  501    0 -0.35674614926E+02  0.77752426192E+02 -0.17233822565E+03  0.25773944822E+03  0.17149647583E+03 0.  0.
         24    2    5    5    0    0  0.28816190108E+02  0.65387855789E+02 -0.47640333687E+02  0.11673022585E+03  0.79059469610E+02 0.  0.
          5    1    5    5  501    0 -0.64490805034E+02  0.12364570403E+02 -0.12469789196E+03  0.14100922238E+03  0.47000000000E+01 0. -1.
        -13    1    6    6    0    0  0.35251228526E+00  0.52815836742E+02 -0.62849477928E+02  0.82095637835E+02  0.00000000000E+00 0.  1.
         14    1    6    6    0    0  0.28463677823E+02  0.12572019047E+02  0.15209144240E+02  0.34634588010E+02  0.00000000000E+00 0. -1.
         -5    1    3    3    0  503 -0.53585265118E+01 -0.96397460322E+02 -0.27941216850E+03  0.29565932096E+03  0.47000000000E+01 0.  1.
         13    1    4    4    0    0  0.51195901154E+01 -0.16045637497E+02 -0.21750056400E+03  0.21815170874E+03  0.00000000000E+00 0. -1.
        -14    1    4    4    0    0  0.35913551322E+02  0.34690671627E+02 -0.83513355088E+02  0.97302139466E+02  0.00000000000E+00 0.  1.
</event>
<event>
12    1  0.1597826E-001  0.2034058E+03  0.7818608E-02  0.1147536E+00
         21   -1    0    0  501  502  0.00000000000E+00  0.00000000000E+00  0.39423542282E+03  0.39423542282E+03  0.00000000000E+00 0.  1.
         21   -1    0    0  502  503 -0.00000000000E+00 -0.00000000000E+00 -0.10518291164E+03  0.10518291164E+03  0.00000000000E+00 0.  1.
         -6    2    1    2    0  503 -0.10888907381E+02 -0.10941159624E+03  0.17840861068E+03  0.27056158048E+03  0.17112706030E+03 0.  0.
        -24    2    3    3    0    0  0.12458994760E+02 -0.27984575447E+02  0.15943478356E+03  0.18362723534E+03  0.85797134766E+02 0.  0.
          6    2    1    2  501    0  0.10888907381E+02  0.10941159624E+03  0.11064390050E+03  0.22885675398E+03  0.16746305691E+03 0.  0.
         24    2    5    5    0    0  0.38439806213E+02  0.13618433337E+01  0.38528268596E+02  0.95978781788E+02  0.79044454288E+02 0.  0.
          5    1    5    5  501    0 -0.27550898832E+02  0.10804975291E+03  0.72115631904E+02  0.13287797220E+03  0.47000000000E+01 0. -1.
        -11    1    6    6    0    0  0.13932262062E+02  0.27075989836E+02  0.50092510420E+02  0.58621470059E+02  0.00000000000E+00 0.  1.
         12    1    6    6    0    0  0.24507544151E+02 -0.25714146502E+02 -0.11564241824E+02  0.37357311729E+02  0.00000000000E+00 0. -1.
         -5    1    3    3    0  503 -0.23347902141E+02 -0.81427020793E+02  0.18973827121E+02  0.86934345142E+02  0.47000000000E+01 0.  1.
         13    1    4    4    0    0 -0.10145297921E+02  0.26881908934E+02  0.31712595610E+02  0.42793139850E+02  0.00000000000E+00 0. -1.
        -14    1    4    4    0    0  0.22604292681E+02 -0.54866484382E+02  0.12772218795E+03  0.14083409549E+03  0.00000000000E+00 0.  1.
</event>
<event>
12    1  0.1597826E-001  0.2072557E+03  0.7818608E-02  0.1143815E+00
         21   -1    0    0  503  502  0.00000000000E+00  0.00000000000E+00  0.19493264267E+04  0.19493264267E+04  0.00000000000E+00 0.  1.
         21   -1    0    0  501  503 -0.00000000000E+00 -0.00000000000E+00 -0.47500414237E+02  0.47500414237E+02  0.00000000000E+00 0.  1.
          6    2    1    2  501    0 -0.95008188532E+02 -0.59823228495E+02  0.21915272608E+03  0.30143770592E+03  0.17387178796E+03 0.  0.
         24    2    3    3    0    0 -0.11023734145E+03 -0.10298177988E+02  0.20715699271E+03  0.24804627079E+03  0.79715800868E+02 0.  0.
         -6    2    1    2    0  502  0.95008188532E+02  0.59823228495E+02  0.16826732864E+04  0.16953891350E+04  0.17421123918E+03 0.  0.
        -24    2    5    5    0    0  0.97240657038E+02  0.97204483528E+02  0.15268395923E+04  0.15350502054E+04  0.78965406563E+02 0.  0.
          5    1    3    3  501    0  0.15229152915E+02 -0.49525050506E+02  0.11995733375E+02  0.53391435131E+02  0.47000000000E+01 0. -1.
        -13    1    4    4    0    0 -0.11543570383E+03 -0.22846942931E+02  0.15774638871E+03  0.19680271257E+03  0.00000000000E+00 0.  1.
         14    1    4    4    0    0  0.51983623848E+01  0.12548764942E+02  0.49410603991E+02  0.51243558228E+02  0.00000000000E+00 0. -1.
         -5    1    5    5    0  502 -0.22324685055E+01 -0.37381255033E+02  0.15583369411E+03  0.16033892966E+03  0.47000000000E+01 0.  1.
         11    1    6    6    0    0  0.16769781267E+02  0.37963608004E+02  0.18993739364E+03  0.19441881236E+03  0.00000000000E+00 0. -1.
        -12    1    6    6    0    0  0.80470875771E+02  0.59240875524E+02  0.13369021986E+04  0.13406313930E+04  0.00000000000E+00 0.  1.
</event>
<event>
12    1  0.1597826E-001  0.1891733E+03  0.7818608E-02  0.1159318E+00
         21   -1    0    0  501  502  0.00000000000E+00  0.00000000000E+00  0.15039038265E+04  0.15039038265E+04  0.00000000000E+00 0. -1.
         21   -1    0    0  502  503 -0.00000000000E+00 -0.00000000000E+00 -0.51921719805E+02  0.51921719805E+02  0.00000000000E+00 0. -1.
         -6    2    1    2    0  503 -0.79474617647E+02 -0.21395689932E+01  0.15241535092E+03  0.24256232681E+03  0.17112933877E+03 0.  0.
        -24    2    3    3    0    0 -0.70775913735E+02 -0.28505736564E+02  0.28125980807E+02  0.11512300884E+03  0.81488829827E+02 0.  0.
          6    2    1    2  501    0  0.79474617647E+02  0.21395689932E+01  0.12995667557E+04  0.13132632195E+04  0.17165587185E+03 0.  0.
         24    2    5    5    0    0  0.19390019249E+02  0.20955029465E+02  0.31483417080E+03  0.32650867330E+03  0.81683979636E+02 0.  0.
          5    1    5    5  501    0  0.60084598398E+02 -0.18815460472E+02  0.98473258494E+03  0.98675454616E+03  0.47000000000E+01 0. -1.
        -11    1    6    6    0    0  0.52810296364E+01 -0.29211940709E+02  0.67424850910E+02  0.73670464056E+02  0.00000000000E+00 0.  1.
         12    1    6    6    0    0  0.14108989613E+02  0.50166970174E+02  0.24740931989E+03  0.25283820924E+03  0.00000000000E+00 0. -1.
         -5    1    3    3    0  503 -0.86987039111E+01  0.26366167570E+02  0.12428937011E+03  0.12743931797E+03  0.47000000000E+01 0.  1.
         13    1    4    4    0    0 -0.11411052238E+01 -0.39632927872E+02  0.12876271987E+01  0.39670254306E+02  0.00000000000E+00 0. -1.
        -14    1    4    4    0    0 -0.69634808512E+02  0.11127191309E+02  0.26838353608E+02  0.75452754537E+02  0.00000000000E+00 0.  1.
</event>
<event>
12    1  0.1597826E-001  0.1946577E+03  0.7818608E-02  0.1157697E+00
         21   -1    0    0  501  502  0.00000000000E+00  0.00000000000E+00  0.22941368600E+04  0.22941368600E+04  0.00000000000E+00 0.  1.
         21   -1    0    0  502  503 -0.00000000000E+00 -0.00000000000E+00 -0.84967515151E+02  0.84967515151E+02  0.00000000000E+00 0. -1.
         -6    2    1    2    0  503 -0.52721382008E+02  0.13172371789E+02  0.35331793544E+02  0.19783824706E+03  0.18691864772E+03 0.  0.
        -24    2    3    3    0    0  0.98169958910E+01 -0.49619149277E+02 -0.17435573615E+02  0.94589475321E+02  0.78004719286E+02 0.  0.
          6    2    1    2  501    0  0.52721382008E+02 -0.13172371789E+02  0.21738375513E+04  0.21812661281E+04  0.17146185176E+03 0.  0.
         24    2    5    5    0    0  0.78399855042E+02  0.33962716502E+02  0.16938355936E+04  0.16982494929E+04  0.87591771436E+02 0.  0.
          5    1    5    5  501    0 -0.25678473035E+02 -0.47135088290E+02  0.48000195771E+03  0.48301663525E+03  0.47000000000E+01 0. -1.
        -13    1    6    6    0    0  0.37378728187E+02 -0.27288240372E+02  0.82251699222E+03  0.82381795311E+03  0.00000000000E+00 0.  1.
         14    1    6    6    0    0  0.41021126855E+02  0.61250956874E+02  0.87131860140E+03  0.87443153975E+03  0.00000000000E+00 0. -1.
         -5    1    3    3    0  503 -0.62538377899E+02  0.62791521066E+02  0.52767367160E+02  0.10324877174E+03  0.47000000000E+01 0.  1.
         11    1    4    4    0    0 -0.30283540349E+02 -0.23040170200E+02 -0.25504181167E+02  0.45808356399E+02  0.00000000000E+00 0. -1.
        -12    1    4    4    0    0  0.40100536240E+02 -0.26578979077E+02  0.80686075522E+01  0.48781118923E+02  0.00000000000E+00 0.  1.
</event>
<event>
12    1  0.1597826E-001  0.1956892E+03  0.7818608E-02  0.1153495E+00
         21   -1    0    0  501  502  0.00000000000E+00  0.00000000000E+00  0.26115245798E+03  0.26115245798E+03  0.00000000000E+00 0. -1.
         21   -1    0    0  502  503 -0.00000000000E+00 -0.00000000000E+00 -0.22081360761E+03  0.22081360761E+03  0.00000000000E+00 0. -1.
         -6    2    1    2    0  503 -0.65376725998E+02 -0.65582635473E+02 -0.11971143621E+03  0.22940155629E+03  0.17239213350E+03 0.  0.
        -24    2    3    3    0    0  0.28233816704E+02 -0.20329429232E+01 -0.66607068446E+02  0.10432693455E+03  0.75142041782E+02 0.  0.
          6    2    1    2  501    0  0.65376725998E+02  0.65582635473E+02  0.16005028659E+03  0.25256450930E+03  0.17203935231E+03 0.  0.
         24    2    5    5    0    0 -0.28318171454E+02  0.38078165601E+02  0.50468062767E+02  0.10571225889E+03  0.79851053784E+02 0.  0.
          5    1    5    5  501    0  0.93694897453E+02  0.27504469873E+02  0.10958222382E+03  0.14685225041E+03  0.47000000000E+01 0. -1.
        -13    1    6    6    0    0 -0.23370411904E+02  0.21123763028E+02 -0.17120730605E+02  0.35853994666E+02  0.00000000000E+00 0.  1.
         14    1    6    6    0    0 -0.49477595501E+01  0.16954402572E+02  0.67588793372E+02  0.69858264225E+02  0.00000000000E+00 0. -1.
         -5    1    3    3    0  503 -0.93610542703E+02 -0.63549692550E+02 -0.53104367763E+02  0.12507462174E+03  0.47000000000E+01 0.  1.
         13    1    4    4    0    0  0.14660982104E+02 -0.35688443439E+02 -0.53031175881E+02  0.65581361733E+02  0.00000000000E+00 0. -1.
        -14    1    4    4    0    0  0.13572834601E+02  0.33655500516E+02 -0.13575892565E+02  0.38745572819E+02  0.00000000000E+00 0.  1.
</event>
<event>
12    1  0.1597826E-001  0.2231718E+03  0.7818608E-02  0.1132304E+00
         21   -1    0    0  503  502  0.00000000000E+00  0.00000000000E+00  0.95769489364E+03  0.95769489364E+03  0.00000000000E+00 0. -1.
         21   -1    0    0  501  503 -0.00000000000E+00 -0.00000000000E+00 -0.87060073463E+02  0.87060073463E+02  0.00000000000E+00 0.  1.
          6    2    1    2  501    0 -0.13427430428E+03 -0.43281400597E+02  0.10173795752E+03  0.24526776521E+03  0.17292424995E+03 0.  0.
         24    2    3    3    0    0 -0.12004578444E+03  0.24107279975E+02  0.38534783643E+02  0.15167066998E+03  0.80789301729E+02 0.  0.
         -6    2    1    2    0  502  0.13427430428E+03  0.43281400597E+02  0.76889686266E+03  0.79948720190E+03  0.16755456475E+03 0.  0.
        -24    2    5    5    0    0  0.11715730716E+03  0.42779081024E+02  0.76762217666E+03  0.78168386683E+03  0.78930204371E+02 0.  0.
          5    1    3    3  501    0 -0.14228519840E+02 -0.67388680572E+02  0.63203173877E+02  0.93597095223E+02  0.47000000000E+01 0. -1.
        -13    1    4    4    0    0  0.84297577118E+01  0.12267500465E+02  0.13807197355E+02  0.20302489540E+02  0.00000000000E+00 0.  1.
         14    1    4    4    0    0 -0.12847554215E+03  0.11839779510E+02  0.24727586289E+02  0.13136818044E+03  0.00000000000E+00 0. -1.
         -5    1    5    5    0  502  0.17116997119E+02  0.50231957278E+00  0.12746859978E+01  0.17803335073E+02  0.47000000000E+01 0.  1.
         13    1    6    6    0    0  0.12458733959E+03  0.37359741630E+02  0.60605449338E+03  0.61985466395E+03  0.00000000000E+00 0. -1.
        -14    1    6    6    0    0 -0.74300324318E+01  0.54193393942E+01  0.16156768328E+03  0.16182920287E+03  0.00000000000E+00 0.  1.
</event>
<event>
12    1  0.1597826E-001  0.1916113E+03  0.7818608E-02  0.1157391E+00
         21   -1    0    0  501  502  0.00000000000E+00  0.00000000000E+00  0.68060756997E+03  0.68060756997E+03  0.00000000000E+00 0. -1.
         21   -1    0    0  502  503 -0.00000000000E+00 -0.00000000000E+00 -0.62516972498E+02  0.62516972498E+02  0.00000000000E+00 0.  1.
         -6    2    1    2    0  503  0.68027226343E+02 -0.46551799670E+02  0.16657749934E+03  0.25263603003E+03  0.17112021156E+03 0.  0.
        -24    2    3    3    0    0  0.10131596060E+03 -0.41573899960E+02  0.71573046325E+02  0.15173580502E+03  0.76861827551E+02 0.  0.
          6    2    1    2  501    0 -0.68027226343E+02  0.46551799670E+02  0.45151309813E+03  0.49048851244E+03  0.17297436075E+03 0.  0.
         24    2    5    5    0    0 -0.97745390718E+02  0.79291461806E+02  0.35217181089E+03  0.38164993416E+03  0.76094615717E+02 0.  0.
          5    1    5    5  501    0  0.29718164375E+02 -0.32739662136E+02  0.99341287245E+02  0.10883857828E+03  0.47000000000E+01 0. -1.
        -13    1    6    6    0    0 -0.56281054499E+02  0.17143133997E+02  0.79340459269E+02  0.98774250773E+02  0.00000000000E+00 0.  1.
         14    1    6    6    0    0 -0.41464336219E+02  0.62148327809E+02  0.27283135162E+03  0.28287568339E+03  0.00000000000E+00 0. -1.
         -5    1    3    3    0  503 -0.33288734256E+02 -0.49778997103E+01  0.95004453018E+02  0.10090022501E+03  0.47000000000E+01 0.  1.
         11    1    4    4    0    0  0.74242961854E+02 -0.40068783769E+01  0.74608721836E+02  0.10533059305E+03  0.00000000000E+00 0. -1.
        -12    1    4    4    0    0  0.27072998744E+02 -0.37567021583E+02 -0.30356755104E+01  0.46405211964E+02  0.00000000000E+00 0.  1.
</event>
<event>
12    1  0.1597826E-001  0.1785076E+03  0.7818608E-02  0.1169510E+00
         21   -1    0    0  503  502  0.00000000000E+00  0.00000000000E+00  0.79404524955E+02  0.79404524955E+02  0.00000000000E+00 0. -1.
         21   -1    0    0  501  503 -0.00000000000E+00 -0.00000000000E+00 -0.39946271863E+03  0.39946271863E+03  0.00000000000E+00 0. -1.
          6    2    1    2  501    0 -0.14029858962E+02  0.45064194800E+02 -0.16795282880E+03  0.24434432696E+03  0.17108003629E+03 0.  0.
         24    2    3    3    0    0  0.53111352096E+02  0.30522636927E+02 -0.59794754523E+02  0.11612709660E+03  0.78470649358E+02 0.  0.
         -6    2    1    2    0  502  0.14029858962E+02 -0.45064194800E+02 -0.15210536488E+03  0.23452291663E+03  0.17215498194E+03 0.  0.
        -24    2    5    5    0    0  0.17729079676E+02  0.26491895998E+02 -0.26823804443E+02  0.90122370411E+02  0.79914856842E+02 0.  0.
          5    1    3    3  501    0 -0.67141211057E+02  0.14541557873E+02 -0.10815807428E+03  0.12821723035E+03  0.47000000000E+01 0. -1.
        -11    1    4    4    0    0  0.29747547824E+02 -0.68848612890E+01  0.11220886373E+02  0.32530388985E+02  0.00000000000E+00 0.  1.
         12    1    4    4    0    0  0.23363804272E+02  0.37407498216E+02 -0.71015640896E+02  0.83596707619E+02  0.00000000000E+00 0. -1.
         -5    1    5    5    0  502 -0.36992207142E+01 -0.71556090798E+02 -0.12528156043E+03  0.14440054622E+03  0.47000000000E+01 0.  1.
         13    1    6    6    0    0 -0.58526777741E+01 -0.87290879874E+01 -0.43366706133E+02  0.44621990263E+02  0.00000000000E+00 0. -1.
        -14    1    6    6    0    0  0.23581757450E+02  0.35220983985E+02  0.16542901690E+02  0.45500380148E+02  0.00000000000E+00 0.  1.
</event>
<event>
12    1  0.1597826E-001  0.1870604E+03  0.7818608E-02  0.1161619E+00
         21   -1    0    0  503  502  0.00000000000E+00  0.00000000000E+00  0.43977358092E+03  0.43977358092E+03  0.00000000000E+00 0. -1.
         21   -1    0    0  501  503 -0.00000000000E+00 -0.00000000000E+00 -0.78689671636E+02  0.78689671636E+02  0.00000000000E+00 0. -1.
          6    2    1    2  501    0 -0.69493344172E+02 -0.23400218319E+01  0.17887222836E+03  0.25732592505E+03  0.17142507704E+03 0.  0.
         24    2    3    3    0    0 -0.10547746280E+03  0.26853838496E+02  0.11049290608E+03  0.17459165169E+03  0.80168190345E+02 0.  0.
         -6    2    1    2    0  502  0.69493344172E+02  0.23400218319E+01  0.18221168092E+03  0.26113732751E+03  0.17365715236E+03 0.  0.
        -24    2    5    5    0    0  0.11385395334E+03  0.25382406545E+01  0.11313723603E+03  0.17891037405E+03  0.78991913581E+02 0.  0.
          5    1    3    3  501    0  0.35984118626E+02 -0.29193860328E+02  0.68379322276E+02  0.82734273364E+02  0.47000000000E+01 0. -1.
        -11    1    4    4    0    0 -0.61698880341E+02  0.55264269261E+02  0.63618803949E+02  0.10444253687E+03  0.00000000000E+00 0.  1.
         12    1    4    4    0    0 -0.43778582457E+02 -0.28410430766E+02  0.46874102135E+02  0.70149114814E+02  0.00000000000E+00 0. -1.
         -5    1    5    5    0  502 -0.44360609167E+02 -0.19821882265E+00  0.69074444897E+02  0.82226953453E+02  0.47000000000E+01 0.  1.
         11    1    6    6    0    0  0.36351484408E+02  0.17919957867E+02 -0.46552319865E+00  0.40531124096E+02  0.00000000000E+00 0. -1.
        -12    1    6    6    0    0  0.77502468932E+02 -0.15381717213E+02  0.11360275923E+03  0.13837924996E+03  0.00000000000E+00 0.  1.
</event>
<event>
12    1  0.1597826E-001  0.1727362E+03  0.7818608E-02  0.1175425E+00
         21   -1    0    0  503  502  0.00000000000E+00  0.00000000000E+00  0.85805557734E+02  0.85805557734E+02  0.00000000000E+00 0. -1.
         21   -1    0    0  501  503 -0.00000000000E+00 -0.00000000000E+00 -0.36181058182E+03  0.36181058182E+03  0.00000000000E+00 0. -1.
          6    2    1    2  501    0 -0.11845698185E+02 -0.20566392182E+02 -0.18741285595E+03  0.25487522760E+03  0.17109794275E+03 0.  0.
         24    2    3    3    0    0 -0.40077952233E+01 -0.40477267766E+02 -0.19924248544E+02  0.85959866246E+02  0.73059231427E+02 0.  0.
         -6    2    1    2    0  502  0.11845698185E+02  0.20566392182E+02 -0.88592168130E+02  0.19274091195E+03  0.16952047025E+03 0.  0.
        -24    2    5    5    0    0 -0.72421818969E+01 -0.51000327854E+02 -0.64248733537E+02  0.11463306733E+03  0.79745581227E+02 0.  0.
          5    1    3    3  501    0 -0.78379029616E+01  0.19910875584E+02 -0.16748860741E+03  0.16891536135E+03  0.47000000000E+01 0. -1.
        -11    1    4    4    0    0  0.17412779275E+02 -0.48501751225E+02 -0.31423518159E+02  0.60357785309E+02  0.00000000000E+00 0.  1.
         12    1    4    4    0    0 -0.21420574498E+02  0.80244834589E+01  0.11499269616E+02  0.25602080937E+02  0.00000000000E+00 0. -1.
         -5    1    5    5    0  502  0.19087880082E+02  0.71566720037E+02 -0.24343434593E+02  0.78107844616E+02  0.47000000000E+01 0.  1.
         11    1    6    6    0    0  0.31568210819E+02 -0.14606986632E+02 -0.47461283720E+02  0.58842921793E+02  0.00000000000E+00 0. -1.
        -12    1    6    6    0    0 -0.38810392716E+02 -0.36393341222E+02 -0.16787449816E+02  0.55790145540E+02  0.00000000000E+00 0.  1.
</event>
<event>
12    1  0.1597826E-001  0.2318357E+03  0.7818608E-02  0.1125859E+00
         21   -1    0    0  503  502  0.00000000000E+00  0.00000000000E+00  0.61423391318E+03  0.61423391318E+03  0.00000000000E+00 0. -1.
         21   -1    0    0  501  503 -0.00000000000E+00 -0.00000000000E+00 -0.92266126671E+02  0.92266126671E+02  0.00000000000E+00 0. -1.
          6    2    1    2  501    0 -0.90640445169E+02 -0.12577922862E+03  0.34837468172E+03  0.41687555560E+03  0.16847612691E+03 0.  0.
         24    2    3    3    0    0 -0.47922724772E+02 -0.12805770408E+02  0.22915697173E+03  0.24710288915E+03  0.78015029506E+02 0.  0.
         -6    2    1    2    0  502  0.90640445169E+02  0.12577922862E+03  0.17359310478E+03  0.28962448425E+03  0.17237073765E+03 0.  0.
        -24    2    5    5    0    0  0.58420601078E+02  0.15759600674E+03  0.13304564647E+03  0.22866046126E+03  0.79592678875E+02 0.  0.
          5    1    3    3  501    0 -0.42717720397E+02 -0.11297345821E+03  0.11921770999E+03  0.16977266644E+03  0.47000000000E+01 0. -1.
        -13    1    4    4    0    0 -0.37265678426E+02 -0.18682963039E+02  0.23105511850E+03  0.23478554402E+03  0.00000000000E+00 0.  1.
         14    1    4    4    0    0 -0.10657046346E+02  0.58771926310E+01 -0.18981467639E+01  0.12317345135E+02  0.00000000000E+00 0. -1.
         -5    1    5    5    0  502  0.32219844091E+02 -0.31816778118E+02  0.40547458313E+02  0.60964022987E+02  0.47000000000E+01 0.  1.
         11    1    6    6    0    0  0.50594281367E+02  0.14980807144E+03  0.14344600605E+03  0.21349237978E+03  0.00000000000E+00 0. -1.
        -12    1    6    6    0    0  0.78263197109E+01  0.77879353032E+01 -0.10400359577E+02  0.15168081482E+02  0.00000000000E+00 0.  1.
</event>
<event>
12    1  0.1597826E-001  0.3031934E+03  0.7818608E-02  0.1084053E+00
         21   -1    0    0  501  502  0.00000000000E+00  0.00000000000E+00  0.25857384217E+03  0.25857384217E+03  0.00000000000E+00 0.  1.
         21   -1    0    0  502  503 -0.00000000000E+00 -0.00000000000E+00 -0.54173405610E+03  0.54173405610E+03  0.00000000000E+00 0. -1.
         -6    2    1    2    0  503 -0.24554430097E+03 -0.14197687821E+02 -0.37805243938E+03  0.48261184940E+03  0.17174682583E+03 0.  0.
        -24    2    3    3    0    0 -0.33968530970E+02  0.66563798051E+01 -0.14103064220E+03  0.16417720787E+03  0.76592069148E+02 0.  0.
          6    2    1    2  501    0  0.24554430097E+03  0.14197687821E+02  0.94892225447E+02  0.31769604888E+03  0.17729260263E+03 0.  0.
         24    2    5    5    0    0  0.23627392276E+03  0.10547828234E+02  0.12922299538E+03  0.28164118581E+03  0.81771338191E+02 0.  0.
          5    1    5    5  501    0  0.92703782071E+01  0.36498595866E+01 -0.34330769935E+02  0.36054863076E+02  0.47000000000E+01 0. -1.
        -13    1    6    6    0    0  0.12747824105E+03  0.35638179026E+02  0.38710554613E+02  0.13791043754E+03  0.00000000000E+00 0.  1.
         14    1    6    6    0    0  0.10879568171E+03 -0.25090350792E+02  0.90512440769E+02  0.14373074826E+03  0.00000000000E+00 0. -1.
         -5    1    3    3    0  503 -0.21157577000E+03 -0.20854067626E+02 -0.23702179718E+03  0.31843464153E+03  0.47000000000E+01 0.  1.
         11    1    4    4    0    0 -0.46479456411E+02 -0.12055093533E+02 -0.13102188090E+03  0.13954353594E+03  0.00000000000E+00 0. -1.
        -12    1    4    4    0    0  0.12510925441E+02  0.18711473338E+02 -0.10008761296E+02  0.24633671926E+02  0.00000000000E+00 0.  1.
</event>
<event>
12    1  0.1597826E-001  0.1774949E+03  0.7818608E-02  0.1170687E+00
         21   -1    0    0  503  502  0.00000000000E+00  0.00000000000E+00  0.36630142935E+03  0.36630142935E+03  0.00000000000E+00 0. -1.
         21   -1    0    0  501  503 -0.00000000000E+00 -0.00000000000E+00 -0.32009788365E+03  0.32009788365E+03  0.00000000000E+00 0. -1.
          6    2    1    2  501    0 -0.31412960459E+02  0.29992350857E+02 -0.27095545681E+03  0.32295157675E+03  0.17027784986E+03 0.  0.
         24    2    3    3    0    0  0.44048157063E+02 -0.24286649564E+01 -0.12337736842E+03  0.15399334315E+03  0.80906341808E+02 0.  0.
         -6    2    1    2    0  502  0.31412960459E+02 -0.29992350857E+02  0.31715900251E+03  0.36344773625E+03  0.17209912526E+03 0.  0.
        -24    2    5    5    0    0  0.66115270930E+02 -0.13926861304E+02  0.31135425551E+03  0.32448447927E+03  0.61510310887E+02 0.  0.
          5    1    3    3  501    0 -0.75461117523E+02  0.32421015813E+02 -0.14757808840E+03  0.16895823359E+03  0.47000000000E+01 0. -1.
        -13    1    4    4    0    0  0.39871103111E+02 -0.29937350586E+02 -0.11434060675E+03  0.12473862343E+03  0.00000000000E+00 0.  1.
         14    1    4    4    0    0  0.41770539521E+01  0.27508685629E+02 -0.90367616667E+01  0.29254719725E+02  0.00000000000E+00 0. -1.
         -5    1    5    5    0  502 -0.34702310471E+02 -0.16065489553E+02  0.58047469991E+01  0.38963256978E+02  0.47000000000E+01 0.  1.
         11    1    6    6    0    0  0.33422431877E+01 -0.26825386870E+02  0.81675251124E+02  0.86032660173E+02  0.00000000000E+00 0. -1.
        -12    1    6    6    0    0  0.62773027743E+02  0.12898525567E+02  0.22967900439E+03  0.23845181909E+03  0.00000000000E+00 0.  1.
</event>
<event>
12    1  0.1597826E-001  0.1933661E+03  0.7818608E-02  0.1155509E+00
         21   -1    0    0  503  502  0.00000000000E+00  0.00000000000E+00  0.21867644185E+03  0.21867644185E+03  0.00000000000E+00 0.  1.
         21   -1    0    0  501  503 -0.00000000000E+00 -0.00000000000E+00 -0.43202496357E+03  0.43202496357E+03  0.00000000000E+00 0.  1.
          6    2    1    2  501    0  0.61757236929E+02 -0.63719140930E+02 -0.35969519460E+03  0.40837613989E+03  0.17180324031E+03 0.  0.
         24    2    3    3    0    0  0.34050171560E+02 -0.30994530565E+02 -0.68403464469E+02  0.11390790113E+03  0.78586900188E+02 0.  0.
         -6    2    1    2    0  502 -0.61757236929E+02  0.63719140930E+02  0.14634667288E+03  0.24232526553E+03  0.17155203414E+03 0.  0.
        -24    2    5    5    0    0 -0.34694663869E+02  0.10302993980E+03  0.13820465382E+03  0.19368264797E+03  0.81200699455E+02 0.  0.
          5    1    3    3  501    0  0.27707065369E+02 -0.32724610365E+02 -0.29129173013E+03  0.29446823875E+03  0.47000000000E+01 0. -1.
        -11    1    4    4    0    0  0.87967946531E+01  0.13119917631E+01 -0.72182800937E+02  0.72728685329E+02  0.00000000000E+00 0.  1.
         12    1    4    4    0    0  0.25253376907E+02 -0.32306522328E+02  0.37793364686E+01  0.41179215804E+02  0.00000000000E+00 0. -1.
         -5    1    5    5    0  502 -0.27062573060E+02 -0.39310798867E+02  0.81420190572E+01  0.48642617554E+02  0.47000000000E+01 0.  1.
         11    1    6    6    0    0  0.25031565254E+02  0.20430925969E+02  0.21903803342E+02  0.39035606769E+02  0.00000000000E+00 0. -1.
        -12    1    6    6    0    0 -0.59726229123E+02  0.82599013828E+02  0.11630085048E+03  0.15464704120E+03  0.00000000000E+00 0.  1.
</event>
<event>
12    1  0.1597826E-001  0.1732128E+03  0.7818608E-02  0.1174656E+00
         21   -1    0    0  501  502  0.00000000000E+00  0.00000000000E+00  0.60824116414E+03  0.60824116414E+03  0.00000000000E+00 0.  1.
         21   -1    0    0  502  503 -0.00000000000E+00 -0.00000000000E+00 -0.11713266683E+03  0.11713266683E+03  0.00000000000E+00 0.  1.
         -6    2    1    2    0  503  0.33613972028E+01 -0.66014727785E+01  0.52163087290E+03  0.54949239880E+03  0.17259272971E+03 0.  0.
        -24    2    3    3    0    0  0.58860903553E+02 -0.45053114350E+00  0.19875119545E+03  0.22178611965E+03  0.78881152575E+02 0.  0.
          6    2    1    2  501    0 -0.33613972028E+01  0.66014727785E+01 -0.30522375585E+02  0.17588143216E+03  0.17305428146E+03 0.  0.
         24    2    5    5    0    0  0.18989759470E+01  0.65120950069E+02 -0.12495605669E+02  0.11424333370E+03  0.93011047121E+02 0.  0.
          5    1    5    5  501    0 -0.52603731499E+01 -0.58519477291E+02 -0.18026769916E+02  0.61638098459E+02  0.47000000000E+01 0. -1.
        -11    1    6    6    0    0 -0.17775392097E+02 -0.18768389434E+02  0.49755308353E+01  0.26324378686E+02  0.00000000000E+00 0.  1.
         12    1    6    6    0    0  0.19674368044E+02  0.83889339503E+02 -0.17471136504E+02  0.87918955015E+02  0.00000000000E+00 0. -1.
         -5    1    3    3    0  503 -0.55499506350E+02 -0.61509416350E+01  0.32287967745E+03  0.32770627915E+03  0.47000000000E+01 0.  1.
         11    1    4    4    0    0  0.44581411673E+02 -0.20136519667E+01  0.33222622134E+02  0.55635417518E+02  0.00000000000E+00 0. -1.
        -12    1    4    4    0    0  0.14279491880E+02  0.15631208232E+01  0.16552857332E+03  0.16615070214E+03  0.00000000000E+00 0.  1.
</event>
<event>
12    1  0.1597826E-001  0.2152993E+03  0.7818608E-02  0.1137446E+00
         21   -1    0    0  501  502  0.00000000000E+00  0.00000000000E+00  0.54626185626E+02  0.54626185626E+02  0.00000000000E+00 0.  1.
         21   -1    0    0  502  503 -0.00000000000E+00 -0.00000000000E+00 -0.91552500305E+03  0.91552500305E+03  0.00000000000E+00 0.  1.
         -6    2    1    2    0  503  0.29791632971E+02  0.12607627616E+03 -0.56176851856E+03  0.60159628671E+03  0.17190536623E+03 0.  0.
        -24    2    3    3    0    0  0.30967839913E+02  0.77846001500E+02 -0.53268979470E+03  0.54507014199E+03  0.79523803055E+02 0.  0.
          6    2    1    2  501    0 -0.29791632971E+02 -0.12607627616E+03 -0.29913029887E+03  0.36855490196E+03  0.17196223788E+03 0.  0.
         24    2    5    5    0    0  0.41268916594E+02 -0.63578582963E+02 -0.21642981170E+03  0.24278915171E+03  0.79745527199E+02 0.  0.
          5    1    5    5  501    0 -0.71060549565E+02 -0.62497693193E+02 -0.82700487164E+02  0.12576575025E+03  0.47000000000E+01 0. -1.
        -11    1    6    6    0    0  0.46184630646E+02 -0.71425037269E+02 -0.21743157728E+03  0.23347600917E+03  0.00000000000E+00 0.  1.
         12    1    6    6    0    0 -0.49157140522E+01  0.78464543061E+01  0.10017655811E+01  0.93131425470E+01  0.00000000000E+00 0. -1.
         -5    1    3    3    0  503 -0.11762069420E+01  0.48230274655E+02 -0.29078723859E+02  0.56526144724E+02  0.47000000000E+01 0.  1.
         11    1    4    4    0    0  0.56410595417E+02  0.58585800847E+02 -0.32943340956E+03  0.33932406733E+03  0.00000000000E+00 0. -1.
        -12    1    4    4    0    0 -0.25442755504E+02  0.19260200653E+02 -0.20325638514E+03  0.20574607465E+03  0.00000000000E+00 0.  1.
</event>
<event>
12    1  0.1597826E-001  0.2616774E+03  0.7818608E-02  0.1106291E+00
         21   -1    0    0  503  502  0.00000000000E+00  0.00000000000E+00  0.89389355929E+02  0.89389355929E+02  0.00000000000E+00 0. -1.
         21   -1    0    0  501  503 -0.00000000000E+00 -0.00000000000E+00 -0.13222837370E+04  0.13222837370E+04  0.00000000000E+00 0.  1.
          6    2    1    2  501    0  0.19019198128E+03 -0.50769937482E+02 -0.10747753916E+04  0.11059335235E+04  0.17086907200E+03 0.  0.
         24    2    3    3    0    0  0.87152083442E+02 -0.72441346348E+02 -0.79380856013E+03  0.80584800089E+03  0.80098290179E+02 0.  0.
         -6    2    1    2    0  502 -0.19019198128E+03  0.50769937482E+02 -0.15811898947E+03  0.30573956940E+03  0.17240792665E+03 0.  0.
        -24    2    5    5    0    0 -0.12066366454E+03  0.49063279811E+00 -0.25321173284E+02  0.14756389083E+03  0.81080080168E+02 0.  0.
          5    1    3    3  501    0  0.10303989784E+03  0.21671408867E+02 -0.28096683149E+03  0.30008552266E+03  0.47000000000E+01 0. -1.
        -13    1    4    4    0    0  0.93968381470E+02 -0.47741930584E+02 -0.72097942281E+03  0.72864303795E+03  0.00000000000E+00 0.  1.
         14    1    4    4    0    0 -0.68162980283E+01 -0.24699415765E+02 -0.72829137326E+02  0.77204962934E+02  0.00000000000E+00 0. -1.
         -5    1    5    5    0  502 -0.69528316738E+02  0.50279304683E+02 -0.13279781618E+03  0.15817567857E+03  0.47000000000E+01 0.  1.
         11    1    6    6    0    0  0.99623833705E+01  0.10278951055E+02 -0.11544207063E+01  0.14361009867E+02  0.00000000000E+00 0. -1.
        -12    1    6    6    0    0 -0.13062604791E+03 -0.97883182573E+01 -0.24166752577E+02  0.13320288097E+03  0.00000000000E+00 0.  1.
</event>
<event>
12    1  0.1597826E-001  0.1797380E+03  0.7818608E-02  0.1168412E+00
         21   -1    0    0  501  502  0.00000000000E+00  0.00000000000E+00  0.52392920852E+02  0.52392920852E+02  0.00000000000E+00 0. -1.
         21   -1    0    0  502  503 -0.00000000000E+00 -0.00000000000E+00 -0.16717262029E+04  0.16717262029E+04  0.00000000000E+00 0. -1.
         -6    2    1    2    0  503 -0.40073710201E+02 -0.33881130260E+02 -0.14949434444E+04  0.15055360282E+04  0.17037898101E+03 0.  0.
        -24    2    3    3    0    0 -0.68047717154E+02 -0.34618096432E+02 -0.14346283555E+04  0.14388795347E+04  0.79918036355E+02 0.  0.
          6    2    1    2  501    0  0.40073710201E+02  0.33881130260E+02 -0.12438983768E+03  0.21858309554E+03  0.17190667439E+03 0.  0.
         24    2    5    5    0    0  0.48995642927E+01  0.22246173401E+02  0.73912980257E+01  0.81612476459E+02  0.78019658202E+02 0.  0.
          5    1    5    5  501    0  0.35174145908E+02  0.11634956859E+02 -0.13178113571E+03  0.13697061908E+03  0.47000000000E+01 0. -1.
        -11    1    6    6    0    0  0.11539439219E+02 -0.12742189965E+02 -0.27062641233E+02  0.32061013913E+02  0.00000000000E+00 0.  1.
         12    1    6    6    0    0 -0.66398749267E+01  0.34988363366E+02  0.34453939258E+02  0.49551462546E+02  0.00000000000E+00 0. -1.
         -5    1    3    3    0  503  0.27974006953E+02  0.73696617286E+00 -0.60315088843E+02  0.66656493504E+02  0.47000000000E+01 0.  1.
         13    1    4    4    0    0 -0.63364934996E+02  0.45736733431E+01 -0.60816754889E+03  0.61147673791E+03  0.00000000000E+00 0. -1.
        -14    1    4    4    0    0 -0.46827821582E+01 -0.39191769776E+02 -0.82646080663E+03  0.82740279681E+03  0.00000000000E+00 0.  1.
</event>
<event>
12    1  0.1597826E-001  0.1752807E+03  0.7818608E-02  0.1172596E+00
         21   -1    0    0  503  502  0.00000000000E+00  0.00000000000E+00  0.34620245962E+02  0.34620245962E+02  0.00000000000E+00 0.  1.
         21   -1    0    0  501  503 -0.00000000000E+00 -0.00000000000E+00 -0.19938148940E+04  0.19938148940E+04  0.00000000000E+00 0.  1.
          6    2    1    2  501    0  0.10758313547E+02  0.23319394505E+02 -0.17353875122E+04  0.17441589428E+04  0.17280354404E+03 0.  0.
         24    2    3    3    0    0  0.41691719760E+02 -0.12616969575E+02 -0.51738820672E+03  0.52522797839E+03  0.79224272881E+02 0.  0.
         -6    2    1    2    0  502 -0.10758313547E+02 -0.23319394505E+02 -0.22380713588E+03  0.28427619719E+03  0.17338911946E+03 0.  0.
        -24    2    5    5    0    0  0.53644666722E+02 -0.51820238203E+02 -0.12949791510E+03  0.16647822996E+03  0.73363503735E+02 0.  0.
          5    1    3    3  501    0 -0.30933406213E+02  0.35936364080E+02 -0.12179993055E+04  0.12189309644E+04  0.47000000000E+01 0. -1.
        -13    1    4    4    0    0 -0.26086341602E+01  0.12300874813E+02 -0.35156795565E+03  0.35179275708E+03  0.00000000000E+00 0.  1.
         14    1    4    4    0    0  0.44300353920E+02 -0.24917844387E+02 -0.16582025106E+03  0.17343522131E+03  0.00000000000E+00 0. -1.
         -5    1    5    5    0  502 -0.64402980269E+02  0.28500843697E+02 -0.94309220783E+02  0.11779796723E+03  0.47000000000E+01 0.  1.
         13    1    6    6    0    0  0.58200587531E+02 -0.31323007256E+02 -0.12959994655E+03  0.14548053243E+03  0.00000000000E+00 0. -1.
        -14    1    6    6    0    0 -0.45559208088E+01 -0.20497230947E+02  0.10203144883E+00  0.20997697524E+02  0.00000000000E+00 0.  1.
</event>
<event>
12    1  0.1597826E-001  0.2384544E+03  0.7818608E-02  0.1121109E+00
         21   -1    0    0  503  502  0.00000000000E+00  0.00000000000E+00  0.91640733164E+02  0.91640733164E+02  0.00000000000E+00 0. -1.
         21   -1    0    0  501  503 -0.00000000000E+00 -0.00000000000E+00 -0.20871879935E+04  0.20871879935E+04  0.00000000000E+00 0. -1.
          6    2    1    2  501    0  0.16215385483E+03 -0.17673138198E+02 -0.19134060990E+04  0.19282072966E+04  0.17393753672E+03 0.  0.
         24    2    3    3    0    0  0.43069811085E+02  0.21983323087E+02 -0.42840321788E+03  0.43790219656E+03  0.76751166378E+02 0.  0.
         -6    2    1    2    0  502 -0.16215385483E+03  0.17673138198E+02 -0.82141161328E+02  0.25062143002E+03  0.17163250959E+03 0.  0.
        -24    2    5    5    0    0 -0.35160678022E+02 -0.18663614919E+02  0.10079389020E+02  0.89455842840E+02  0.79474209240E+02 0.  0.
          5    1    3    3  501    0  0.11908404375E+03 -0.39656461285E+02 -0.14850028811E+04  0.14903051001E+04  0.47000000000E+01 0. -1.
        -13    1    4    4    0    0  0.35087559122E+02 -0.16625457638E+02 -0.32373460912E+03  0.32605465767E+03  0.00000000000E+00 0.  1.
         14    1    4    4    0    0  0.79822519629E+01  0.38608780726E+02 -0.10466860876E+03  0.11184753889E+03  0.00000000000E+00 0. -1.
         -5    1    5    5    0  502 -0.12699317681E+03  0.36336753117E+02 -0.92220550349E+02  0.16116558718E+03  0.47000000000E+01 0.  1.
         11    1    6    6    0    0 -0.54225615670E+02 -0.33822795419E+02  0.11988244418E+02  0.65023971649E+02  0.00000000000E+00 0. -1.
        -12    1    6    6    0    0  0.19064937648E+02  0.15159180500E+02 -0.19088553977E+01  0.24431871191E+02  0.00000000000E+00 0.  1.
</event>
<event>
12    1  0.1597826E-001  0.2007782E+03  0.7818608E-02  0.1149316E+00
         21   -1    0    0  501  502  0.00000000000E+00  0.00000000000E+00  0.27372248499E+03  0.27372248499E+03  0.00000000000E+00 0. -1.
         21   -1    0    0  502  503 -0.00000000000E+00 -0.00000000000E+00 -0.29688778024E+03  0.29688778024E+03  0.00000000000E+00 0.  1.
         -6    2    1    2    0  503  0.48078168411E+02  0.89607662698E+02  0.19151433812E+03  0.27667278184E+03  0.17184016705E+03 0.  0.
        -24    2    3    3    0    0  0.30082337254E+02  0.86435608497E+02  0.21465045723E+03  0.24681843753E+03  0.80426742354E+02 0.  0.
          6    2    1    2  501    0 -0.48078168411E+02 -0.89607662698E+02 -0.21467963338E+03  0.29393748338E+03  0.17312092785E+03 0.  0.
         24    2    5    5    0    0  0.20765747289E+02 -0.85862272774E+02 -0.81640374317E+02  0.14402068271E+03  0.79203915196E+02 0.  0.
          5    1    5    5  501    0 -0.68843915700E+02 -0.37453899235E+01 -0.13303925906E+03  0.14991680068E+03  0.47000000000E+01 0. -1.
        -13    1    6    6    0    0  0.30817838384E+02  0.11051045565E+01 -0.25551244693E+02  0.40047802987E+02  0.00000000000E+00 0.  1.
         14    1    6    6    0    0 -0.10052091095E+02 -0.86967377331E+02 -0.56089129625E+02  0.10397287972E+03  0.00000000000E+00 0. -1.
         -5    1    3    3    0  503  0.17995831157E+02  0.31720542012E+01 -0.23136119105E+02  0.29854344309E+02  0.47000000000E+01 0.  1.
         13    1    4    4    0    0 -0.15035734028E+01  0.78985436512E+02  0.98757056188E+02  0.12646705524E+03  0.00000000000E+00 0. -1.
        -14    1    4    4    0    0  0.31585910657E+02  0.74501719843E+01  0.11589340104E+03  0.12035138229E+03  0.00000000000E+00 0.  1.
</event>
<event>
12    1  0.1597826E-001  0.1965193E+03  0.7818608E-02  0.1155557E+00
         21   -1    0    0  501  502  0.00000000000E+00  0.00000000000E+00  0.27713300187E+02  0.27713300187E+02  0.00000000000E+00 0. -1.
         21   -1    0    0  502  503 -0.00000000000E+00 -0.00000000000E+00 -0.28627481203E+04  0.28627481203E+04  0.00000000000E+00 0.  1.
         -6    2    1    2    0  503  0.60821525488E+02 -0.42784757059E+02 -0.25050599100E+04  0.25127564524E+04  0.18190668667E+03 0.  0.
        -24    2    3    3    0    0  0.11149310973E+03 -0.21522569341E+02 -0.17208001446E+04  0.17265598104E+04  0.83436843859E+02 0.  0.
          6    2    1    2  501    0 -0.60821525488E+02  0.42784757059E+02 -0.32997491003E+03  0.37770496807E+03  0.16807084297E+03 0.  0.
         24    2    5    5    0    0 -0.97840916583E+02  0.66543893722E+01 -0.19094980759E+03  0.22929368853E+03  0.80601741457E+02 0.  0.
          5    1    5    5  501    0  0.37019391094E+02  0.36130367687E+02 -0.13902510244E+03  0.14841127954E+03  0.47000000000E+01 0. -1.
        -13    1    6    6    0    0 -0.54754830594E+02 -0.34338260379E+02 -0.75183829611E+02  0.99145427702E+02  0.00000000000E+00 0.  1.
         14    1    6    6    0    0 -0.43086085988E+02  0.40992649751E+02 -0.11576597798E+03  0.13014826083E+03  0.00000000000E+00 0. -1.
         -5    1    3    3    0  503 -0.50671584243E+02 -0.21262187718E+02 -0.78425976546E+03  0.78619664194E+03  0.47000000000E+01 0.  1.
         13    1    4    4    0    0 -0.42948441169E+01  0.60574352004E+00 -0.46244744290E+01  0.63402188405E+01  0.00000000000E+00 0. -1.
        -14    1    4    4    0    0  0.11578795385E+03 -0.22128312861E+02 -0.17161756702E+04  0.17202195916E+04  0.00000000000E+00 0.  1.
</event>
<event>
12    1  0.1597826E-001  0.1899434E+03  0.7818608E-02  0.1158652E+00
         21   -1    0    0  503  502  0.00000000000E+00  0.00000000000E+00  0.12389738420E+03  0.12389738420E+03  0.00000000000E+00 0. -1.
         21   -1    0    0  501  503 -0.00000000000E+00 -0.00000000000E+00 -0.11111693482E+04  0.11111693482E+04  0.00000000000E+00 0. -1.
          6    2    1    2  501    0 -0.78733376160E+02  0.31609283680E+01 -0.10242127097E+04  0.10415645384E+04  0.17215131981E+03 0.  0.
         24    2    3    3    0    0 -0.37264385473E+02 -0.44129486263E+02 -0.33039155157E+03  0.34488243729E+03  0.80307360952E+02 0.  0.
         -6    2    1    2    0  502  0.78733376160E+02 -0.31609283680E+01  0.36940745796E+02  0.19350219393E+03  0.17282807749E+03 0.  0.
        -24    2    5    5    0    0  0.34613749837E+02 -0.68244580111E+02  0.13420849786E+02  0.11129697111E+03  0.79696061239E+02 0.  0.
          5    1    3    3  501    0 -0.41468990686E+02  0.47290414631E+02 -0.69382115818E+03  0.69668210114E+03  0.47000000000E+01 0. -1.
        -13    1    4    4    0    0  0.14596017883E+02  0.11862583165E+02 -0.11131621311E+03  0.11289403845E+03  0.00000000000E+00 0.  1.
         14    1    4    4    0    0 -0.51860403357E+02 -0.55992069428E+02 -0.21907533846E+03  0.23198839884E+03  0.00000000000E+00 0. -1.
         -5    1    5    5    0  502  0.44119626323E+02  0.65083651743E+02  0.23519896010E+02  0.82205222823E+02  0.47000000000E+01 0.  1.
         13    1    6    6    0    0  0.49972780190E+02 -0.11226967134E+02  0.97080678184E+01  0.52130318738E+02  0.00000000000E+00 0. -1.
        -14    1    6    6    0    0 -0.15359030353E+02 -0.57017612978E+02  0.37127819675E+01  0.59166652373E+02  0.00000000000E+00 0.  1.
</event>
<event>
12    1  0.1597826E-001  0.1737372E+03  0.7818608E-02  0.1174375E+00
         21   -1    0    0  503  502  0.00000000000E+00  0.00000000000E+00  0.37422867251E+03  0.37422867251E+03  0.00000000000E+00 0.  1.
         21   -1    0    0  501  503 -0.00000000000E+00 -0.00000000000E+00 -0.88383320572E+02  0.88383320572E+02  0.00000000000E+00 0.  1.
          6    2    1    2  501    0 -0.40575737817E+02 -0.15766298921E+02  0.72165513718E+02  0.18812892382E+03  0.16819531482E+03 0.  0.
         24    2    3    3    0    0  0.34694802816E+02  0.14356423167E+02  0.19089697317E+02  0.91112610964E+02  0.80791429648E+02 0.  0.
         -6    2    1    2    0  502  0.40575737817E+02  0.15766298921E+02  0.21367983822E+03  0.27448306927E+03  0.16669407719E+03 0.  0.
        -24    2    5    5    0    0  0.25474945234E+02  0.26358199138E+02  0.23195882862E+03  0.24809303750E+03  0.80009559342E+02 0.  0.
          5    1    3    3  501    0 -0.75270540633E+02 -0.30122722087E+02  0.53075816401E+02  0.97016312854E+02  0.47000000000E+01 0. -1.
        -13    1    4    4    0    0  0.35170702500E+02 -0.27114286025E+02  0.21956133677E+02  0.49540232408E+02  0.00000000000E+00 0.  1.
         14    1    4    4    0    0 -0.47589968458E+00  0.41470709192E+02 -0.28664363607E+01  0.41572378556E+02  0.00000000000E+00 0. -1.
         -5    1    5    5    0  502  0.15100792583E+02 -0.10591900217E+02 -0.18278990393E+02  0.26390031767E+02  0.47000000000E+01 0.  1.
         13    1    6    6    0    0 -0.13252968607E+02  0.11458054566E+02  0.62488740062E+01  0.18600446706E+02  0.00000000000E+00 0. -1.
        -14    1    6    6    0    0  0.38727913841E+02  0.14900144572E+02  0.22570995461E+03  0.22949259079E+03  0.00000000000E+00 0.  1.
</event>
<event>
12    1  0.1597826E-001  0.1744455E+03  0.7818608E-02  0.1173509E+00
         21   -1    0    0  503  502  0.00000000000E+00  0.00000000000E+00  0.11805828206E+03  0.11805828206E+03  0.00000000000E+00 0.  1.
         21   -1    0    0  501  503 -0.00000000000E+00 -0.00000000000E+00 -0.26512781746E+03  0.26512781746E+03  0.00000000000E+00 0.  1.
          6    2    1    2  501    0 -0.20737832685E+02 -0.15942425541E+02 -0.38763018219E+02  0.17785339799E+03  0.17159557383E+03 0.  0.
         24    2    3    3    0    0 -0.30684705766E+02 -0.70338215125E+02 -0.25643107098E+01  0.11159422025E+03  0.80979495118E+02 0.  0.
         -6    2    1    2    0  502  0.20737832685E+02  0.15942425541E+02 -0.10830651718E+03  0.20533270154E+03  0.17247318058E+03 0.  0.
        -24    2    5    5    0    0  0.46889074434E+02 -0.40947544149E+02 -0.31890207229E+02  0.10642922069E+03  0.80217872244E+02 0.  0.
          5    1    3    3  501    0  0.99468730806E+01  0.54395789584E+02 -0.36198707509E+02  0.66259177733E+02  0.47000000000E+01 0. -1.
        -11    1    4    4    0    0 -0.21455177572E+02  0.68626037256E+01 -0.21962178509E+02  0.31460407808E+02  0.00000000000E+00 0.  1.
         12    1    4    4    0    0 -0.92295281935E+01 -0.77200818850E+02  0.19397867799E+02  0.80133812445E+02  0.00000000000E+00 0. -1.
         -5    1    5    5    0  502 -0.26151241748E+02  0.56889969689E+02 -0.76416309955E+02  0.98903480846E+02  0.47000000000E+01 0.  1.
         13    1    6    6    0    0 -0.92163095060E+01  0.14720983388E+02  0.65225316651E+01  0.18552388853E+02  0.00000000000E+00 0. -1.
        -14    1    6    6    0    0  0.56105383940E+02 -0.55668527537E+02 -0.38412738895E+02  0.87876831841E+02  0.00000000000E+00 0.  1.
</event>
<event>
12    1  0.1597826E-001  0.2328293E+03  0.7818608E-02  0.1124692E+00
         21   -1    0    0  503  502  0.00000000000E+00  0.00000000000E+00  0.25399418745E+03  0.25399418745E+03  0.00000000000E+00 0.  1.
         21   -1    0    0  501  503 -0.00000000000E+00 -0.00000000000E+00 -0.56057722428E+03  0.56057722428E+03  0.00000000000E+00 0.  1.
          6    2    1    2  501    0 -0.13974943820E+03  0.71101996750E+02 -0.47388715388E+03  0.52799482047E+03  0.17211651989E+03 0.  0.
         24    2    3    3    0    0 -0.86417986386E+02  0.15680704291E+02 -0.41340547240E+03  0.43003622103E+03  0.79455106393E+02 0.  0.
         -6    2    1    2    0  502  0.13974943820E+03 -0.71101996750E+02  0.16730411705E+03  0.28657659125E+03  0.17190135443E+03 0.  0.
        -24    2    5    5    0    0  0.12538615865E+03 -0.10145242589E+03  0.88047450116E+02  0.20037240573E+03  0.79890324856E+02 0.  0.
          5    1    3    3  501    0 -0.53331451812E+02  0.55421292459E+02 -0.60481681482E+02  0.97958599444E+02  0.47000000000E+01 0. -1.
        -11    1    4    4    0    0 -0.37835749845E+02 -0.31565863690E+02 -0.20729462684E+03  0.21307043444E+03  0.00000000000E+00 0.  1.
         12    1    4    4    0    0 -0.48582236541E+02  0.47246567980E+02 -0.20611084556E+03  0.21696578659E+03  0.00000000000E+00 0. -1.
         -5    1    5    5    0  502  0.14363279546E+02  0.30350429141E+02  0.79256666934E+02  0.86204185524E+02  0.47000000000E+01 0.  1.
         13    1    6    6    0    0  0.76174734545E+01 -0.50941019416E+02  0.30880909780E+02  0.60055340727E+02  0.00000000000E+00 0. -1.
        -14    1    6    6    0    0  0.11776868520E+03 -0.50511406475E+02  0.57166540336E+02  0.14031706500E+03  0.00000000000E+00 0.  1.
</event>
<event>
12    1  0.1597826E-001  0.1795732E+03  0.7818608E-02  0.1168914E+00
         21   -1    0    0  501  502  0.00000000000E+00  0.00000000000E+00  0.21872177718E+02  0.21872177718E+02  0.00000000000E+00 0.  1.
         21   -1    0    0  502  503 -0.00000000000E+00 -0.00000000000E+00 -0.16018978185E+04  0.16018978185E+04  0.00000000000E+00 0.  1.
         -6    2    1    2    0  503 -0.15866357261E+02  0.29903928116E+02 -0.10334521499E+04  0.10484534722E+04  0.17345129334E+03 0.  0.
        -24    2    3    3    0    0  0.15663354160E+02  0.89938851349E+01 -0.97591012738E+03  0.97942791934E+03  0.80945919202E+02 0.  0.
          6    2    1    2  501    0  0.15866357261E+02 -0.29903928116E+02 -0.54657349095E+03  0.57531652402E+03  0.17635343942E+03 0.  0.
         24    2    5    5    0    0  0.43010646644E+02 -0.81172625948E+02 -0.32212132859E+03  0.34344122346E+03  0.75834113101E+02 0.  0.
          5    1    5    5  501    0 -0.27144289383E+02  0.51268697832E+02 -0.22445216236E+03  0.23187530056E+03  0.47000000000E+01 0. -1.
        -13    1    6    6    0    0  0.32054916837E+02 -0.25804182215E+02 -0.24177215096E+03  0.24524915187E+03  0.00000000000E+00 0.  1.
         14    1    6    6    0    0  0.10955729807E+02 -0.55368443733E+02 -0.80349177633E+02  0.98192071591E+02  0.00000000000E+00 0. -1.
         -5    1    3    3    0  503 -0.31529711421E+02  0.20910042981E+02 -0.57542022500E+02  0.69025552900E+02  0.47000000000E+01 0.  1.
         11    1    4    4    0    0  0.38232967662E+02 -0.18677783265E+02 -0.36437693435E+03  0.36685306281E+03  0.00000000000E+00 0. -1.
        -12    1    4    4    0    0 -0.22569613502E+02  0.27671668400E+02 -0.61153319302E+03  0.61257485653E+03  0.00000000000E+00 0.  1.
</event>
<event>
12    1  0.1597826E-001  0.2265906E+03  0.7818608E-02  0.1129274E+00
         21   -1    0    0  503  502  0.00000000000E+00  0.00000000000E+00  0.32644510753E+03  0.32644510753E+03  0.00000000000E+00 0.  1.
         21   -1    0    0  501  503 -0.00000000000E+00 -0.00000000000E+00 -0.85211036117E+03  0.85211036117E+03  0.00000000000E+00 0.  1.
          6    2    1    2  501    0  0.10528184007E+03  0.10277068212E+03 -0.79514127795E+03  0.82647506097E+03  0.17077849852E+03 0.  0.
         24    2    3    3    0    0  0.10399673146E+03  0.50940119637E+02 -0.33289568175E+03  0.36130719889E+03  0.79455277331E+02 0.  0.
         -6    2    1    2    0  502 -0.10528184007E+03 -0.10277068212E+03  0.26947602431E+03  0.35208040772E+03  0.17232877552E+03 0.  0.
        -24    2    5    5    0    0 -0.26200353083E+02 -0.73971488968E+01  0.50841572813E+02  0.10073780130E+03  0.82595779375E+02 0.  0.
          5    1    3    3  501    0  0.12851086125E+01  0.51830562479E+02 -0.46224559620E+03  0.46516786209E+03  0.47000000000E+01 0. -1.
        -13    1    4    4    0    0  0.45796593196E+02  0.62014647078E+02 -0.22998248745E+03  0.24255945443E+03  0.00000000000E+00 0.  1.
         14    1    4    4    0    0  0.58200138263E+02 -0.11074527441E+02 -0.10291319430E+03  0.11874774446E+03  0.00000000000E+00 0. -1.
         -5    1    5    5    0  502 -0.79081486989E+02 -0.95373533219E+02  0.21863445150E+03  0.25134260643E+03  0.47000000000E+01 0.  1.
         13    1    6    6    0    0 -0.16919777446E+02 -0.33962790677E+02 -0.49360609506E+01  0.38263752000E+02  0.00000000000E+00 0. -1.
        -14    1    6    6    0    0 -0.92805756365E+01  0.26565641780E+02  0.55777633763E+02  0.62474049297E+02  0.00000000000E+00 0.  1.
</event>
<event>
12    1  0.1597826E-001  0.1985445E+03  0.7818608E-02  0.1155323E+00
         21   -1    0    0  503  502  0.00000000000E+00  0.00000000000E+00  0.12465398813E+03  0.12465398813E+03  0.00000000000E+00 0. -1.
         21   -1    0    0  501  503 -0.00000000000E+00 -0.00000000000E+00 -0.53766900632E+03  0.53766900632E+03  0.00000000000E+00 0.  1.
          6    2    1    2  501    0 -0.42163176399E+02 -0.35950607963E+02 -0.42720846077E+03  0.46327177506E+03  0.17042150380E+03 0.  0.
         24    2    3    3    0    0 -0.43660347781E+01  0.20818750679E+02 -0.35280199566E+03  0.36222823966E+03  0.79294179033E+02 0.  0.
         -6    2    1    2    0  502  0.42163176399E+02  0.35950607963E+02  0.14193442571E+02  0.19905121940E+03  0.19065611575E+03 0.  0.
        -24    2    5    5    0    0 -0.43474458612E+02  0.30867855136E+01  0.39819576592E+02  0.10369596731E+03  0.85250795652E+02 0.  0.
          5    1    3    3  501    0 -0.37797141621E+02 -0.56769358641E+02 -0.74406465107E+02  0.10104353539E+03  0.47000000000E+01 0. -1.
        -13    1    4    4    0    0 -0.26585778229E+02  0.13659821617E+02 -0.48080570018E+02  0.56613916522E+02  0.00000000000E+00 0.  1.
         14    1    4    4    0    0  0.22219743451E+02  0.71589290621E+01 -0.30472142564E+03  0.30561432314E+03  0.00000000000E+00 0. -1.
         -5    1    5    5    0  502  0.85637635011E+02  0.32863822449E+02 -0.25626134021E+02  0.95355252090E+02  0.47000000000E+01 0.  1.
         13    1    6    6    0    0 -0.28434419244E+01 -0.35354127412E+02  0.30929998242E+02  0.47060219701E+02  0.00000000000E+00 0. -1.
        -14    1    6    6    0    0 -0.40631016688E+02  0.38440912926E+02  0.88895783508E+01  0.56635747606E+02  0.00000000000E+00 0.  1.
</event>
<event>
12    1  0.1597826E-001  0.1879774E+03  0.7818608E-02  0.1160728E+00
         21   -1    0    0  503  502  0.00000000000E+00  0.00000000000E+00  0.13300123054E+04  0.13300123054E+04  0.00000000000E+00 0. -1.
         21   -1    0    0  501  503 -0.00000000000E+00 -0.00000000000E+00 -0.26363965412E+02  0.26363965412E+02  0.00000000000E+00 0. -1.
          6    2    1    2  501    0  0.69899541844E+02  0.16726177143E+02  0.61638942826E+03  0.64387341939E+03  0.17167219338E+03 0.  0.
         24    2    3    3    0    0 -0.15443884221E+02 -0.22740164065E+02  0.37834464489E+03  0.38788806561E+03  0.80974394136E+02 0.  0.
         -6    2    1    2    0  502 -0.69899541844E+02 -0.16726177143E+02  0.68725891171E+03  0.71250285140E+03  0.17369453238E+03 0.  0.
        -24    2    5    5    0    0 -0.10805316090E+03  0.12705710972E+02  0.57578457323E+03  0.59096868820E+03  0.76675908824E+02 0.  0.
          5    1    3    3  501    0  0.85343426065E+02  0.39466341208E+02  0.23804478337E+03  0.25598535378E+03  0.47000000000E+01 0. -1.
        -11    1    4    4    0    0  0.98910928861E+01 -0.42389997752E+02  0.30145471884E+03  0.30458117659E+03  0.00000000000E+00 0.  1.
         12    1    4    4    0    0 -0.25334977108E+02  0.19649833687E+02  0.76889926051E+02  0.83306889014E+02  0.00000000000E+00 0. -1.
         -5    1    5    5    0  502  0.38153619054E+02 -0.29431888115E+02  0.11147433849E+03  0.12153416320E+03  0.47000000000E+01 0.  1.
         13    1    6    6    0    0 -0.35352069887E+02 -0.31953433801E+02  0.21886176856E+03  0.22398942947E+03  0.00000000000E+00 0. -1.
        -14    1    6    6    0    0 -0.72701091011E+02  0.44659144773E+02  0.35692280467E+03  0.36697925873E+03  0.00000000000E+00 0.  1.
</event>
<event>
12    1  0.1597826E-001  0.1778122E+03  0.7818608E-02  0.1170813E+00
         21   -1    0    0  501  502  0.00000000000E+00  0.00000000000E+00  0.31371206044E+03  0.31371206044E+03  0.00000000000E+00 0. -1.
         21   -1    0    0  502  503 -0.00000000000E+00 -0.00000000000E+00 -0.12876197483E+03  0.12876197483E+03  0.00000000000E+00 0. -1.
         -6    2    1    2    0  503  0.28436719752E+02 -0.37559075702E+01 -0.13538532211E+02  0.17832688231E+03  0.17548342152E+03 0.  0.
        -24    2    3    3    0    0 -0.63676428792E+01 -0.24347936988E+02 -0.72592359927E+02  0.10659948237E+03  0.73894722486E+02 0.  0.
          6    2    1    2  501    0 -0.28436719752E+02  0.37559075702E+01  0.19848861782E+03  0.26414715297E+03  0.17191053820E+03 0.  0.
         24    2    5    5    0    0 -0.31704169264E+02 -0.64044483516E+02  0.12935243563E+03  0.16714472544E+03  0.78092614393E+02 0.  0.
          5    1    5    5  501    0  0.32674495120E+01  0.67800391086E+02  0.69136182191E+02  0.97002427525E+02  0.47000000000E+01 0. -1.
        -11    1    6    6    0    0  0.14193512093E+02 -0.33947314273E+02  0.13941789766E+02  0.39347800876E+02  0.00000000000E+00 0.  1.
         12    1    6    6    0    0 -0.45897681357E+02 -0.30097169243E+02  0.11541064586E+03  0.12779692457E+03  0.00000000000E+00 0. -1.
         -5    1    3    3    0  503  0.34804362631E+02  0.20592029418E+02  0.59053827716E+02  0.71727399936E+02  0.47000000000E+01 0.  1.
         13    1    4    4    0    0  0.25018365292E+02 -0.35770394488E+02 -0.49479444063E+02  0.65982233279E+02  0.00000000000E+00 0. -1.
        -14    1    4    4    0    0 -0.31386008172E+02  0.11422457500E+02 -0.23112915865E+02  0.40617249095E+02  0.00000000000E+00 0.  1.
</event>
<event>
12    1  0.1597826E-001  0.1933333E+03  0.7818608E-02  0.1155842E+00
         21   -1    0    0  503  502  0.00000000000E+00  0.00000000000E+00  0.88278588011E+03  0.88278588011E+03  0.00000000000E+00 0.  1.
         21   -1    0    0  501  503 -0.00000000000E+00 -0.00000000000E+00 -0.57298378563E+02  0.57298378563E+02  0.00000000000E+00 0. -1.
          6    2    1    2  501    0 -0.86403495363E+02 -0.24009812242E+02  0.65443146396E+03  0.68194099678E+03  0.16947255524E+03 0.  0.
         24    2    3    3    0    0  0.13432330294E+02 -0.27111751477E+02  0.34993207875E+03  0.36144329054E+03  0.85283749780E+02 0.  0.
         -6    2    1    2    0  502  0.86403495363E+02  0.24009812242E+02  0.17105603759E+03  0.25814326189E+03  0.17127679519E+03 0.  0.
        -24    2    5    5    0    0  0.46578851012E+02 -0.40441839653E+01  0.21847245669E+02  0.10111338388E+03  0.86952110218E+02 0.  0.
          5    1    3    3  501    0 -0.99835825657E+02  0.31019392350E+01  0.30449938521E+03  0.32049770624E+03  0.47000000000E+01 0. -1.
        -13    1    4    4    0    0  0.15363287036E+02  0.29476583217E+02  0.15064910184E+03  0.15427265289E+03  0.00000000000E+00 0.  1.
         14    1    4    4    0    0 -0.19309567418E+01 -0.56588334694E+02  0.19928297691E+03  0.20717063765E+03  0.00000000000E+00 0. -1.
         -5    1    5    5    0  502  0.39824644352E+02  0.28053996207E+02  0.14920879192E+03  0.15702987801E+03  0.47000000000E+01 0.  1.
         11    1    6    6    0    0  0.62956829196E+01  0.31454466769E+02  0.33273567697E+02  0.46218496411E+02  0.00000000000E+00 0. -1.
        -12    1    6    6    0    0  0.40283168092E+02 -0.35498650735E+02 -0.11426322028E+02  0.54894887472E+02  0.00000000000E+00 0.  1.
</event>
<event>
12    1  0.1597826E-001  0.1936332E+03  0.7818608E-02  0.1155518E+00
         21   -1    0    0  503  502  0.00000000000E+00  0.00000000000E+00  0.78049292299E+03  0.78049292299E+03  0.00000000000E+00 0. -1.
         21   -1    0    0  501  503 -0.00000000000E+00 -0.00000000000E+00 -0.10744888211E+03  0.10744888211E+03  0.00000000000E+00 0. -1.
          6    2    1    2  501    0  0.61070247098E+02 -0.64134263661E+02  0.49678081413E+01  0.19237032623E+03  0.17070115536E+03 0.  0.
         24    2    3    3    0    0  0.21428530616E+02 -0.93701745770E+02  0.15262752791E+02  0.14163791480E+03  0.10290358693E+03 0.  0.
         -6    2    1    2    0  502 -0.61070247098E+02  0.64134263661E+02  0.66807623273E+03  0.69557147887E+03  0.17219480427E+03 0.  0.
        -24    2    5    5    0    0 -0.68166752080E+02  0.10241109069E+03  0.42941294374E+03  0.45370843625E+03  0.79505542520E+02 0.  0.
          5    1    3    3  501    0  0.39641716482E+02  0.29567482109E+02 -0.10294944650E+02  0.50732411428E+02  0.47000000000E+01 0. -1.
        -13    1    4    4    0    0  0.10071924347E+02 -0.13721383570E+01 -0.34620495952E+02  0.36081922949E+02  0.00000000000E+00 0.  1.
         14    1    4    4    0    0  0.11356606269E+02 -0.92329607413E+02  0.49883248744E+02  0.10555599185E+03  0.00000000000E+00 0. -1.
         -5    1    5    5    0  502  0.70965049815E+01 -0.38276827028E+02  0.23866328900E+03  0.24186304262E+03  0.47000000000E+01 0.  1.
         13    1    6    6    0    0 -0.65477984414E+02  0.26689611432E+02  0.20784991051E+03  0.21954791527E+03  0.00000000000E+00 0. -1.
        -14    1    6    6    0    0 -0.26887676660E+01  0.75721479257E+02  0.22156303323E+03  0.23416052098E+03  0.00000000000E+00 0.  1.
</event>
<event>
12    1  0.1597826E-001  0.2563724E+03  0.7818608E-02  0.1109481E+00
         21   -1    0    0  503  502  0.00000000000E+00  0.00000000000E+00  0.43207277289E+02  0.43207277289E+02  0.00000000000E+00 0.  1.
         21   -1    0    0  501  503 -0.00000000000E+00 -0.00000000000E+00 -0.23428805913E+04  0.23428805913E+04  0.00000000000E+00 0.  1.
          6    2    1    2  501    0 -0.18905695852E+03 -0.10150042319E+02 -0.18599891614E+04  0.18775746236E+04  0.17286188011E+03 0.  0.
         24    2    3    3    0    0 -0.55441492198E+02 -0.29373872444E+02 -0.11641731385E+04  0.11687695190E+04  0.82380269313E+02 0.  0.
         -6    2    1    2    0  502  0.18905695852E+03  0.10150042319E+02 -0.43968415253E+03  0.50851324495E+03  0.17151679036E+03 0.  0.
        -24    2    5    5    0    0  0.12616425978E+03 -0.59301909105E+02 -0.30666896689E+03  0.34574287073E+03  0.77834057704E+02 0.  0.
          5    1    3    3  501    0 -0.13361546632E+03  0.19223830125E+02 -0.69581602296E+03  0.70880510460E+03  0.47000000000E+01 0. -1.
        -11    1    4    4    0    0 -0.56046652548E+02 -0.32100704320E+02 -0.45204683632E+03  0.45663773903E+03  0.00000000000E+00 0.  1.
         12    1    4    4    0    0  0.60516034921E+00  0.27268318760E+01 -0.71212630216E+03  0.71213177998E+03  0.00000000000E+00 0. -1.
         -5    1    5    5    0  502  0.62892698745E+02  0.69451951424E+02 -0.13301518564E+03  0.16277037422E+03  0.47000000000E+01 0.  1.
         13    1    6    6    0    0  0.12447801043E+02 -0.10946347391E+02 -0.12461446078E+03  0.12571210804E+03  0.00000000000E+00 0. -1.
        -14    1    6    6    0    0  0.11371645873E+03 -0.48355561715E+02 -0.18205450611E+03  0.22003076269E+03  0.00000000000E+00 0.  1.
</event>
<event>
12    1  0.1597826E-001  0.1908026E+03  0.7818608E-02  0.1157849E+00
         21   -1    0    0  503  502  0.00000000000E+00  0.00000000000E+00  0.75527042070E+03  0.75527042070E+03  0.00000000000E+00 0. -1.
         21   -1    0    0  501  503 -0.00000000000E+00 -0.00000000000E+00 -0.52168410813E+02  0.52168410813E+02  0.00000000000E+00 0. -1.
          6    2    1    2  501    0 -0.61548645068E+02 -0.54407150019E+02  0.23892586755E+03  0.30576332360E+03  0.17221285141E+03 0.  0.
         24    2    3    3    0    0  0.23449615555E+02 -0.18042818198E+02  0.17728505325E+03  0.19454844633E+03  0.74455893696E+02 0.  0.
         -6    2    1    2    0  502  0.61548645068E+02  0.54407150019E+02  0.46417614234E+03  0.50167550792E+03  0.17166959674E+03 0.  0.
        -24    2    5    5    0    0  0.84063659188E+02 -0.14596210149E+02  0.27345652114E+03  0.29755678392E+03  0.80509766840E+02 0.  0.
          5    1    3    3  501    0 -0.84998260623E+02 -0.36364331821E+02  0.61640814298E+02  0.11121487726E+03  0.47000000000E+01 0. -1.
        -11    1    4    4    0    0  0.10686818104E+02 -0.16336756616E+02  0.29557077363E+01  0.19744211966E+02  0.00000000000E+00 0.  1.
         12    1    4    4    0    0  0.12762797450E+02 -0.17060615819E+01  0.17432934552E+03  0.17480423437E+03  0.00000000000E+00 0. -1.
         -5    1    5    5    0  502 -0.22515014121E+02  0.69003360168E+02  0.19071962120E+03  0.20411872400E+03  0.47000000000E+01 0.  1.
         13    1    6    6    0    0  0.78653388073E+02  0.11457820821E+02  0.24913352890E+03  0.26150554934E+03  0.00000000000E+00 0. -1.
        -14    1    6    6    0    0  0.54102711158E+01 -0.26054030970E+02  0.24322992239E+02  0.36051234581E+02  0.00000000000E+00 0.  1.
</event>
<event>
12    1  0.1597826E-001  0.3040097E+03  0.7818608E-02  0.1083271E+00
         21   -1    0    0  503  502  0.00000000000E+00  0.00000000000E+00  0.39593950966E+03  0.39593950966E+03  0.00000000000E+00 0.  1.
         21   -1    0    0  501  503 -0.00000000000E+00 -0.00000000000E+00 -0.25919548995E+03  0.25919548995E+03  0.00000000000E+00 0. -1.
          6    2    1    2  501    0  0.19229684296E+03 -0.15995353636E+03  0.17186787722E+03  0.34910303914E+03  0.17254319780E+03 0.  0.
         24    2    3    3    0    0  0.93718468180E+02 -0.10173944831E+03  0.23473932900E+02  0.16162123007E+03  0.80226740313E+02 0.  0.
         -6    2    1    2    0  502 -0.19229684296E+03  0.15995353636E+03 -0.35123857518E+02  0.30603196047E+03  0.17279660256E+03 0.  0.
        -24    2    5    5    0    0 -0.43139179810E+02  0.97250924542E+02 -0.53317372940E+02  0.14314328681E+03  0.79552040464E+02 0.  0.
          5    1    3    3  501    0  0.98578374782E+02 -0.58214088048E+02  0.14839394432E+03  0.18748180907E+03  0.47000000000E+01 0. -1.
        -11    1    4    4    0    0  0.75191764871E+02 -0.23419850898E+02  0.19009999227E+02  0.81016485922E+02  0.00000000000E+00 0.  1.
         12    1    4    4    0    0  0.18526703308E+02 -0.78319597414E+02  0.44639336736E+01  0.80604744143E+02  0.00000000000E+00 0. -1.
         -5    1    5    5    0  502 -0.14915766315E+03  0.62702611818E+02  0.18193515422E+02  0.16288867367E+03  0.47000000000E+01 0.  1.
         13    1    6    6    0    0  0.10989537810E+02  0.71629300807E+02 -0.35282700119E+02  0.80600220863E+02  0.00000000000E+00 0. -1.
        -14    1    6    6    0    0 -0.54128717621E+02  0.25621623735E+02 -0.18034672821E+02  0.62543065945E+02  0.00000000000E+00 0.  1.
</event>
<event>
12    1  0.1597826E-001  0.1841834E+03  0.7818608E-02  0.1163885E+00
         21   -1    0    0  501  502  0.00000000000E+00  0.00000000000E+00  0.13662419155E+03  0.13662419155E+03  0.00000000000E+00 0.  1.
         21   -1    0    0  502  503 -0.00000000000E+00 -0.00000000000E+00 -0.50871645870E+03  0.50871645870E+03  0.00000000000E+00 0.  1.
         -6    2    1    2    0  503  0.64520248259E+02 -0.85842989337E+01 -0.41716160971E+03  0.45601244025E+03  0.17229911323E+03 0.  0.
        -24    2    3    3    0    0  0.46714691367E+02 -0.28086715973E+01 -0.92655884469E+02  0.13093329382E+03  0.79801400225E+02 0.  0.
          6    2    1    2  501    0 -0.64520248259E+02  0.85842989337E+01  0.45069342556E+02  0.18932821000E+03  0.17198073392E+03 0.  0.
         24    2    5    5    0    0  0.90370276388E+01 -0.47060650917E+02  0.18432181451E+02  0.93210253132E+02  0.77794815012E+02 0.  0.
          5    1    5    5  501    0 -0.73557275897E+02  0.55644949851E+02  0.26637161105E+02  0.96117956871E+02  0.47000000000E+01 0. -1.
        -13    1    6    6    0    0 -0.11962944541E+02 -0.49096451664E+02  0.38933490368E+02  0.63791772826E+02  0.00000000000E+00 0.  1.
         14    1    6    6    0    0  0.20999972180E+02  0.20358007467E+01 -0.20501308917E+02  0.29418480306E+02  0.00000000000E+00 0. -1.
         -5    1    3    3    0  503  0.17805556892E+02 -0.57756273365E+01 -0.32450572524E+03  0.32507914643E+03  0.47000000000E+01 0.  1.
         11    1    4    4    0    0 -0.11564479799E+02 -0.16828289577E+01 -0.65666264937E+02  0.66698031883E+02  0.00000000000E+00 0. -1.
        -12    1    4    4    0    0  0.58279171166E+02 -0.11258426396E+01 -0.26989619532E+02  0.64235261936E+02  0.00000000000E+00 0.  1.
</event>
<event>
12    1  0.1597826E-001  0.2440832E+03  0.7818608E-02  0.1117206E+00
         21   -1    0    0  501  502  0.00000000000E+00  0.00000000000E+00  0.21473838307E+03  0.21473838307E+03  0.00000000000E+00 0. -1.
         21   -1    0    0  502  503 -0.00000000000E+00 -0.00000000000E+00 -0.28459151218E+03  0.28459151218E+03  0.00000000000E+00 0.  1.
         -6    2    1    2    0  503 -0.17285213241E+03  0.58100171448E+01  0.66519083326E+01  0.24353774162E+03  0.17133233125E+03 0.  0.
        -24    2    3    3    0    0 -0.16795648641E+03  0.25018240366E+02  0.50724099189E+02  0.19498497449E+03  0.81307517253E+02 0.  0.
          6    2    1    2  501    0  0.17285213241E+03 -0.58100171448E+01 -0.76505037439E+02  0.25579215363E+03  0.17223527260E+03 0.  0.
         24    2    5    5    0    0  0.14897913226E+02  0.15734010544E+02 -0.24078145038E+02  0.87910202448E+02  0.81724780328E+02 0.  0.
          5    1    5    5  501    0  0.15795421918E+03 -0.21544027689E+02 -0.52426892401E+02  0.16788195118E+03  0.47000000000E+01 0. -1.
        -13    1    6    6    0    0 -0.22023806440E+01 -0.32044984444E+02 -0.17946576257E+02  0.36794172200E+02  0.00000000000E+00 0.  1.
         14    1    6    6    0    0  0.17100293870E+02  0.47778994989E+02 -0.61315687810E+01  0.51116030248E+02  0.00000000000E+00 0. -1.
         -5    1    3    3    0  503 -0.48956460016E+01 -0.19208223221E+02 -0.44072190857E+02  0.48552767130E+02  0.47000000000E+01 0.  1.
         11    1    4    4    0    0 -0.12892998994E+03 -0.58797921979E+01  0.78725999577E+01  0.12930387501E+03  0.00000000000E+00 0. -1.
        -12    1    4    4    0    0 -0.39026496465E+02  0.30898032564E+02  0.42851499232E+02  0.65681099481E+02  0.00000000000E+00 0.  1.
</event>
<event>
12    1  0.1597826E-001  0.2005561E+03  0.7818608E-02  0.1149850E+00
         21   -1    0    0  501  502  0.00000000000E+00  0.00000000000E+00  0.19263873938E+02  0.19263873938E+02  0.00000000000E+00 0. -1.
         21   -1    0    0  502  503 -0.00000000000E+00 -0.00000000000E+00 -0.23674736004E+04  0.23674736004E+04  0.00000000000E+00 0.  1.
         -6    2    1    2    0  503 -0.25158333359E+02  0.94723521578E+02 -0.15974298106E+04  0.16096317956E+04  0.17183431117E+03 0.  0.
        -24    2    3    3    0    0 -0.19141442689E+01  0.12128627694E+03 -0.90926606634E+03  0.92054740226E+03  0.76998152497E+02 0.  0.
          6    2    1    2  501    0  0.25158333359E+02 -0.94723521578E+02 -0.75077991592E+03  0.77710567875E+03  0.17497790293E+03 0.  0.
         24    2    5    5    0    0 -0.33718742060E+02 -0.61114802451E+02 -0.24329707536E+03  0.26509300363E+03  0.78796326391E+02 0.  0.
          5    1    5    5  501    0  0.58877075419E+02 -0.33608719127E+02 -0.50748284057E+03  0.51201267512E+03  0.47000000000E+01 0. -1.
        -11    1    6    6    0    0 -0.26421783215E+02 -0.80299552308E+02 -0.18890915232E+03  0.20696085756E+03  0.00000000000E+00 0.  1.
         12    1    6    6    0    0 -0.72969588444E+01  0.19184749857E+02 -0.54387923032E+02  0.58132146074E+02  0.00000000000E+00 0. -1.
         -5    1    3    3    0  503 -0.23244189090E+02 -0.26562755367E+02 -0.68816374424E+03  0.68908439337E+03  0.47000000000E+01 0.  1.
         13    1    4    4    0    0  0.12865403226E+02  0.39475331200E+02 -0.12132105232E+03  0.12822877255E+03  0.00000000000E+00 0. -1.
        -14    1    4    4    0    0 -0.14779547495E+02  0.81810945744E+02 -0.78794501403E+03  0.79231862972E+03  0.00000000000E+00 0.  1.
</event>
<event>
12    1  0.1597826E-001  0.2815346E+03  0.7818608E-02  0.1094944E+00
         21   -1    0    0  501  502  0.00000000000E+00  0.00000000000E+00  0.45463272362E+03  0.45463272362E+03  0.00000000000E+00 0.  1.
         21   -1    0    0  502  503 -0.00000000000E+00 -0.00000000000E+00 -0.37379024090E+03  0.37379024090E+03  0.00000000000E+00 0. -1.
         -6    2    1    2    0  503  0.16600172989E+03 -0.14896251918E+03 -0.26248052748E+03  0.38442699585E+03  0.17070934768E+03 0.  0.
        -24    2    3    3    0    0  0.14885451290E+03 -0.98130754698E+02 -0.11255006492E+03  0.22511871315E+03  0.78889840106E+02 0.  0.
          6    2    1    2  501    0 -0.16600172989E+03  0.14896251918E+03  0.34332301021E+03  0.44399596867E+03  0.17180024567E+03 0.  0.
         24    2    5    5    0    0 -0.13689610018E+03  0.35643728352E+02  0.21301635136E+03  0.26880977808E+03  0.82895797403E+02 0.  0.
          5    1    5    5  501    0 -0.29105629704E+02  0.11331879083E+03  0.13030665884E+03  0.17518619059E+03  0.47000000000E+01 0. -1.
        -11    1    6    6    0    0 -0.12030644522E+03  0.13033018767E+02  0.20753090735E+03  0.24023442269E+03  0.00000000000E+00 0.  1.
         12    1    6    6    0    0 -0.16589654960E+02  0.22610709584E+02  0.54854440144E+01  0.28575355390E+02  0.00000000000E+00 0. -1.
         -5    1    3    3    0  503  0.17147216989E+02 -0.50831764482E+02 -0.14993046257E+03  0.15930828270E+03  0.47000000000E+01 0.  1.
         13    1    4    4    0    0  0.73687081153E+02 -0.78290779563E+02 -0.29775469216E+02  0.11156079356E+03  0.00000000000E+00 0. -1.
        -14    1    4    4    0    0  0.75167431742E+02 -0.19839975135E+02 -0.82774595701E+02  0.11355791959E+03  0.00000000000E+00 0.  1.
</event>
<event>
12    1  0.1597826E-001  0.2087484E+03  0.7818608E-02  0.1142641E+00
         21   -1    0    0  503  502  0.00000000000E+00  0.00000000000E+00  0.54839933969E+03  0.54839933969E+03  0.00000000000E+00 0. -1.
         21   -1    0    0  501  503 -0.00000000000E+00 -0.00000000000E+00 -0.84662992422E+02  0.84662992422E+02  0.00000000000E+00 0. -1.
          6    2    1    2  501    0 -0.30712834515E+01  0.11857361785E+03  0.15246895924E+03  0.25850084137E+03  0.17177533532E+03 0.  0.
         24    2    3    3    0    0  0.30820378101E+02  0.39237002828E+01  0.37588304885E+02  0.92630702207E+02  0.78754524930E+02 0.  0.
         -6    2    1    2    0  502  0.30712834515E+01 -0.11857361785E+03  0.31126738803E+03  0.37456149074E+03  0.17128860984E+03 0.  0.
        -24    2    5    5    0    0  0.11473086855E+02 -0.11970064548E+03  0.32626098536E+03  0.35670768295E+03  0.79588091185E+02 0.  0.
          5    1    3    3  501    0 -0.33891661552E+02  0.11464991757E+03  0.11488065436E+03  0.16587013917E+03  0.47000000000E+01 0. -1.
        -13    1    4    4    0    0 -0.26165188246E+02  0.36077744744E+01  0.46779001683E+01  0.26823792845E+02  0.00000000000E+00 0.  1.
         14    1    4    4    0    0  0.56985566347E+02  0.31592580840E+00  0.32910404717E+02  0.65806909361E+02  0.00000000000E+00 0. -1.
         -5    1    5    5    0  502 -0.84018034031E+01  0.11270276220E+01 -0.14993597331E+02  0.17853807790E+02  0.47000000000E+01 0.  1.
         11    1    6    6    0    0 -0.48170198350E+01 -0.49019800832E+01 -0.30954584440E+01  0.75375693566E+01  0.00000000000E+00 0. -1.
        -12    1    6    6    0    0  0.16290106690E+02 -0.11479866539E+03  0.32935644380E+03  0.34917011359E+03  0.00000000000E+00 0.  1.
</event>
<event>
12    1  0.1597826E-001  0.1846897E+03  0.7818608E-02  0.1164334E+00
         21   -1    0    0  501  502  0.00000000000E+00  0.00000000000E+00  0.53750312315E+03  0.53750312315E+03  0.00000000000E+00 0.  1.
         21   -1    0    0  502  503 -0.00000000000E+00 -0.00000000000E+00 -0.63534487625E+02  0.63534487625E+02  0.00000000000E+00 0.  1.
         -6    2    1    2    0  503 -0.45604879398E+02 -0.97073046257E+01  0.19334563674E+03  0.26738143977E+03  0.17870719711E+03 0.  0.
        -24    2    3    3    0    0  0.10098988708E+01  0.25528068605E+02  0.19093570147E+03  0.20870975267E+03  0.80315730586E+02 0.  0.
          6    2    1    2  501    0  0.45604879398E+02  0.97073046257E+01  0.28062299878E+03  0.33365617100E+03  0.17436495122E+03 0.  0.
         24    2    5    5    0    0  0.72160805803E+02 -0.30796739302E+01  0.28537340318E+03  0.30343398727E+03  0.73603934014E+02 0.  0.
          5    1    5    5  501    0 -0.26555926405E+02  0.12786978556E+02 -0.47504043921E+01  0.30222183735E+02  0.47000000000E+01 0. -1.
        -13    1    6    6    0    0  0.72795852227E+02  0.22236243118E+02  0.18806866552E+03  0.20288792364E+03  0.00000000000E+00 0.  1.
         14    1    6    6    0    0 -0.63504642396E+00 -0.25315917048E+02  0.97304737654E+02  0.10054606362E+03  0.00000000000E+00 0. -1.
         -5    1    3    3    0  503 -0.46614778269E+02 -0.35235373231E+02  0.24099352684E+01  0.58671687105E+02  0.47000000000E+01 0.  1.
         11    1    4    4    0    0  0.28456493600E+02 -0.17181685856E+02  0.83863654681E+02  0.90211390263E+02  0.00000000000E+00 0. -1.
        -12    1    4    4    0    0 -0.27446594729E+02  0.42709754462E+02  0.10707204679E+03  0.11849836240E+03  0.00000000000E+00 0.  1.
</event>
<event>
12    1  0.1597826E-001  0.1938855E+03  0.7818608E-02  0.1155248E+00
         21   -1    0    0  501  502  0.00000000000E+00  0.00000000000E+00  0.35451269740E+03  0.35451269740E+03  0.00000000000E+00 0. -1.
         21   -1    0    0  502  503 -0.00000000000E+00 -0.00000000000E+00 -0.17711858250E+03  0.17711858250E+03  0.00000000000E+00 0.  1.
         -6    2    1    2    0  503  0.41472905206E+02 -0.77880376038E+02  0.25765602711E+03  0.32178949004E+03  0.17139571977E+03 0.  0.
        -24    2    3    3    0    0  0.60682457064E+02 -0.22112550143E+01  0.20424434714E+03  0.22708088263E+03  0.78503016993E+02 0.  0.
          6    2    1    2  501    0 -0.41472905206E+02  0.77880376038E+02 -0.80261912207E+02  0.20984178986E+03  0.17264485912E+03 0.  0.
         24    2    5    5    0    0  0.11688224634E+02  0.75606401001E+02  0.64599906276E+01  0.10798868426E+03  0.75939989347E+02 0.  0.
          5    1    5    5  501    0 -0.53161129840E+02  0.22739750368E+01 -0.86721902835E+02  0.10185310560E+03  0.47000000000E+01 0. -1.
        -11    1    6    6    0    0 -0.19802879593E+02  0.72516364737E+02 -0.21274992239E+01  0.75201751627E+02  0.00000000000E+00 0.  1.
         12    1    6    6    0    0  0.31491104227E+02  0.30900362639E+01  0.85874898516E+01  0.32786932633E+02  0.00000000000E+00 0. -1.
         -5    1    3    3    0  503 -0.19209551857E+02 -0.75669121024E+02  0.53411679973E+02  0.94708607405E+02  0.47000000000E+01 0.  1.
         13    1    4    4    0    0  0.68622425301E+02  0.14964548676E+02  0.10685896234E+03  0.12787420695E+03  0.00000000000E+00 0. -1.
        -14    1    4    4    0    0 -0.79399682369E+01 -0.17175803691E+02  0.97385384799E+02  0.99206675685E+02  0.00000000000E+00 0.  1.
</event>
<event>
12    1  0.1597826E-001  0.2354729E+03  0.7818608E-02  0.1123152E+00
         21   -1    0    0  503  502  0.00000000000E+00  0.00000000000E+00  0.30041368586E+03  0.30041368586E+03  0.00000000000E+00 0.  1.
         21   -1    0    0  501  503 -0.00000000000E+00 -0.00000000000E+00 -0.18416535448E+03  0.18416535448E+03  0.00000000000E+00 0. -1.
          6    2    1    2  501    0 -0.57850210913E+02  0.14901545262E+03  0.40557501011E+02  0.23894013201E+03  0.17290235329E+03 0.  0.
         24    2    3    3    0    0 -0.16457732912E+02  0.14324143745E+03 -0.19506920416E+02  0.16561550308E+03  0.79113896012E+02 0.  0.
         -6    2    1    2    0  502  0.57850210913E+02 -0.14901545262E+03  0.75690830366E+02  0.24563890833E+03  0.17046148967E+03 0.  0.
        -24    2    5    5    0    0  0.86513397391E+02 -0.10402711151E+03  0.49175623796E+01  0.15688940379E+03  0.79271020831E+02 0.  0.
          5    1    3    3  501    0 -0.41392478001E+02  0.57740151737E+01  0.60064421426E+02  0.73324628929E+02  0.47000000000E+01 0. -1.
        -11    1    4    4    0    0 -0.15770052955E+01 -0.42067488173E+01  0.13121196552E+02  0.13869011510E+02  0.00000000000E+00 0.  1.
         12    1    4    4    0    0 -0.14880727617E+02  0.14744818627E+03 -0.32628116968E+02  0.15174649157E+03  0.00000000000E+00 0. -1.
         -5    1    5    5    0  502 -0.28663186478E+02 -0.44988341115E+02  0.70773267986E+02  0.88749504544E+02  0.47000000000E+01 0.  1.
         13    1    6    6    0    0  0.57096750370E+02 -0.66801062325E+02  0.41301273122E+02  0.97099000984E+02  0.00000000000E+00 0. -1.
        -14    1    6    6    0    0  0.29416647022E+02 -0.37226049183E+02 -0.36383710743E+02  0.59790402802E+02  0.00000000000E+00 0.  1.
</event>
<event>
12    1  0.1597826E-001  0.1881546E+03  0.7818608E-02  0.1161112E+00
         21   -1    0    0  503  502  0.00000000000E+00  0.00000000000E+00  0.34063527721E+03  0.34063527721E+03  0.00000000000E+00 0. -1.
         21   -1    0    0  501  503 -0.00000000000E+00 -0.00000000000E+00 -0.16353534992E+03  0.16353534992E+03  0.00000000000E+00 0. -1.
          6    2    1    2  501    0 -0.46439060947E+01 -0.74821756844E+02 -0.65941528069E+02  0.19937510768E+03  0.17257545386E+03 0.  0.
         24    2    3    3    0    0  0.63616468732E+02 -0.51546959576E+02 -0.31829944318E+02  0.11945711780E+03  0.80948832623E+02 0.  0.
         -6    2    1    2    0  502  0.46439060947E+01  0.74821756844E+02  0.24304145536E+03  0.30479551945E+03  0.16796219364E+03 0.  0.
        -24    2    5    5    0    0 -0.19627300890E+02  0.10803161215E+03  0.15763774865E+03  0.20988572491E+03  0.84535776804E+02 0.  0.
          5    1    3    3  501    0 -0.68260374826E+02 -0.23274797268E+02 -0.34111583751E+02  0.79917989873E+02  0.47000000000E+01 0. -1.
        -13    1    4    4    0    0  0.56711161273E+02 -0.73041968080E+02 -0.23710227441E+02  0.95464442591E+02  0.00000000000E+00 0.  1.
         14    1    4    4    0    0  0.69053074586E+01  0.21495008503E+02 -0.81197168769E+01  0.23992675212E+02  0.00000000000E+00 0. -1.
         -5    1    5    5    0  502  0.24271206984E+02 -0.33209855309E+02  0.85403706712E+02  0.94909794533E+02  0.47000000000E+01 0.  1.
         11    1    6    6    0    0  0.31246271403E+02  0.49760784498E+02  0.48917042021E+02  0.76454837327E+02  0.00000000000E+00 0. -1.
        -12    1    6    6    0    0 -0.50873572293E+02  0.58270827655E+02  0.10872070663E+03  0.13343088759E+03  0.00000000000E+00 0.  1.
</event>
<event>
12    1  0.1597826E-001  0.1930704E+03  0.7818608E-02  0.1155758E+00
         21   -1    0    0  501  502  0.00000000000E+00  0.00000000000E+00  0.96198835075E+03  0.96198835075E+03  0.00000000000E+00 0.  1.
         21   -1    0    0  502  503 -0.00000000000E+00 -0.00000000000E+00 -0.40119044200E+02  0.40119044200E+02  0.00000000000E+00 0.  1.
         -6    2    1    2    0  503 -0.57207153723E+01  0.88999113470E+02  0.36702747234E+03  0.41463344479E+03  0.17105016604E+03 0.  0.
        -24    2    3    3    0    0  0.59641038524E+02  0.29831224109E+02  0.20470852819E+03  0.22985647752E+03  0.80507535889E+02 0.  0.
          6    2    1    2  501    0  0.57207153723E+01 -0.88999113470E+02  0.55484183421E+03  0.58747395016E+03  0.17123846632E+03 0.  0.
         24    2    5    5    0    0  0.46444114872E+02 -0.28330909008E+02  0.44715061761E+03  0.45724908912E+03  0.78570722695E+02 0.  0.
          5    1    5    5  501    0 -0.40723399500E+02 -0.60668204462E+02  0.10769121660E+03  0.13022486104E+03  0.47000000000E+01 0. -1.
        -13    1    6    6    0    0 -0.14647057522E+02 -0.19576157873E+02  0.23603198196E+03  0.23729487723E+03  0.00000000000E+00 0.  1.
         14    1    6    6    0    0  0.61091172394E+02 -0.87547511344E+01  0.21111863565E+03  0.21995421189E+03  0.00000000000E+00 0. -1.
         -5    1    3    3    0  503 -0.65361753897E+02  0.59167889361E+02  0.16231894415E+03  0.18477696727E+03  0.47000000000E+01 0.  1.
         11    1    4    4    0    0  0.45660719112E+02 -0.35995768588E+01  0.18063735449E+03  0.18635372832E+03  0.00000000000E+00 0. -1.
        -12    1    4    4    0    0  0.13980319413E+02  0.33430800967E+02  0.24071173704E+02  0.43502749197E+02  0.00000000000E+00 0.  1.
</event>
<event>
12    1  0.1597826E-001  0.1833053E+03  0.7818608E-02  0.1165079E+00
         21   -1    0    0  503  502  0.00000000000E+00  0.00000000000E+00  0.15243008095E+03  0.15243008095E+03  0.00000000000E+00 0. -1.
         21   -1    0    0  501  503 -0.00000000000E+00 -0.00000000000E+00 -0.42003308128E+03  0.42003308128E+03  0.00000000000E+00 0. -1.
          6    2    1    2  501    0  0.58414732812E+02 -0.24689284186E+02 -0.33255025285E+03  0.37972422372E+03  0.17198538788E+03 0.  0.
         24    2    3    3    0    0  0.19234014964E+02  0.39214157196E+02 -0.25712365092E+03  0.27328155957E+03  0.81624392710E+02 0.  0.
         -6    2    1    2    0  502 -0.58414732812E+02  0.24689284186E+02  0.64947252518E+02  0.19273893851E+03  0.17002444249E+03 0.  0.
        -24    2    5    5    0    0 -0.59367652741E+02  0.28936071052E+02  0.10789947522E+03  0.14931168105E+03  0.79308681397E+02 0.  0.
          5    1    3    3  501    0  0.39180717848E+02 -0.63903441382E+02 -0.75426601932E+02  0.10644266415E+03  0.47000000000E+01 0. -1.
        -11    1    4    4    0    0 -0.11831817568E+02 -0.12465983016E+01 -0.79223339715E+00  0.11923654978E+02  0.00000000000E+00 0.  1.
         12    1    4    4    0    0  0.31065832531E+02  0.40460755498E+02 -0.25633141752E+03  0.26135790459E+03  0.00000000000E+00 0. -1.
         -5    1    5    5    0  502  0.95291992919E+00 -0.42467868662E+01 -0.42952222706E+02  0.43427257459E+02  0.47000000000E+01 0.  1.
         13    1    6    6    0    0 -0.15671367349E+02  0.50094543280E+02  0.71179424572E+02  0.88439615012E+02  0.00000000000E+00 0. -1.
        -14    1    6    6    0    0 -0.43696285392E+02 -0.21158472228E+02  0.36720050651E+02  0.60872066039E+02  0.00000000000E+00 0.  1.
</event>
<event>
12    1  0.1597826E-001  0.1943608E+03  0.7818608E-02  0.1156339E+00
         21   -1    0    0  501  502  0.00000000000E+00  0.00000000000E+00  0.21030955182E+03  0.21030955182E+03  0.00000000000E+00 0.  1.
         21   -1    0    0  502  503 -0.00000000000E+00 -0.00000000000E+00 -0.24552501496E+03  0.24552501496E+03  0.00000000000E+00 0.  1.
         -6    2    1    2    0  503  0.46546011010E+02  0.77007684039E+02 -0.14217954320E+03  0.24081346449E+03  0.17227706647E+03 0.  0.
        -24    2    3    3    0    0  0.24223058051E+02 -0.98776306935E+01 -0.12102765944E+03  0.14852660555E+03  0.82025203923E+02 0.  0.
          6    2    1    2  501    0 -0.46546011010E+02 -0.77007684039E+02  0.10696408006E+03  0.21502110230E+03  0.16338924527E+03 0.  0.
         24    2    5    5    0    0  0.39289159092E+01 -0.11072740614E+02  0.22606363791E+01  0.81304849994E+02  0.80419687831E+02 0.  0.
          5    1    5    5  501    0 -0.50474926919E+02 -0.65934943425E+02  0.10470344368E+03  0.13371625230E+03  0.47000000000E+01 0. -1.
        -13    1    6    6    0    0  0.11531691587E+02 -0.36502392318E+02  0.25525218282E+02  0.46010230646E+02  0.00000000000E+00 0.  1.
         14    1    6    6    0    0 -0.76027756780E+01  0.25429651704E+02 -0.23264581903E+02  0.35294619348E+02  0.00000000000E+00 0. -1.
         -5    1    3    3    0  503  0.22322952959E+02  0.86885314733E+02 -0.21151883763E+02  0.92286858933E+02  0.47000000000E+01 0.  1.
         11    1    4    4    0    0  0.34788748688E+02  0.12546468879E+02 -0.11787272869E+03  0.12353805521E+03  0.00000000000E+00 0. -1.
        -12    1    4    4    0    0 -0.10565690637E+02 -0.22424099572E+02 -0.31549307506E+01  0.24988550344E+02  0.00000000000E+00 0.  1.
</event>
<event>
12    1  0.1597826E-001  0.1720066E+03  0.7818608E-02  0.1175899E+00
         21   -1    0    0  503  502  0.00000000000E+00  0.00000000000E+00  0.29610036666E+02  0.29610036666E+02  0.00000000000E+00 0. -1.
         21   -1    0    0  501  503 -0.00000000000E+00 -0.00000000000E+00 -0.12399798315E+04  0.12399798315E+04  0.00000000000E+00 0. -1.
          6    2    1    2  501    0 -0.10373006642E+01 -0.53367934064E+01 -0.88588274868E+03  0.90233232846E+03  0.17142295416E+03 0.  0.
         24    2    3    3    0    0  0.97556271990E+01 -0.34922141189E+02 -0.84884418709E+03  0.85348844307E+03  0.81187069692E+02 0.  0.
         -6    2    1    2    0  502  0.10373006642E+01  0.53367934064E+01 -0.32448704618E+03  0.36725753974E+03  0.17192062121E+03 0.  0.
        -24    2    5    5    0    0  0.62291805359E+02 -0.26276365778E+01 -0.25411036843E+03  0.27349980266E+03  0.79642257770E+02 0.  0.
          5    1    3    3  501    0 -0.10792927863E+02  0.29585347783E+02 -0.37038561592E+02  0.48843885391E+02  0.47000000000E+01 0. -1.
        -13    1    4    4    0    0  0.34037915531E+02 -0.32965344648E+02 -0.26961663953E+03  0.27374883735E+03  0.00000000000E+00 0.  1.
         14    1    4    4    0    0 -0.24282288332E+02 -0.19567965417E+01 -0.57922754756E+03  0.57973960571E+03  0.00000000000E+00 0. -1.
         -5    1    5    5    0  502 -0.61254504695E+02  0.79644299842E+01 -0.70376677745E+02  0.93757737072E+02  0.47000000000E+01 0.  1.
         11    1    6    6    0    0  0.35035551190E+02  0.11829742219E+02 -0.30964378424E+02  0.48230958723E+02  0.00000000000E+00 0. -1.
        -12    1    6    6    0    0  0.27256254169E+02 -0.14457378797E+02 -0.22314599001E+03  0.22526884394E+03  0.00000000000E+00 0.  1.
</event>
<event>
12    1  0.1597826E-001  0.2615140E+03  0.7818608E-02  0.1106308E+00
         21   -1    0    0  501  502  0.00000000000E+00  0.00000000000E+00  0.61072725330E+03  0.61072725330E+03  0.00000000000E+00 0.  1.
         21   -1    0    0  502  503 -0.00000000000E+00 -0.00000000000E+00 -0.45328049625E+03  0.45328049625E+03  0.00000000000E+00 0.  1.
         -6    2    1    2    0  503 -0.11539918545E+03 -0.15895110069E+03 -0.38306799074E+03  0.46355313762E+03  0.17192440623E+03 0.  0.
        -24    2    3    3    0    0 -0.95228384530E+02 -0.15697382465E+03 -0.21349003318E+03  0.29270365849E+03  0.79926282157E+02 0.  0.
          6    2    1    2  501    0  0.11539918545E+03  0.15895110069E+03  0.54051474779E+03  0.60045461194E+03  0.17264739790E+03 0.  0.
         24    2    5    5    0    0  0.14510011789E+02  0.19031585201E+02  0.23878957768E+03  0.25286827093E+03  0.79681606132E+02 0.  0.
          5    1    5    5  501    0  0.10088917366E+03  0.13991951549E+03  0.30172517011E+03  0.34758634101E+03  0.47000000000E+01 0. -1.
        -13    1    6    6    0    0 -0.10100586267E+02  0.44316705681E+02  0.10326674029E+03  0.11282735438E+03  0.00000000000E+00 0.  1.
         14    1    6    6    0    0  0.24610598056E+02 -0.25285120480E+02  0.13552283739E+03  0.14004091655E+03  0.00000000000E+00 0. -1.
         -5    1    3    3    0  503 -0.20170800922E+02 -0.19772760403E+01 -0.16957795756E+03  0.17084947913E+03  0.47000000000E+01 0.  1.
         13    1    4    4    0    0 -0.10391252468E+03 -0.11862766635E+03 -0.14774606973E+03  0.21610006277E+03  0.00000000000E+00 0. -1.
        -14    1    4    4    0    0  0.86841401500E+01 -0.38346158300E+02 -0.65743963453E+02  0.76603595718E+02  0.00000000000E+00 0.  1.
</event>
<event>
12    1  0.1597826E-001  0.2846092E+03  0.7818608E-02  0.1094846E+00
         21   -1    0    0  501  502  0.00000000000E+00  0.00000000000E+00  0.43861352507E+03  0.43861352507E+03  0.00000000000E+00 0. -1.
         21   -1    0    0  502  503 -0.00000000000E+00 -0.00000000000E+00 -0.17743837561E+03  0.17743837561E+03  0.00000000000E+00 0.  1.
         -6    2    1    2    0  503 -0.29557558797E+02  0.20926327604E+03  0.11717490337E+03  0.30778621505E+03  0.19062431170E+03 0.  0.
        -24    2    3    3    0    0 -0.57192994721E+02  0.12809062852E+03  0.14516594580E+03  0.21746288207E+03  0.80862262499E+02 0.  0.
          6    2    1    2  501    0  0.29557558797E+02 -0.20926327604E+03  0.14400024609E+03  0.30826568563E+03  0.17212464694E+03 0.  0.
         24    2    5    5    0    0  0.32586322755E+02 -0.21428977389E+03  0.81154065553E+02  0.24497136124E+03  0.80268361439E+02 0.  0.
          5    1    5    5  501    0 -0.30287639582E+01  0.50264978517E+01  0.62846180540E+02  0.63294324392E+02  0.47000000000E+01 0. -1.
        -11    1    6    6    0    0 -0.26675096204E+02 -0.80542058398E+02  0.30593421793E+02  0.90191692442E+02  0.00000000000E+00 0.  1.
         12    1    6    6    0    0  0.59261418959E+02 -0.13374771549E+03  0.50560643760E+02  0.15477966880E+03  0.00000000000E+00 0. -1.
         -5    1    3    3    0  503  0.27635435924E+02  0.81172647519E+02 -0.27991042431E+02  0.90323332979E+02  0.47000000000E+01 0.  1.
         13    1    4    4    0    0 -0.19100409756E+02  0.14746267141E+02  0.75080431960E+02  0.78862851272E+02  0.00000000000E+00 0. -1.
        -14    1    4    4    0    0 -0.38092584965E+02  0.11334436138E+03  0.70085513842E+02  0.13860003080E+03  0.00000000000E+00 0.  1.
</event>
<event>
12    1  0.1597826E-001  0.1913728E+03  0.7818608E-02  0.1157370E+00
         21   -1    0    0  503  502  0.00000000000E+00  0.00000000000E+00  0.95816986529E+02  0.95816986529E+02  0.00000000000E+00 0.  1.
         21   -1    0    0  501  503 -0.00000000000E+00 -0.00000000000E+00 -0.41985133338E+03  0.41985133338E+03  0.00000000000E+00 0.  1.
          6    2    1    2  501    0  0.28023704646E+02 -0.78210640283E+02 -0.24024201829E+03  0.30675519772E+03  0.17169825771E+03 0.  0.
         24    2    3    3    0    0  0.17616867013E+02 -0.12616265803E+02 -0.22201619094E+03  0.23772480575E+03  0.82172806108E+02 0.  0.
         -6    2    1    2    0  502 -0.28023704646E+02  0.78210640283E+02 -0.83792328554E+02  0.20891312218E+03  0.17239868335E+03 0.  0.
        -24    2    5    5    0    0  0.15808024206E+02  0.10932425699E+03 -0.57406724958E+02  0.14885009132E+03  0.81603497596E+02 0.  0.
          5    1    3    3  501    0  0.10406837633E+02 -0.65594374480E+02 -0.18225827353E+02  0.69030391970E+02  0.47000000000E+01 0. -1.
        -11    1    4    4    0    0  0.12471508243E+02 -0.47052853077E+02 -0.15062403587E+03  0.15829437666E+03  0.00000000000E+00 0.  1.
         12    1    4    4    0    0  0.51453587701E+01  0.34436587274E+02 -0.71392155066E+02  0.79430429087E+02  0.00000000000E+00 0. -1.
         -5    1    5    5    0  502 -0.43831728852E+02 -0.31113616711E+02 -0.26385603597E+02  0.60063030861E+02  0.47000000000E+01 0.  1.
         13    1    6    6    0    0 -0.15799992586E+02 -0.38639827117E+01  0.32708301380E+01  0.16591216288E+02  0.00000000000E+00 0. -1.
        -14    1    6    6    0    0  0.31608016792E+02  0.11318823971E+03 -0.60677555096E+02  0.13225887504E+03  0.00000000000E+00 0.  1.
</event>
<event>
12    1  0.1597826E-001  0.1754963E+03  0.7818608E-02  0.1172491E+00
         21   -1    0    0  503  502  0.00000000000E+00  0.00000000000E+00  0.13475455787E+04  0.13475455787E+04  0.00000000000E+00 0. -1.
         21   -1    0    0  501  503 -0.00000000000E+00 -0.00000000000E+00 -0.26756173441E+02  0.26756173441E+02  0.00000000000E+00 0. -1.
          6    2    1    2  501    0  0.19242095484E+02  0.20456579394E+02  0.39194931277E+03  0.42902779546E+03  0.17219714172E+03 0.  0.
         24    2    3    3    0    0 -0.39643843479E+02 -0.38815854872E+01  0.32340107324E+03  0.33532159919E+03  0.79155667357E+02 0.  0.
         -6    2    1    2    0  502 -0.19242095484E+02 -0.20456579394E+02  0.92884009246E+03  0.94527395665E+03  0.17323454012E+03 0.  0.
        -24    2    5    5    0    0 -0.30662306771E+02 -0.26411833219E+02  0.92762285085E+03  0.93150958413E+03  0.74754196625E+02 0.  0.
          5    1    3    3  501    0  0.58885938964E+02  0.24338164881E+02  0.68548239531E+02  0.93706196274E+02  0.47000000000E+01 0. -1.
        -13    1    4    4    0    0 -0.57683004166E+02  0.14859500309E+02  0.26109539316E+03  0.26780391716E+03  0.00000000000E+00 0.  1.
         14    1    4    4    0    0  0.18039160687E+02 -0.18741085796E+02  0.62305680084E+02  0.67517682024E+02  0.00000000000E+00 0. -1.
         -5    1    5    5    0  502  0.11420211286E+02  0.59552538254E+01  0.12172416101E+01  0.13764372528E+02  0.47000000000E+01 0.  1.
         13    1    6    6    0    0 -0.37846057129E+02 -0.43528820485E+02  0.47240636844E+03  0.47591476043E+03  0.00000000000E+00 0. -1.
        -14    1    6    6    0    0  0.71837503586E+01  0.17116987266E+02  0.45521648241E+03  0.45559482370E+03  0.00000000000E+00 0.  1.
</event>
<event>
12    1  0.1597826E-001  0.2073466E+03  0.7818608E-02  0.1143869E+00
         21   -1    0    0  501  502  0.00000000000E+00  0.00000000000E+00  0.18477259577E+03  0.18477259577E+03  0.00000000000E+00 0.  1.
         21   -1    0    0  502  503 -0.00000000000E+00 -0.00000000000E+00 -0.28085231730E+03  0.28085231730E+03  0.00000000000E+00 0. -1.
         -6    2    1    2    0  503  0.91140349423E+02  0.68725356516E+02 -0.14556624909E+03  0.25334193236E+03  0.17309784487E+03 0.  0.
        -24    2    3    3    0    0  0.11345965385E+03  0.31984502111E+02 -0.54368048409E+02  0.15241005663E+03  0.79855114084E+02 0.  0.
          6    2    1    2  501    0 -0.91140349423E+02 -0.68725356516E+02  0.49486527560E+02  0.21228298071E+03  0.17200409753E+03 0.  0.
         24    2    5    5    0    0 -0.76332885993E+02 -0.76045972112E+02  0.94593628451E+02  0.16401712386E+03  0.79648998853E+02 0.  0.
          5    1    5    5  501    0 -0.14807463430E+02  0.73206155961E+01 -0.45107100891E+02  0.48265856843E+02  0.47000000000E+01 0. -1.
        -11    1    6    6    0    0 -0.88778995497E+02 -0.66424297569E+02  0.60130343503E+02  0.12613308669E+03  0.00000000000E+00 0.  1.
         12    1    6    6    0    0  0.12446109505E+02 -0.96216745432E+01  0.34463284948E+02  0.37884037169E+02  0.00000000000E+00 0. -1.
         -5    1    3    3    0  503 -0.22319304431E+02  0.36740854405E+02 -0.91198200677E+02  0.10093187573E+03  0.47000000000E+01 0.  1.
         11    1    4    4    0    0  0.85074627837E+02 -0.15049976100E+02 -0.42162275373E+02  0.96134549185E+02  0.00000000000E+00 0. -1.
        -12    1    4    4    0    0  0.28385026016E+02  0.47034478211E+02 -0.12205773036E+02  0.56275507442E+02  0.00000000000E+00 0.  1.
</event>
<event>
12    1  0.1597826E-001  0.1799602E+03  0.7818608E-02  0.1167848E+00
         21   -1    0    0  501  502  0.00000000000E+00  0.00000000000E+00  0.94384583289E+02  0.94384583289E+02  0.00000000000E+00 0. -1.
         21   -1    0    0  502  503 -0.00000000000E+00 -0.00000000000E+00 -0.36087566815E+03  0.36087566815E+03  0.00000000000E+00 0.  1.
         -6    2    1    2    0  503  0.29951978949E+02 -0.44429719992E+02 -0.18381302616E+03  0.25724097246E+03  0.17179804500E+03 0.  0.
        -24    2    3    3    0    0  0.76558993526E+02 -0.14887343336E+02 -0.10793022268E+03  0.16329814044E+03  0.94522152008E+02 0.  0.
          6    2    1    2  501    0 -0.29951978949E+02  0.44429719992E+02 -0.82678058699E+02  0.19801927897E+03  0.17176976565E+03 0.  0.
         24    2    5    5    0    0 -0.11157011879E+02  0.25645334776E+02  0.24325249935E+02  0.87665747204E+02  0.79444341136E+02 0.  0.
          5    1    5    5  501    0 -0.18794967071E+02  0.18784385215E+02 -0.10700330863E+03  0.11035353177E+03  0.47000000000E+01 0. -1.
        -13    1    6    6    0    0 -0.98472908347E+01  0.25868770184E+02 -0.25611758269E+02  0.37711066933E+02  0.00000000000E+00 0.  1.
         14    1    6    6    0    0 -0.13097210438E+01 -0.22343540732E+00  0.49937008204E+02  0.49954680271E+02  0.00000000000E+00 0. -1.
         -5    1    3    3    0  503 -0.46607014577E+02 -0.29542376656E+02 -0.75882803474E+02  0.93942832027E+02  0.47000000000E+01 0.  1.
         11    1    4    4    0    0  0.28489199682E+02  0.25949186804E+02 -0.28687524352E+00  0.38536697987E+02  0.00000000000E+00 0. -1.
        -12    1    4    4    0    0  0.48069793844E+02 -0.40836530140E+02 -0.10764334744E+03  0.12476144245E+03  0.00000000000E+00 0.  1.
</event>
<event>
12    1  0.1597826E-001  0.1984890E+03  0.7818608E-02  0.1151156E+00
         21   -1    0    0  503  502  0.00000000000E+00  0.00000000000E+00  0.37522403451E+02  0.37522403451E+02  0.00000000000E+00 0.  1.
         21   -1    0    0  501  503 -0.00000000000E+00 -0.00000000000E+00 -0.12914211295E+04  0.12914211295E+04  0.00000000000E+00 0. -1.
          6    2    1    2  501    0  0.78510254153E+02 -0.59137241213E+02 -0.91707494210E+03  0.93830928486E+03  0.17244358880E+03 0.  0.
         24    2    3    3    0    0  0.93497068061E+02 -0.90234249192E+02 -0.57847525881E+03  0.59792205828E+03  0.77416027122E+02 0.  0.
         -6    2    1    2    0  502 -0.78510254153E+02  0.59137241213E+02 -0.33682378397E+03  0.39063424811E+03  0.17170841868E+03 0.  0.
        -24    2    5    5    0    0 -0.86438971177E+02  0.61023124338E+02 -0.14808271792E+03  0.20165884992E+03  0.86846318072E+02 0.  0.
          5    1    3    3  501    0 -0.14986813908E+02  0.31097007979E+02 -0.33859968329E+03  0.34038722658E+03  0.47000000000E+01 0. -1.
        -13    1    4    4    0    0 -0.43919412336E+01  0.39478003995E+01 -0.29847827215E+01  0.66168877645E+01  0.00000000000E+00 0.  1.
         14    1    4    4    0    0  0.97889009294E+02 -0.94182049592E+02 -0.57549047609E+03  0.59130517052E+03  0.00000000000E+00 0. -1.
         -5    1    5    5    0  502  0.79287170237E+01 -0.18858831247E+01 -0.18874106604E+03  0.18897539819E+03  0.47000000000E+01 0.  1.
         13    1    6    6    0    0 -0.36888627003E+02  0.86050530872E+01 -0.11724552185E+03  0.12321254050E+03  0.00000000000E+00 0. -1.
        -14    1    6    6    0    0 -0.49550344174E+02  0.52418071251E+02 -0.30837196072E+02  0.78446309428E+02  0.00000000000E+00 0.  1.
</event>
<event>
12    1  0.1597826E-001  0.2642178E+03  0.7818608E-02  0.1104768E+00
         21   -1    0    0  503  502  0.00000000000E+00  0.00000000000E+00  0.89826527931E+03  0.89826527931E+03  0.00000000000E+00 0. -1.
         21   -1    0    0  501  503 -0.00000000000E+00 -0.00000000000E+00 -0.19365574612E+03  0.19365574612E+03  0.00000000000E+00 0.  1.
          6    2    1    2  501    0  0.87201118027E+02 -0.17987945076E+03 -0.70849709753E+02  0.27268475996E+03  0.17139616435E+03 0.  0.
         24    2    3    3    0    0  0.11687766278E+03 -0.18004982510E+03 -0.80483034133E+02  0.24113135643E+03  0.74756168265E+02 0.  0.
         -6    2    1    2    0  502 -0.87201118027E+02  0.17987945076E+03  0.77545924294E+03  0.81923626546E+03  0.17277259446E+03 0.  0.
        -24    2    5    5    0    0  0.59556043091E+01  0.14039807476E+03  0.44040197479E+03  0.46920424277E+03  0.80322060593E+02 0.  0.
          5    1    3    3  501    0 -0.29676544755E+02  0.17037434228E+00  0.96333243804E+01  0.31553403534E+02  0.47000000000E+01 0. -1.
        -13    1    4    4    0    0  0.80286981062E+02 -0.12869902063E+03 -0.18670792860E+02  0.15283335939E+03  0.00000000000E+00 0.  1.
         14    1    4    4    0    0  0.36590681719E+02 -0.51350804478E+02 -0.61812241273E+02  0.88297997035E+02  0.00000000000E+00 0. -1.
         -5    1    5    5    0  502 -0.93156722336E+02  0.39481375996E+02  0.33505726815E+03  0.35003202269E+03  0.47000000000E+01 0.  1.
         11    1    6    6    0    0 -0.26260839522E+02  0.11387101132E+03  0.36188986573E+03  0.38029003908E+03  0.00000000000E+00 0. -1.
        -12    1    6    6    0    0  0.32216443831E+02  0.26527063448E+02  0.78512109062E+02  0.88914203689E+02  0.00000000000E+00 0.  1.
</event>
<event>
12    1  0.1597826E-001  0.1768977E+03  0.7818608E-02  0.1170869E+00
         21   -1    0    0  501  502  0.00000000000E+00  0.00000000000E+00  0.11832080217E+03  0.11832080217E+03  0.00000000000E+00 0.  1.
         21   -1    0    0  502  503 -0.00000000000E+00 -0.00000000000E+00 -0.31313325736E+03  0.31313325736E+03  0.00000000000E+00 0.  1.
         -6    2    1    2    0  503 -0.33408609775E+01  0.39725895743E+02 -0.18257161320E+03  0.25413337242E+03  0.17222679492E+03 0.  0.
        -24    2    3    3    0    0  0.18782014353E+01  0.85230621184E+02 -0.16837675816E+03  0.20595139903E+03  0.82446707926E+02 0.  0.
          6    2    1    2  501    0  0.33408609775E+01 -0.39725895743E+02 -0.12240841986E+02  0.17732068711E+03  0.17234697479E+03 0.  0.
         24    2    5    5    0    0 -0.54793219944E+01  0.45675003952E+02 -0.40517777815E+01  0.90947890066E+02  0.78350959463E+02 0.  0.
          5    1    5    5  501    0  0.88201829719E+01 -0.85400899695E+02 -0.81890642049E+01  0.86372797042E+02  0.47000000000E+01 0. -1.
        -13    1    6    6    0    0 -0.21116969005E+01 -0.20252840316E+02  0.11137020948E+02  0.23209266259E+02  0.00000000000E+00 0.  1.
         14    1    6    6    0    0 -0.33676250939E+01  0.65927844267E+02 -0.15188798730E+02  0.67738623808E+02  0.00000000000E+00 0. -1.
         -5    1    3    3    0  503 -0.52190624129E+01 -0.45504725441E+02 -0.14194855041E+02  0.48181973388E+02  0.47000000000E+01 0.  1.
         11    1    4    4    0    0  0.10562297771E+02  0.18696037996E+02  0.32097502100E+01  0.21711896908E+02  0.00000000000E+00 0. -1.
        -12    1    4    4    0    0 -0.86840963352E+01  0.66534583188E+02 -0.17158650837E+03  0.18423950213E+03  0.00000000000E+00 0.  1.
</event>
<event>
12    1  0.1597826E-001  0.1923650E+03  0.7818608E-02  0.1156380E+00
         21   -1    0    0  503  502  0.00000000000E+00  0.00000000000E+00  0.21155008681E+04  0.21155008681E+04  0.00000000000E+00 0.  1.
         21   -1    0    0  501  503 -0.00000000000E+00 -0.00000000000E+00 -0.26504514192E+03  0.26504514192E+03  0.00000000000E+00 0.  1.
          6    2    1    2  501    0 -0.44891810365E+02  0.74019109782E+02 -0.22510626706E+03  0.29610322590E+03  0.17178528944E+03 0.  0.
         24    2    3    3    0    0  0.34121592167E+02  0.54433801999E+02 -0.83553654179E+02  0.13274492561E+03  0.80701179023E+02 0.  0.
         -6    2    1    2    0  502  0.44891810365E+02 -0.74019109782E+02  0.20755619932E+04  0.20844427841E+04  0.17161010822E+03 0.  0.
        -24    2    5    5    0    0  0.20053181786E+02  0.17968933283E+02  0.13259097384E+04  0.13287448612E+04  0.82469746523E+02 0.  0.
          5    1    3    3  501    0 -0.79013402532E+02  0.19585307783E+02 -0.14155261288E+03  0.16335830029E+03  0.47000000000E+01 0. -1.
        -13    1    4    4    0    0 -0.32168065028E+01  0.60308110781E+02 -0.30650550553E+02  0.67726452139E+02  0.00000000000E+00 0.  1.
         14    1    4    4    0    0  0.37338398670E+02 -0.58743087821E+01 -0.52903103626E+02  0.65018473469E+02  0.00000000000E+00 0. -1.
         -5    1    5    5    0  502  0.24838628579E+02 -0.91988043065E+02  0.74965225480E+03  0.75569792290E+03  0.47000000000E+01 0.  1.
         11    1    6    6    0    0 -0.64781458673E+01  0.46878548891E+02  0.76851200382E+03  0.76996770369E+03  0.00000000000E+00 0. -1.
        -12    1    6    6    0    0  0.26531327653E+02 -0.28909615608E+02  0.55739773460E+03  0.55877715752E+03  0.00000000000E+00 0.  1.
</event>
<event>
12    1  0.1597826E-001  0.2650479E+03  0.7818608E-02  0.1104196E+00
         21   -1    0    0  501  502  0.00000000000E+00  0.00000000000E+00  0.80419138437E+03  0.80419138437E+03  0.00000000000E+00 0. -1.
         21   -1    0    0  502  503 -0.00000000000E+00 -0.00000000000E+00 -0.87500160938E+02  0.87500160938E+02  0.00000000000E+00 0. -1.
         -6    2    1    2    0  503  0.90297041978E+02 -0.17981666012E+03  0.33456574278E+03  0.42683089264E+03  0.17251894861E+03 0.  0.
        -24    2    3    3    0    0 -0.53011618377E+01 -0.10437475329E+03  0.11256050639E+03  0.17357427800E+03  0.80845352019E+02 0.  0.
          6    2    1    2  501    0 -0.90297041978E+02  0.17981666012E+03  0.38212548065E+03  0.46486065266E+03  0.17201150073E+03 0.  0.
         24    2    5    5    0    0 -0.11766753448E+03  0.84571191903E+02  0.23432937436E+03  0.28685328733E+03  0.79853726258E+02 0.  0.
          5    1    5    5  501    0  0.27370492503E+02  0.95245468212E+02  0.14779610630E+03  0.17800736533E+03  0.47000000000E+01 0. -1.
        -13    1    6    6    0    0 -0.51439454391E+02  0.65544575002E+02  0.70577131601E+02  0.10919359086E+03  0.00000000000E+00 0.  1.
         14    1    6    6    0    0 -0.66228080090E+02  0.19026616900E+02  0.16375224276E+03  0.17765969647E+03  0.00000000000E+00 0. -1.
         -5    1    3    3    0  503  0.95598203816E+02 -0.75441906823E+02  0.22200523638E+03  0.25325661464E+03  0.47000000000E+01 0.  1.
         13    1    4    4    0    0 -0.21213118859E+02 -0.40242780167E+02  0.94803971825E+02  0.10515355839E+03  0.00000000000E+00 0. -1.
        -14    1    4    4    0    0  0.15911957022E+02 -0.64131973125E+02  0.17756534570E+02  0.68420719619E+02  0.00000000000E+00 0.  1.
</event>
<event>
12    1  0.1597826E-001  0.1881918E+03  0.7818608E-02  0.1160155E+00
         21   -1    0    0  503  502  0.00000000000E+00  0.00000000000E+00  0.13750806632E+04  0.13750806632E+04  0.00000000000E+00 0.  1.
         21   -1    0    0  501  503 -0.00000000000E+00 -0.00000000000E+00 -0.32369866706E+02  0.32369866706E+02  0.00000000000E+00 0. -1.
          6    2    1    2  501    0  0.77599120632E+02 -0.59395373113E+01  0.35281949309E+03  0.39987216192E+03  0.17134541007E+03 0.  0.
         24    2    3    3    0    0  0.74561870989E+02  0.17624538929E+02  0.35852639542E+03  0.37498945088E+03  0.78776995875E+02 0.  0.
         -6    2    1    2    0  502 -0.77599120632E+02  0.59395373113E+01  0.98989130344E+03  0.10075783680E+04  0.17109200287E+03 0.  0.
        -24    2    5    5    0    0  0.67637686456E+01  0.47543369677E+02  0.45073187047E+03  0.46025491692E+03  0.79807574391E+02 0.  0.
          5    1    3    3  501    0  0.30372496428E+01 -0.23564076240E+02 -0.57069023363E+01  0.24882711040E+02  0.47000000000E+01 0. -1.
        -11    1    4    4    0    0  0.88704048173E+01 -0.47449667452E+01  0.21829480709E+03  0.21852647801E+03  0.00000000000E+00 0.  1.
         12    1    4    4    0    0  0.65691466172E+02  0.22369505674E+02  0.14023158834E+03  0.15646297287E+03  0.00000000000E+00 0. -1.
         -5    1    5    5    0  502 -0.84362889278E+02 -0.41603832365E+02  0.53915943298E+03  0.54732345110E+03  0.47000000000E+01 0.  1.
         13    1    6    6    0    0  0.29703616853E+02  0.11080771076E+02  0.33942870120E+03  0.34090604503E+03  0.00000000000E+00 0. -1.
        -14    1    6    6    0    0 -0.22939848207E+02  0.36462598600E+02  0.11130316927E+03  0.11934887189E+03  0.00000000000E+00 0.  1.
</event>
<event>
12    1  0.1597826E-001  0.1755945E+03  0.7818608E-02  0.1172148E+00
         21   -1    0    0  503  502  0.00000000000E+00  0.00000000000E+00  0.66269861973E+02  0.66269861973E+02  0.00000000000E+00 0. -1.
         21   -1    0    0  501  503 -0.00000000000E+00 -0.00000000000E+00 -0.47478008019E+03  0.47478008019E+03  0.00000000000E+00 0. -1.
          6    2    1    2  501    0 -0.22643887952E+02 -0.26792786654E+02 -0.24276730775E+03  0.29958741711E+03  0.17200597576E+03 0.  0.
         24    2    3    3    0    0  0.41931173668E+02 -0.51479536911E+02 -0.17377076773E+03  0.20180200533E+03  0.78226616899E+02 0.  0.
         -6    2    1    2    0  502  0.22643887952E+02  0.26792786654E+02 -0.16574291046E+03  0.24146252506E+03  0.17205475745E+03 0.  0.
        -24    2    5    5    0    0  0.68791955362E+01 -0.32256174285E+02 -0.15791633043E+03  0.17966729328E+03  0.79088461546E+02 0.  0.
          5    1    3    3  501    0 -0.64575061620E+02  0.24686750257E+02 -0.68996540025E+02  0.97785411779E+02  0.47000000000E+01 0. -1.
        -11    1    4    4    0    0  0.24607232752E+02  0.10843420626E+02 -0.10062868012E+03  0.10415962240E+03  0.00000000000E+00 0.  1.
         12    1    4    4    0    0  0.17323940915E+02 -0.62322957537E+02 -0.73142087607E+02  0.97642382931E+02  0.00000000000E+00 0. -1.
         -5    1    5    5    0  502  0.15764692416E+02  0.59048960939E+02 -0.78265800377E+01  0.61795231774E+02  0.47000000000E+01 0.  1.
         11    1    6    6    0    0  0.17956241795E+02  0.22171471235E+02 -0.71014974983E+02  0.76531871975E+02  0.00000000000E+00 0. -1.
        -12    1    6    6    0    0 -0.11077046259E+02 -0.54427645519E+02 -0.86901355444E+02  0.10313542131E+03  0.00000000000E+00 0.  1.
</event>
<event>
12    1  0.1597826E-001  0.2442206E+03  0.7818608E-02  0.1118506E+00
         21   -1    0    0  503  502  0.00000000000E+00  0.00000000000E+00  0.13126841542E+03  0.13126841542E+03  0.00000000000E+00 0. -1.
         21   -1    0    0  501  503 -0.00000000000E+00 -0.00000000000E+00 -0.81652282123E+03  0.81652282123E+03  0.00000000000E+00 0.  1.
          6    2    1    2  501    0  0.17201505615E+03 -0.21705056155E+02 -0.66189920223E+03  0.70245646900E+03  0.15897876564E+03 0.  0.
         24    2    3    3    0    0  0.27890657276E+02  0.15934996971E+02 -0.27214119238E+03  0.28517717142E+03  0.78951742326E+02 0.  0.
         -6    2    1    2    0  502 -0.17201505615E+03  0.21705056155E+02 -0.23355203590E+02  0.24533476765E+03  0.17199823743E+03 0.  0.
        -24    2    5    5    0    0 -0.16644045456E+03  0.40371430989E+02 -0.63725049345E+02  0.20026455378E+03  0.81931265291E+02 0.  0.
          5    1    3    3  501    0  0.14412439887E+03 -0.37640053125E+02 -0.38975800985E+03  0.41727929758E+03  0.47000000000E+01 0. -1.
        -13    1    4    4    0    0  0.55722204728E+02  0.81509292469E+01 -0.17680847496E+03  0.18556033673E+03  0.00000000000E+00 0.  1.
         14    1    4    4    0    0 -0.27831547452E+02  0.77840677236E+01 -0.95332717416E+02  0.99616834691E+02  0.00000000000E+00 0. -1.
         -5    1    5    5    0  502 -0.55746015933E+01 -0.18666374834E+02  0.40369845755E+02  0.45070213874E+02  0.47000000000E+01 0.  1.
         11    1    6    6    0    0 -0.11978549949E+03  0.58743923059E+02 -0.22387555215E+02  0.13527977311E+03  0.00000000000E+00 0. -1.
        -12    1    6    6    0    0 -0.46654955063E+02 -0.18372492070E+02 -0.41337494130E+02  0.64984780663E+02  0.00000000000E+00 0.  1.
</event>
<event>
12    1  0.1597826E-001  0.1811552E+03  0.7818608E-02  0.1167042E+00
         21   -1    0    0  501  502  0.00000000000E+00  0.00000000000E+00  0.16484380784E+04  0.16484380784E+04  0.00000000000E+00 0. -1.
         21   -1    0    0  502  503 -0.00000000000E+00 -0.00000000000E+00 -0.13192798666E+03  0.13192798666E+03  0.00000000000E+00 0. -1.
         -6    2    1    2    0  503  0.48177737712E+02  0.18794473659E+02 -0.62144189312E+02  0.19151785744E+03  0.17361700032E+03 0.  0.
        -24    2    3    3    0    0  0.58468347793E+02  0.74566787387E+02 -0.47090779695E+02  0.13265239409E+03  0.80002266531E+02 0.  0.
          6    2    1    2  501    0 -0.48177737712E+02 -0.18794473659E+02  0.15786542811E+04  0.15888482076E+04  0.17208997982E+03 0.  0.
         24    2    5    5    0    0  0.27200115679E+02 -0.26304493968E+02  0.52401151850E+03  0.53147804170E+03  0.80306068243E+02 0.  0.
          5    1    5    5  501    0 -0.75377853391E+02  0.75100203082E+01  0.10546427626E+04  0.10573701659E+04  0.47000000000E+01 0. -1.
        -13    1    6    6    0    0 -0.72651491224E+01  0.24520196670E+02  0.10977868455E+03  0.11271815301E+03  0.00000000000E+00 0.  1.
         14    1    6    6    0    0  0.34465264801E+02 -0.50824690638E+02  0.41423283395E+03  0.41875988870E+03  0.00000000000E+00 0. -1.
         -5    1    3    3    0  503 -0.10290610080E+02 -0.55772313728E+02 -0.15053409617E+02  0.58865463351E+02  0.47000000000E+01 0.  1.
         11    1    4    4    0    0  0.12705696937E+01 -0.13642791235E+02  0.59041307638E+01  0.14919747321E+02  0.00000000000E+00 0. -1.
        -12    1    4    4    0    0  0.57197778099E+02  0.88209578623E+02 -0.52994910459E+02  0.11773264677E+03  0.00000000000E+00 0.  1.
</event>
<event>
12    1  0.1597826E-001  0.2310266E+03  0.7818608E-02  0.1125991E+00
         21   -1    0    0  503  502  0.00000000000E+00  0.00000000000E+00  0.82225616194E+03  0.82225616194E+03  0.00000000000E+00 0.  1.
         21   -1    0    0  501  503 -0.00000000000E+00 -0.00000000000E+00 -0.73528401841E+02  0.73528401841E+02  0.00000000000E+00 0.  1.
          6    2    1    2  501    0  0.12849119948E+03 -0.84629243730E+02  0.21971664888E+03  0.31852722443E+03  0.17179083117E+03 0.  0.
         24    2    3    3    0    0  0.57191952846E+02 -0.11280424354E+03  0.11502734420E+03  0.18868365048E+03  0.79840548667E+02 0.  0.
         -6    2    1    2    0  502 -0.12849119948E+03  0.84629243730E+02  0.52901111122E+03  0.57725733935E+03  0.17234031101E+03 0.  0.
        -24    2    5    5    0    0 -0.19323363155E+02  0.67990352928E+02  0.35432941148E+03  0.37054436105E+03  0.82205299152E+02 0.  0.
          5    1    3    3  501    0  0.71299246631E+02  0.28174999811E+02  0.10468930468E+03  0.12984357396E+03  0.47000000000E+01 0. -1.
        -11    1    4    4    0    0  0.54892588506E+02 -0.52884067684E+02  0.24435377749E+02  0.80043791598E+02  0.00000000000E+00 0.  1.
         12    1    4    4    0    0  0.22993643402E+01 -0.59920175857E+02  0.90591966453E+02  0.10863985888E+03  0.00000000000E+00 0. -1.
         -5    1    5    5    0  502 -0.10916783632E+03  0.16638890802E+02  0.17468169974E+03  0.20671297830E+03  0.47000000000E+01 0.  1.
         11    1    6    6    0    0 -0.34164800662E+02 -0.33860669670E+01  0.14029343010E+03  0.14443318726E+03  0.00000000000E+00 0. -1.
        -12    1    6    6    0    0  0.14841437507E+02  0.71376419895E+02  0.21403598138E+03  0.22611117378E+03  0.00000000000E+00 0.  1.
</event>
<event>
12    1  0.1597826E-001  0.1800910E+03  0.7818608E-02  0.1167942E+00
         21   -1    0    0  503  502  0.00000000000E+00  0.00000000000E+00  0.91863606061E+02  0.91863606061E+02  0.00000000000E+00 0.  1.
         21   -1    0    0  501  503 -0.00000000000E+00 -0.00000000000E+00 -0.36145949034E+03  0.36145949034E+03  0.00000000000E+00 0.  1.
          6    2    1    2  501    0 -0.53292068677E+02  0.61336011381E+01 -0.17260563031E+03  0.24877508968E+03  0.17093471264E+03 0.  0.
         24    2    3    3    0    0  0.20150342617E+02  0.46575988331E+02 -0.79108489691E+02  0.12310417116E+03  0.79505501814E+02 0.  0.
         -6    2    1    2    0  502  0.53292068677E+02 -0.61336011381E+01 -0.96990253965E+02  0.20454800672E+03  0.17191600286E+03 0.  0.
        -24    2    5    5    0    0 -0.10140637895E+02 -0.34714845703E+02 -0.19324280909E+01  0.86655360364E+02  0.78723974445E+02 0.  0.
          5    1    3    3  501    0 -0.73442411294E+02 -0.40442387193E+02 -0.93497140619E+02  0.12567091852E+03  0.47000000000E+01 0. -1.
        -13    1    4    4    0    0  0.22835959606E+02  0.15954828689E+02  0.94073054642E+01  0.29402976137E+02  0.00000000000E+00 0.  1.
         14    1    4    4    0    0 -0.26856169891E+01  0.30621159643E+02 -0.88515795155E+02  0.93701195021E+02  0.00000000000E+00 0. -1.
         -5    1    5    5    0  502  0.63432706572E+02  0.28581244565E+02 -0.95057825875E+02  0.11789264635E+03  0.47000000000E+01 0.  1.
         13    1    6    6    0    0  0.31288322504E+02 -0.15743986073E+02  0.14921887579E+02  0.38072233340E+02  0.00000000000E+00 0. -1.
        -14    1    6    6    0    0 -0.41428960398E+02 -0.18970859630E+02 -0.16854315670E+02  0.48583127025E+02  0.00000000000E+00 0.  1.
</event>
<event>
12    1  0.1597826E-001  0.1786745E+03  0.7818608E-02  0.1169723E+00
         21   -1    0    0  501  502  0.00000000000E+00  0.00000000000E+00  0.34715211008E+03  0.34715211008E+03  0.00000000000E+00 0.  1.
         21   -1    0    0  502  503 -0.00000000000E+00 -0.00000000000E+00 -0.26063019995E+03  0.26063019995E+03  0.00000000000E+00 0.  1.
         -6    2    1    2    0  503 -0.34248642501E+02 -0.29898819062E+02 -0.20204763369E+03  0.26971802013E+03  0.17279367815E+03 0.  0.
        -24    2    3    3    0    0  0.38608606134E+02 -0.56921654858E+02 -0.11335892065E+03  0.15170874018E+03  0.73719723942E+02 0.  0.
          6    2    1    2  501    0  0.34248642501E+02  0.29898819062E+02  0.28856954383E+03  0.33806428990E+03  0.17014162803E+03 0.  0.
         24    2    5    5    0    0 -0.40570396604E+02  0.13086346572E+02  0.10433672113E+03  0.13845374208E+03  0.80411925557E+02 0.  0.
          5    1    5    5  501    0  0.74819039105E+02  0.16812472491E+02  0.18423282270E+03  0.19961054783E+03  0.47000000000E+01 0. -1.
        -11    1    6    6    0    0 -0.20299345635E+02  0.41195783425E+02  0.89819729036E+02  0.10087982816E+03  0.00000000000E+00 0.  1.
         12    1    6    6    0    0 -0.20271050969E+02 -0.28109436854E+02  0.14516992092E+02  0.37573913917E+02  0.00000000000E+00 0. -1.
         -5    1    3    3    0  503 -0.72857248635E+02  0.27022835795E+02 -0.88688713044E+02  0.11800927995E+03  0.47000000000E+01 0.  1.
         11    1    4    4    0    0  0.42053938004E+02 -0.58686162132E+02 -0.49051383106E+02  0.87284806880E+02  0.00000000000E+00 0. -1.
        -12    1    4    4    0    0 -0.34453318698E+01  0.17645072745E+01 -0.64307537540E+02  0.64423933301E+02  0.00000000000E+00 0.  1.
</event>
<event>
12    1  0.1597826E-001  0.1980229E+03  0.7818608E-02  0.1151549E+00
         21   -1    0    0  503  502  0.00000000000E+00  0.00000000000E+00  0.33653678855E+03  0.33653678855E+03  0.00000000000E+00 0.  1.
         21   -1    0    0  501  503 -0.00000000000E+00 -0.00000000000E+00 -0.19263345147E+03  0.19263345147E+03  0.00000000000E+00 0. -1.
          6    2    1    2  501    0  0.81991702483E+02  0.48854655100E+02 -0.94824306515E+02  0.21900262167E+03  0.17280359542E+03 0.  0.
         24    2    3    3    0    0  0.11300174449E+02  0.18045966925E+01 -0.10491781930E+03  0.13335818733E+03  0.81521204669E+02 0.  0.
         -6    2    1    2    0  502 -0.81991702483E+02 -0.48854655100E+02  0.23872764359E+03  0.31016761836E+03  0.17350402607E+03 0.  0.
        -24    2    5    5    0    0 -0.13900727470E+02  0.34747518320E+02  0.89267388352E+02  0.12581425610E+03  0.80373752945E+02 0.  0.
          5    1    3    3  501    0  0.70691528034E+02  0.47050058407E+02  0.10093512783E+02  0.85644434333E+02  0.47000000000E+01 0. -1.
        -13    1    4    4    0    0  0.41171708476E+02 -0.19175342646E+02 -0.64634272779E+02  0.78996155363E+02  0.00000000000E+00 0.  1.
         14    1    4    4    0    0 -0.29871534027E+02  0.20979939339E+02 -0.40283546520E+02  0.54362031971E+02  0.00000000000E+00 0. -1.
         -5    1    5    5    0  502 -0.68090975013E+02 -0.83602173420E+02  0.14946025524E+03  0.18435336226E+03  0.47000000000E+01 0.  1.
         13    1    6    6    0    0 -0.29286898736E+02  0.35139312719E+02  0.12363206514E+02  0.47385046283E+02  0.00000000000E+00 0. -1.
        -14    1    6    6    0    0  0.15386171266E+02 -0.39179439923E+00  0.76904181838E+02  0.78429209822E+02  0.00000000000E+00 0.  1.
</event>
<event>
12    1  0.1597826E-001  0.3576429E+03  0.7818608E-02  0.1059534E+00
         21   -1    0    0  503  502  0.00000000000E+00  0.00000000000E+00  0.47199854410E+03  0.47199854410E+03  0.00000000000E+00 0. -1.
         21   -1    0    0  501  503 -0.00000000000E+00 -0.00000000000E+00 -0.33691709901E+03  0.33691709901E+03  0.00000000000E+00 0.  1.
          6    2    1    2  501    0 -0.90776960437E+02 -0.30033265068E+03  0.24659496952E+03  0.43441628205E+03  0.17166324447E+03 0.  0.
         24    2    3    3    0    0 -0.60919885096E+02 -0.64145486023E+02  0.96709217921E+02  0.15305592551E+03  0.79041556949E+02 0.  0.
         -6    2    1    2    0  502  0.90776960437E+02  0.30033265068E+03 -0.11151352443E+03  0.37449936107E+03  0.17138946204E+03 0.  0.
        -24    2    5    5    0    0 -0.55201253405E+01  0.20989070598E+03 -0.57067569879E+02  0.23153319004E+03  0.79160156128E+02 0.  0.
          5    1    3    3  501    0 -0.29857075341E+02 -0.23618716466E+03  0.14988575160E+03  0.28136035654E+03  0.47000000000E+01 0. -1.
        -13    1    4    4    0    0 -0.27734779219E+02 -0.26650288279E+02 -0.58694838142E+01  0.38908953776E+02  0.00000000000E+00 0.  1.
         14    1    4    4    0    0 -0.33185105877E+02 -0.37495197744E+02  0.10257870173E+03  0.11414697173E+03  0.00000000000E+00 0. -1.
         -5    1    5    5    0  502  0.96297085778E+02  0.90441944703E+02 -0.54445954556E+02  0.14296617103E+03  0.47000000000E+01 0.  1.
         11    1    6    6    0    0  0.12710702914E+01 -0.47774271139E+01 -0.10732584922E+02  0.11816421143E+02  0.00000000000E+00 0. -1.
        -12    1    6    6    0    0 -0.67911956319E+01  0.21466813309E+03 -0.46334984956E+02  0.21971676890E+03  0.00000000000E+00 0.  1.
</event>
<event>
12    1  0.1597826E-001  0.1782819E+03  0.7818608E-02  0.1169786E+00
         21   -1    0    0  503  502  0.00000000000E+00  0.00000000000E+00  0.43300856878E+03  0.43300856878E+03  0.00000000000E+00 0. -1.
         21   -1    0    0  501  503 -0.00000000000E+00 -0.00000000000E+00 -0.18929039263E+03  0.18929039263E+03  0.00000000000E+00 0. -1.
          6    2    1    2  501    0  0.36857098358E+02  0.21684081442E+02 -0.12230639628E+03  0.21516456717E+03  0.17177977560E+03 0.  0.
         24    2    3    3    0    0  0.70200247005E+02  0.63881391018E+02 -0.87575967768E+02  0.15097211308E+03  0.78192851334E+02 0.  0.
         -6    2    1    2    0  502 -0.36857098358E+02 -0.21684081442E+02  0.36602457243E+03  0.40713439424E+03  0.17307738809E+03 0.  0.
        -24    2    5    5    0    0 -0.35564214078E+02 -0.75920923335E+02  0.30043324669E+03  0.32188406533E+03  0.79501043213E+02 0.  0.
          5    1    3    3  501    0 -0.33343148647E+02 -0.42197309577E+02 -0.34730428513E+02  0.64192454089E+02  0.47000000000E+01 0. -1.
        -11    1    4    4    0    0 -0.31738011598E+00  0.45842889605E+02 -0.15131041613E+02  0.48276491978E+02  0.00000000000E+00 0.  1.
         12    1    4    4    0    0  0.70517627121E+02  0.18038501414E+02 -0.72444926155E+02  0.10269562110E+03  0.00000000000E+00 0. -1.
         -5    1    5    5    0  502 -0.12928842795E+01  0.54236841893E+02  0.65591325734E+02  0.85250328914E+02  0.47000000000E+01 0.  1.
         11    1    6    6    0    0 -0.44565127369E+02 -0.93506146405E+01  0.15752880428E+03  0.16397807399E+03  0.00000000000E+00 0. -1.
        -12    1    6    6    0    0  0.90009132911E+01 -0.66570308695E+02  0.14290444242E+03  0.15790599134E+03  0.00000000000E+00 0.  1.
</event>
<event>
12    1  0.1597826E-001  0.2155960E+03  0.7818608E-02  0.1137271E+00
         21   -1    0    0  503  502  0.00000000000E+00  0.00000000000E+00  0.56191652534E+03  0.56191652534E+03  0.00000000000E+00 0.  1.
         21   -1    0    0  501  503 -0.00000000000E+00 -0.00000000000E+00 -0.30716988753E+03  0.30716988753E+03  0.00000000000E+00 0.  1.
          6    2    1    2  501    0  0.11266564324E+03  0.64830719318E+02 -0.24415496967E+03  0.32571964593E+03  0.17200310811E+03 0.  0.
         24    2    3    3    0    0  0.11482430438E+03  0.57800613583E+02 -0.26403116660E+03  0.30401168866E+03  0.78645521814E+02 0.  0.
         -6    2    1    2    0  502 -0.11266564324E+03 -0.64830719318E+02  0.49890160747E+03  0.54336676694E+03  0.17160437098E+03 0.  0.
        -24    2    5    5    0    0 -0.32887504990E+02  0.31872446871E+02  0.25220495704E+03  0.26660444828E+03  0.73301777838E+02 0.  0.
          5    1    3    3  501    0 -0.21586611347E+01  0.70301057343E+01  0.19876196931E+02  0.21707957273E+02  0.47000000000E+01 0. -1.
        -13    1    4    4    0    0  0.41471212773E+02  0.21458557096E+02 -0.18286392084E+03  0.18873140890E+03  0.00000000000E+00 0.  1.
         14    1    4    4    0    0  0.73353091602E+02  0.36342056488E+02 -0.81167245761E+02  0.11528027976E+03  0.00000000000E+00 0. -1.
         -5    1    5    5    0  502 -0.79778138251E+02 -0.96703166188E+02  0.24669665043E+03  0.27676231866E+03  0.47000000000E+01 0.  1.
         13    1    6    6    0    0 -0.55113095408E+02  0.19314627427E+02  0.14320457020E+03  0.15465463797E+03  0.00000000000E+00 0. -1.
        -14    1    6    6    0    0  0.22225590418E+02  0.12557819444E+02  0.10900038684E+03  0.11194981031E+03  0.00000000000E+00 0.  1.
</event>
<event>
12    1  0.1597826E-001  0.1925657E+03  0.7818608E-02  0.1156280E+00
         21   -1    0    0  503  502  0.00000000000E+00  0.00000000000E+00  0.14111512419E+04  0.14111512419E+04  0.00000000000E+00 0. -1.
         21   -1    0    0  501  503 -0.00000000000E+00 -0.00000000000E+00 -0.37071621768E+02  0.37071621768E+02  0.00000000000E+00 0.  1.
          6    2    1    2  501    0 -0.25950326731E+02 -0.81409009556E+02  0.29569753104E+03  0.35287187848E+03  0.17257081579E+03 0.  0.
         24    2    3    3    0    0 -0.43023390170E+02  0.31880402230E+01  0.88571342758E+02  0.12843592280E+03  0.82399804650E+02 0.  0.
         -6    2    1    2    0  502  0.25950326731E+02  0.81409009556E+02  0.10783820890E+04  0.10953509851E+04  0.17200291971E+03 0.  0.
        -24    2    5    5    0    0  0.55513298501E+02  0.48591049869E+02  0.99569612885E+03  0.10014891410E+04  0.78274529973E+02 0.  0.
          5    1    3    3  501    0  0.17073063439E+02 -0.84597049779E+02  0.20712618828E+03  0.22443595568E+03  0.47000000000E+01 0. -1.
        -11    1    4    4    0    0 -0.68813746916E+01  0.34272475287E+01 -0.16023673490E+02  0.17772379002E+02  0.00000000000E+00 0.  1.
         12    1    4    4    0    0 -0.36142015478E+02 -0.23920730573E+00  0.10459501625E+03  0.11066354380E+03  0.00000000000E+00 0. -1.
         -5    1    5    5    0  502 -0.29562971770E+02  0.32817959687E+02  0.82685960201E+02  0.93861844176E+02  0.47000000000E+01 0.  1.
         13    1    6    6    0    0  0.27368589781E+02 -0.12728751705E+02  0.14425771190E+03  0.14738164156E+03  0.00000000000E+00 0. -1.
        -14    1    6    6    0    0  0.28144708721E+02  0.61319801574E+02  0.85143841695E+03  0.85410749941E+03  0.00000000000E+00 0.  1.
</event>
<event>
12    1  0.1597826E-001  0.1793930E+03  0.7818608E-02  0.1170634E+00
         21   -1    0    0  503  502  0.00000000000E+00  0.00000000000E+00  0.35715918767E+03  0.35715918767E+03  0.00000000000E+00 0. -1.
         21   -1    0    0  501  503 -0.00000000000E+00 -0.00000000000E+00 -0.97188921167E+02  0.97188921167E+02  0.00000000000E+00 0. -1.
          6    2    1    2  501    0 -0.23847436670E+02  0.26034619747E+02  0.21116829788E+03  0.27708106077E+03  0.17588451480E+03 0.  0.
         24    2    3    3    0    0 -0.28008638567E+02  0.68959270340E+02  0.20650467486E+03  0.23344987227E+03  0.79465699059E+02 0.  0.
         -6    2    1    2    0  502  0.23847436670E+02 -0.26034619747E+02  0.48801968623E+02  0.17726704807E+03  0.16671974247E+03 0.  0.
        -24    2    5    5    0    0  0.91203229614E+01 -0.78224394027E+02  0.52198161456E+02  0.12273004647E+03  0.78331220692E+02 0.  0.
          5    1    3    3  501    0  0.41612018976E+01 -0.42924650593E+02  0.46636230231E+01  0.43631188495E+02  0.47000000000E+01 0. -1.
        -11    1    4    4    0    0 -0.27880157300E+02  0.61049834012E+02  0.70948449912E+02  0.97663032662E+02  0.00000000000E+00 0.  1.
         12    1    4    4    0    0 -0.12848126742E+00  0.79094363285E+01  0.13555622494E+03  0.13578683961E+03  0.00000000000E+00 0. -1.
         -5    1    5    5    0  502  0.14727113708E+02  0.52189774280E+02 -0.33961928327E+01  0.54537001598E+02  0.47000000000E+01 0.  1.
         13    1    6    6    0    0  0.30008407027E+02 -0.12090225902E+02 -0.51206334164E+01  0.32755136105E+02  0.00000000000E+00 0. -1.
        -14    1    6    6    0    0 -0.20888084065E+02 -0.66134168125E+02  0.57318794872E+02  0.89974910364E+02  0.00000000000E+00 0.  1.
</event>
<event>
12    1  0.1597826E-001  0.1923471E+03  0.7818608E-02  0.1156752E+00
         21   -1    0    0  503  502  0.00000000000E+00  0.00000000000E+00  0.23771405310E+03  0.23771405310E+03  0.00000000000E+00 0. -1.
         21   -1    0    0  501  503 -0.00000000000E+00 -0.00000000000E+00 -0.25999386319E+03  0.25999386319E+03  0.00000000000E+00 0. -1.
          6    2    1    2  501    0 -0.62824826277E+02  0.50721222458E+02 -0.16983370603E+03  0.25528358895E+03  0.17264594372E+03 0.  0.
         24    2    3    3    0    0  0.24146175643E+02  0.60414072468E+02 -0.81174655561E+02  0.13062235301E+03  0.78993521577E+02 0.  0.
         -6    2    1    2    0  502  0.62824826277E+02 -0.50721222458E+02  0.14755389594E+03  0.24242432734E+03  0.17457892506E+03 0.  0.
        -24    2    5    5    0    0  0.91760883857E+02  0.10996441129E+02  0.77523517728E+02  0.14458410402E+03  0.79710010725E+02 0.  0.
          5    1    3    3  501    0 -0.86971001920E+02 -0.96928500096E+01 -0.88659050469E+02  0.12466123594E+03  0.47000000000E+01 0. -1.
        -13    1    4    4    0    0 -0.15520824293E+02 -0.48550410269E+01  0.34531310571E+01  0.16625027044E+02  0.00000000000E+00 0.  1.
         14    1    4    4    0    0  0.39666999936E+02  0.65269113495E+02 -0.84627786618E+02  0.11399732597E+03  0.00000000000E+00 0. -1.
         -5    1    5    5    0  502 -0.28936057580E+02 -0.61717663587E+02  0.70030378213E+02  0.97840223322E+02  0.47000000000E+01 0.  1.
         13    1    6    6    0    0  0.13904964456E+02  0.12051288918E+02  0.62671900234E+02  0.65317292351E+02  0.00000000000E+00 0. -1.
        -14    1    6    6    0    0  0.77855919401E+02 -0.10548477892E+01  0.14851617494E+02  0.79266811667E+02  0.00000000000E+00 0.  1.
</event>
<event>
12    1  0.1597826E-001  0.1764028E+03  0.7818608E-02  0.1171431E+00
         21   -1    0    0  503  502  0.00000000000E+00  0.00000000000E+00  0.55519691310E+02  0.55519691310E+02  0.00000000000E+00 0. -1.
         21   -1    0    0  501  503 -0.00000000000E+00 -0.00000000000E+00 -0.58227624749E+03  0.58227624749E+03  0.00000000000E+00 0. -1.
          6    2    1    2  501    0  0.23353948245E+02 -0.33320924078E+02 -0.32656382722E+03  0.37097185350E+03  0.17123227490E+03 0.  0.
         24    2    3    3    0    0  0.57111435602E+02 -0.46689526431E+02 -0.12244646796E+03  0.16359713510E+03  0.79556628533E+02 0.  0.
         -6    2    1    2    0  502 -0.23353948245E+02  0.33320924078E+02 -0.20019272896E+03  0.26682408529E+03  0.17164577735E+03 0.  0.
        -24    2    5    5    0    0  0.41068493754E+02  0.26000812745E+02 -0.56784656036E+02  0.10936996358E+03  0.79841269596E+02 0.  0.
          5    1    3    3  501    0 -0.33757487356E+02  0.13368602353E+02 -0.20411735926E+03  0.20737471840E+03  0.47000000000E+01 0. -1.
        -13    1    4    4    0    0  0.60419913565E+02 -0.62532962756E+01 -0.10060455914E+03  0.11751998549E+03  0.00000000000E+00 0.  1.
         14    1    4    4    0    0 -0.33084779633E+01 -0.40436230155E+02 -0.21841908815E+02  0.46077149612E+02  0.00000000000E+00 0. -1.
         -5    1    5    5    0  502 -0.64422441999E+02  0.73201113331E+01 -0.14340807292E+03  0.15745412171E+03  0.47000000000E+01 0.  1.
         13    1    6    6    0    0  0.46081732867E+02  0.10955519583E+02 -0.72786284468E+02  0.86841192530E+02  0.00000000000E+00 0. -1.
        -14    1    6    6    0    0 -0.50132391126E+01  0.15045293162E+02  0.16001628432E+02  0.22528771054E+02  0.00000000000E+00 0.  1.
</event>
<event>
12    1  0.1597826E-001  0.1786123E+03  0.7818608E-02  0.1169384E+00
         21   -1    0    0  503  502  0.00000000000E+00  0.00000000000E+00  0.14976984115E+03  0.14976984115E+03  0.00000000000E+00 0. -1.
         21   -1    0    0  501  503 -0.00000000000E+00 -0.00000000000E+00 -0.24840018030E+03  0.24840018030E+03  0.00000000000E+00 0. -1.
          6    2    1    2  501    0  0.33529444533E+02 -0.28355747083E+02 -0.12553239567E+03  0.21754313480E+03  0.17215795390E+03 0.  0.
         24    2    3    3    0    0 -0.14634627686E+02 -0.49308341986E+02 -0.94555764719E+01  0.90049185759E+02  0.73307318956E+02 0.  0.
         -6    2    1    2    0  502 -0.33529444533E+02  0.28355747083E+02  0.26902056525E+02  0.18062688666E+03  0.17313023854E+03 0.  0.
        -24    2    5    5    0    0 -0.34049793008E+02  0.62303560338E+02 -0.37802715135E+02  0.10740447026E+03  0.71172697900E+02 0.  0.
          5    1    3    3  501    0  0.48164072219E+02  0.20952594903E+02 -0.11607681920E+03  0.12749394904E+03  0.47000000000E+01 0. -1.
        -13    1    4    4    0    0  0.14541002802E+01 -0.16870074755E+02  0.31266560900E+02  0.35557160466E+02  0.00000000000E+00 0.  1.
         14    1    4    4    0    0 -0.16088727966E+02 -0.32438267230E+02 -0.40722137372E+02  0.54492025293E+02  0.00000000000E+00 0. -1.
         -5    1    5    5    0  502  0.52034847453E+00 -0.33947813255E+02  0.64704771660E+02  0.73222416396E+02  0.47000000000E+01 0.  1.
         13    1    6    6    0    0 -0.18934748782E+02 -0.12811425745E+02 -0.23592323585E+01  0.22983109415E+02  0.00000000000E+00 0. -1.
        -14    1    6    6    0    0 -0.15115044226E+02  0.75114986083E+02 -0.35443482776E+02  0.84421360849E+02  0.00000000000E+00 0.  1.
</event>
<event>
12    1  0.1597826E-001  0.1848051E+03  0.7818608E-02  0.1163508E+00
         21   -1    0    0  503  502  0.00000000000E+00  0.00000000000E+00  0.85178080522E+03  0.85178080522E+03  0.00000000000E+00 0.  1.
         21   -1    0    0  501  503 -0.00000000000E+00 -0.00000000000E+00 -0.41577001997E+02  0.41577001997E+02  0.00000000000E+00 0.  1.
          6    2    1    2  501    0 -0.57033049868E+02  0.33997736762E+02  0.31259657924E+03  0.36254156000E+03  0.17120498384E+03 0.  0.
         24    2    3    3    0    0 -0.70478007890E+02 -0.22267022044E+02  0.25125394844E+03  0.27809336089E+03  0.93511501418E+02 0.  0.
         -6    2    1    2    0  502  0.57033049868E+02 -0.33997736762E+02  0.49760722399E+03  0.53081624722E+03  0.17246542861E+03 0.  0.
        -24    2    5    5    0    0  0.52703354936E+02  0.31998684321E+02  0.17964997620E+03  0.20601911781E+03  0.79801024643E+02 0.  0.
          5    1    3    3  501    0  0.13444958022E+02  0.56264758806E+02  0.61342630802E+02  0.84448199113E+02  0.47000000000E+01 0. -1.
        -13    1    4    4    0    0 -0.64691672607E+02 -0.38498275918E+02  0.96535488113E+02  0.12241825933E+03  0.00000000000E+00 0.  1.
         14    1    4    4    0    0 -0.57863352834E+01  0.16231253874E+02  0.15471846032E+03  0.15567510155E+03  0.00000000000E+00 0. -1.
         -5    1    5    5    0  502  0.43296949321E+01 -0.65996421083E+02  0.31795724779E+03  0.32479712941E+03  0.47000000000E+01 0.  1.
         11    1    6    6    0    0  0.57100747137E+01 -0.10257010586E+02 -0.35181547132E+01  0.12255147163E+02  0.00000000000E+00 0. -1.
        -12    1    6    6    0    0  0.46993280223E+02  0.42255694907E+02  0.18316813091E+03  0.19376397064E+03  0.00000000000E+00 0.  1.
</event>
<event>
12    1  0.1597826E-001  0.2223949E+03  0.7818608E-02  0.1132179E+00
         21   -1    0    0  503  502  0.00000000000E+00  0.00000000000E+00  0.36464284927E+03  0.36464284927E+03  0.00000000000E+00 0. -1.
         21   -1    0    0  501  503 -0.00000000000E+00 -0.00000000000E+00 -0.19631614467E+03  0.19631614467E+03  0.00000000000E+00 0. -1.
          6    2    1    2  501    0 -0.67921599694E+02  0.12347258722E+03 -0.72013274640E+02  0.23376359913E+03  0.17204849623E+03 0.  0.
         24    2    3    3    0    0 -0.12036767258E+02 -0.57929062851E+01 -0.18908035535E+02  0.83181599116E+02  0.79895075533E+02 0.  0.
         -6    2    1    2    0  502  0.67921599694E+02 -0.12347258722E+03  0.24033997925E+03  0.32719539481E+03  0.17156543143E+03 0.  0.
        -24    2    5    5    0    0  0.34573963342E+02 -0.81195491287E+02  0.50433120422E+02  0.12974635653E+03  0.80638394391E+02 0.  0.
          5    1    3    3  501    0 -0.55884832437E+02  0.12926549351E+03 -0.53105239106E+02  0.15058200002E+03  0.47000000000E+01 0. -1.
        -13    1    4    4    0    0 -0.40298840712E+02 -0.21347094298E+02 -0.22263566411E+02  0.50748018553E+02  0.00000000000E+00 0.  1.
         14    1    4    4    0    0  0.28262073454E+02  0.15554188013E+02  0.33555308761E+01  0.32433580563E+02  0.00000000000E+00 0. -1.
         -5    1    5    5    0  502  0.33347636353E+02 -0.42277095936E+02  0.18990685882E+03  0.19744903828E+03  0.47000000000E+01 0.  1.
         13    1    6    6    0    0  0.32762704764E+02  0.86349866879E+00  0.31616003011E+02  0.45538029160E+02  0.00000000000E+00 0. -1.
        -14    1    6    6    0    0  0.18112585779E+01 -0.82058989956E+02  0.18817117412E+02  0.84208327367E+02  0.00000000000E+00 0.  1.
</event>
<event>
12    1  0.1597826E-001  0.2355150E+03  0.7818608E-02  0.1123046E+00
         21   -1    0    0  501  502  0.00000000000E+00  0.00000000000E+00  0.23472151216E+03  0.23472151216E+03  0.00000000000E+00 0. -1.
         21   -1    0    0  502  503 -0.00000000000E+00 -0.00000000000E+00 -0.78469278425E+03  0.78469278425E+03  0.00000000000E+00 0.  1.
         -6    2    1    2    0  503  0.15006093902E+03 -0.57554996933E+02 -0.70184007639E+03  0.74030184259E+03  0.17215243891E+03 0.  0.
        -24    2    3    3    0    0  0.15746448662E+03 -0.54482580253E+01 -0.48171377324E+03  0.51392250587E+03  0.85108370001E+02 0.  0.
          6    2    1    2  501    0 -0.15006093902E+03  0.57554996933E+02  0.15186880431E+03  0.27911245382E+03  0.17031959683E+03 0.  0.
         24    2    5    5    0    0 -0.15797410316E+03  0.15395370571E+02  0.15486273760E+03  0.23585617222E+03  0.80329519924E+02 0.  0.
          5    1    5    5  501    0  0.79131641406E+01  0.42159626362E+02 -0.29939332934E+01  0.43256281605E+02  0.47000000000E+01 0. -1.
        -11    1    6    6    0    0 -0.44372646413E+01 -0.19865954150E+02  0.18153983138E+02  0.27274760412E+02  0.00000000000E+00 0.  1.
         12    1    6    6    0    0 -0.15353683852E+03  0.35261324720E+02  0.13670875446E+03  0.20858141181E+03  0.00000000000E+00 0. -1.
         -5    1    3    3    0  503 -0.74035475983E+01 -0.52106738907E+02 -0.22012630315E+03  0.22637933672E+03  0.47000000000E+01 0.  1.
         13    1    4    4    0    0  0.27098557611E+02  0.17505192659E+02 -0.33239811182E+02  0.46321146813E+02  0.00000000000E+00 0. -1.
        -14    1    4    4    0    0  0.13036592901E+03 -0.22953450684E+02 -0.44847396206E+03  0.46760135905E+03  0.00000000000E+00 0.  1.
</event>
<event>
12    1  0.1597826E-001  0.1812854E+03  0.7818608E-02  0.1167535E+00
         21   -1    0    0  501  502  0.00000000000E+00  0.00000000000E+00  0.20278494323E+03  0.20278494323E+03  0.00000000000E+00 0.  1.
         21   -1    0    0  502  503 -0.00000000000E+00 -0.00000000000E+00 -0.16197616979E+03  0.16197616979E+03  0.00000000000E+00 0.  1.
         -6    2    1    2    0  503 -0.56771748989E+02 -0.61117582991E+01 -0.64967131330E+01  0.17740524989E+03  0.16783929914E+03 0.  0.
        -24    2    3    3    0    0 -0.47166931417E+02  0.17152193143E+02  0.55890415368E+02  0.10996855543E+03  0.80314553508E+02 0.  0.
          6    2    1    2  501    0  0.56771748989E+02  0.61117582991E+01  0.47305486577E+02  0.18735586313E+03  0.17205820328E+03 0.  0.
         24    2    5    5    0    0 -0.21154936073E+02  0.41932008451E+02  0.40351959112E+02  0.10118104018E+03  0.80021857236E+02 0.  0.
          5    1    5    5  501    0  0.77926685062E+02 -0.35820250152E+02  0.69535274642E+01  0.86174822947E+02  0.47000000000E+01 0. -1.
        -11    1    6    6    0    0 -0.22022174463E+02  0.58003471209E+02  0.52292039646E+02  0.81140842063E+02  0.00000000000E+00 0.  1.
         12    1    6    6    0    0  0.86723839021E+00 -0.16071462758E+02 -0.11940080533E+02  0.20040198121E+02  0.00000000000E+00 0. -1.
         -5    1    3    3    0  503 -0.96048175723E+01 -0.23263951442E+02 -0.62387128501E+02  0.67436694461E+02  0.47000000000E+01 0.  1.
         13    1    4    4    0    0 -0.21090756288E+02 -0.28697638901E+02  0.37666073945E+01  0.35812872135E+02  0.00000000000E+00 0. -1.
        -14    1    4    4    0    0 -0.26076175129E+02  0.45849832044E+02  0.52123807974E+02  0.74155683298E+02  0.00000000000E+00 0.  1.
</event>
<event>
12    1  0.1597826E-001  0.2190272E+03  0.7818608E-02  0.1134890E+00
         21   -1    0    0  501  502  0.00000000000E+00  0.00000000000E+00  0.31555184018E+02  0.31555184018E+02  0.00000000000E+00 0.  1.
         21   -1    0    0  502  503 -0.00000000000E+00 -0.00000000000E+00 -0.15115699305E+04  0.15115699305E+04  0.00000000000E+00 0.  1.
         -6    2    1    2    0  503 -0.87825575651E+02  0.10215400714E+03 -0.71765839636E+03  0.75033759273E+03  0.17269671762E+03 0.  0.
        -24    2    3    3    0    0 -0.11083313786E+03  0.60421056855E+02 -0.36373963976E+03  0.39319397549E+03  0.79751415463E+02 0.  0.
          6    2    1    2  501    0  0.87825575651E+02 -0.10215400714E+03 -0.76235635009E+03  0.79278752176E+03  0.17081006184E+03 0.  0.
         24    2    5    5    0    0  0.10346226806E+02 -0.10887297015E+03 -0.43240904442E+03  0.45376612350E+03  0.83461039427E+02 0.  0.
          5    1    5    5  501    0  0.77479348845E+02  0.67189630052E+01 -0.32994730567E+03  0.33902139826E+03  0.47000000000E+01 0. -1.
        -11    1    6    6    0    0  0.46176388208E+02 -0.54962276232E+02 -0.25521973760E+03  0.26512303766E+03  0.00000000000E+00 0.  1.
         12    1    6    6    0    0 -0.35830161402E+02 -0.53910693913E+02 -0.17718930682E+03  0.18864308584E+03  0.00000000000E+00 0. -1.
         -5    1    3    3    0  503  0.23007562210E+02  0.41732950286E+02 -0.35391875660E+03  0.35714361724E+03  0.47000000000E+01 0.  1.
         13    1    4    4    0    0 -0.21227974063E+02 -0.19614657368E+02 -0.80244087473E+02  0.85290534298E+02  0.00000000000E+00 0. -1.
        -14    1    4    4    0    0 -0.89605163798E+02  0.80035714223E+02 -0.28349555229E+03  0.30790344119E+03  0.00000000000E+00 0.  1.
</event>
<event>
12    1  0.1597826E-001  0.2143601E+03  0.7818608E-02  0.1138728E+00
         21   -1    0    0  501  502  0.00000000000E+00  0.00000000000E+00  0.45733624971E+02  0.45733624971E+02  0.00000000000E+00 0. -1.
         21   -1    0    0  502  503 -0.00000000000E+00 -0.00000000000E+00 -0.10387452486E+04  0.10387452486E+04  0.00000000000E+00 0.  1.
         -6    2    1    2    0  503 -0.84854203477E+02  0.95620522592E+02 -0.38357736270E+03  0.43941079783E+03  0.17206608000E+03 0.  0.
        -24    2    3    3    0    0 -0.10547859878E+03  0.11151228033E+03 -0.37190818244E+03  0.41049413458E+03  0.81418762555E+02 0.  0.
          6    2    1    2  501    0  0.84854203477E+02 -0.95620522592E+02 -0.60943426089E+03  0.64506807570E+03  0.16840185199E+03 0.  0.
         24    2    5    5    0    0  0.19887460312E+02 -0.98015508252E+02 -0.26044757931E+03  0.29004665720E+03  0.79319422896E+02 0.  0.
          5    1    5    5  501    0  0.64966743164E+02  0.23949856603E+01 -0.34898668158E+03  0.35502141850E+03  0.47000000000E+01 0. -1.
        -11    1    6    6    0    0  0.41868774257E+02 -0.88312094948E+02 -0.23749083827E+03  0.25681495018E+03  0.00000000000E+00 0.  1.
         12    1    6    6    0    0 -0.21981313945E+02 -0.97034133047E+01 -0.22956741041E+02  0.33231707024E+02  0.00000000000E+00 0. -1.
         -5    1    3    3    0  503  0.20624395303E+02 -0.15891757735E+02 -0.11669180258E+02  0.28916663248E+02  0.47000000000E+01 0.  1.
         11    1    4    4    0    0 -0.59157394817E+02  0.10887998609E+03 -0.23088504914E+03  0.26203502561E+03  0.00000000000E+00 0. -1.
        -12    1    4    4    0    0 -0.46321203962E+02  0.26322942371E+01 -0.14102313330E+03  0.14845910897E+03  0.00000000000E+00 0.  1.
</event>
<event>
12    1  0.1597826E-001  0.2093491E+03  0.7818608E-02  0.1144984E+00
         21   -1    0    0  501  502  0.00000000000E+00  0.00000000000E+00  0.23304226526E+03  0.23304226526E+03  0.00000000000E+00 0. -1.
         21   -1    0    0  502  503 -0.00000000000E+00 -0.00000000000E+00 -0.38778269499E+03  0.38778269499E+03  0.00000000000E+00 0. -1.
         -6    2    1    2    0  503 -0.95377431362E+02  0.25242830819E+02 -0.30568104856E+03  0.36273560435E+03  0.16852940485E+03 0.  0.
        -24    2    3    3    0    0 -0.13588290666E+02 -0.41306923804E+02 -0.13422100880E+03  0.16139269137E+03  0.78367199942E+02 0.  0.
          6    2    1    2  501    0  0.95377431362E+02 -0.25242830819E+02  0.15094061883E+03  0.25808935589E+03  0.18464287230E+03 0.  0.
         24    2    5    5    0    0  0.84510817574E+00  0.33476100804E+02  0.11420387647E+03  0.14080358823E+03  0.75244677703E+02 0.  0.
          5    1    5    5  501    0  0.94532323186E+02 -0.58718931624E+02  0.36736742356E+02  0.11728576767E+03  0.47000000000E+01 0. -1.
        -11    1    6    6    0    0 -0.26780442154E+02 -0.86983730703E+01  0.22065660184E+02  0.35773553575E+02  0.00000000000E+00 0.  1.
         12    1    6    6    0    0  0.27625550330E+02  0.42174473874E+02  0.92138216290E+02  0.10503003465E+03  0.00000000000E+00 0. -1.
         -5    1    3    3    0  503 -0.81789140696E+02  0.66549754624E+02 -0.17146003975E+03  0.20134291298E+03  0.47000000000E+01 0.  1.
         13    1    4    4    0    0 -0.22406616491E+02  0.17886393481E+02 -0.55905193162E+02  0.62828100057E+02  0.00000000000E+00 0. -1.
        -14    1    4    4    0    0  0.88183258249E+01 -0.59193317285E+02 -0.78315815642E+02  0.98564591316E+02  0.00000000000E+00 0.  1.
</event>
<event>
12    1  0.1597826E-001  0.2913010E+03  0.7818608E-02  0.1090149E+00
         21   -1    0    0  503  502  0.00000000000E+00  0.00000000000E+00  0.11723253212E+04  0.11723253212E+04  0.00000000000E+00 0. -1.
         21   -1    0    0  501  503 -0.00000000000E+00 -0.00000000000E+00 -0.92699635605E+02  0.92699635605E+02  0.00000000000E+00 0.  1.
          6    2    1    2  501    0 -0.46313069625E+02  0.22596690336E+03  0.23456578911E+03  0.37116674941E+03  0.17186536770E+03 0.  0.
         24    2    3    3    0    0 -0.96438013402E+02  0.14607755601E+03  0.14677082634E+03  0.24222930995E+03  0.80587966423E+02 0.  0.
         -6    2    1    2    0  502  0.46313069625E+02 -0.22596690336E+03  0.84505989652E+03  0.89385820743E+03  0.17790538060E+03 0.  0.
        -24    2    5    5    0    0  0.49738341643E+02 -0.20793693326E+03  0.84464265642E+03  0.87490889610E+03  0.79578191654E+02 0.  0.
          5    1    3    3  501    0  0.50124943778E+02  0.79889347351E+02  0.87794962768E+02  0.12893743947E+03  0.47000000000E+01 0. -1.
        -13    1    4    4    0    0  0.10976319975E+02  0.26881823604E+02  0.80713434336E+01  0.30137329432E+02  0.00000000000E+00 0.  1.
         14    1    4    4    0    0 -0.10741433338E+03  0.11919573241E+03  0.13869948291E+03  0.21209198051E+03  0.00000000000E+00 0. -1.
         -5    1    5    5    0  502 -0.34252720186E+01 -0.18029970106E+02  0.41724009658E+00  0.18949311326E+02  0.47000000000E+01 0.  1.
         11    1    6    6    0    0  0.27259730776E+02 -0.21149117672E+02  0.21531231530E+03  0.21805910029E+03  0.00000000000E+00 0. -1.
        -12    1    6    6    0    0  0.22478610867E+02 -0.18678781559E+03  0.62933034113E+03  0.65684979581E+03  0.00000000000E+00 0.  1.
</event>
<event>
12    1  0.1597826E-001  0.1801336E+03  0.7818608E-02  0.1168115E+00
         21   -1    0    0  501  502  0.00000000000E+00  0.00000000000E+00  0.78765725208E+03  0.78765725208E+03  0.00000000000E+00 0.  1.
         21   -1    0    0  502  503 -0.00000000000E+00 -0.00000000000E+00 -0.78367765275E+02  0.78367765275E+02  0.00000000000E+00 0.  1.
         -6    2    1    2    0  503 -0.46622198663E+02 -0.10573912727E+02  0.53834595147E+02  0.18626828223E+03  0.17179136268E+03 0.  0.
        -24    2    3    3    0    0 -0.97142414178E+02  0.11172330577E+00  0.48496868018E+02  0.13414289184E+03  0.78776316925E+02 0.  0.
          6    2    1    2  501    0  0.46622198663E+02  0.10573912727E+02  0.65545489165E+03  0.67975673512E+03  0.17367402485E+03 0.  0.
         24    2    5    5    0    0 -0.31441721843E+02  0.37444184941E+02  0.27615252713E+03  0.29154498756E+03  0.79671906398E+02 0.  0.
          5    1    5    5  501    0  0.78063920506E+02 -0.26870272213E+02  0.37930236452E+03  0.38821174756E+03  0.47000000000E+01 0. -1.
        -11    1    6    6    0    0 -0.10124573257E+02 -0.12743884347E+02  0.18212426323E+03  0.18285010481E+03  0.00000000000E+00 0.  1.
         12    1    6    6    0    0 -0.21317148586E+02  0.50188069288E+02  0.94028263901E+02  0.10869488274E+03  0.00000000000E+00 0. -1.
         -5    1    3    3    0  503  0.50520215515E+02 -0.10685636033E+02  0.53377271286E+01  0.52125390396E+02  0.47000000000E+01 0.  1.
         13    1    4    4    0    0 -0.59776209269E+02 -0.37626061947E+02  0.17950864249E+02  0.72877632094E+02  0.00000000000E+00 0. -1.
        -14    1    4    4    0    0 -0.37366204909E+02  0.37737785253E+02  0.30546003769E+02  0.61265259742E+02  0.00000000000E+00 0.  1.
</event>
<event>
12    1  0.1597826E-001  0.2349616E+03  0.7818608E-02  0.1123269E+00
         21   -1    0    0  501  502  0.00000000000E+00  0.00000000000E+00  0.22456272535E+03  0.22456272535E+03  0.00000000000E+00 0. -1.
         21   -1    0    0  502  503 -0.00000000000E+00 -0.00000000000E+00 -0.24727210295E+03  0.24727210295E+03  0.00000000000E+00 0. -1.
         -6    2    1    2    0  503 -0.11449739216E+02  0.15937422775E+03 -0.31922659290E+02  0.23712029240E+03  0.17226646770E+03 0.  0.
        -24    2    3    3    0    0  0.28102910325E+02  0.13017500070E+03 -0.74770589772E+02  0.17173648636E+03  0.78533274959E+02 0.  0.
          6    2    1    2  501    0  0.11449739216E+02 -0.15937422775E+03  0.92132816910E+01  0.23471453589E+03  0.17168222913E+03 0.  0.
         24    2    5    5    0    0 -0.29070830884E+02 -0.75397066690E+02 -0.48021312074E+02  0.12520668729E+03  0.82709354098E+02 0.  0.
          5    1    5    5  501    0  0.40520570099E+02 -0.83977161063E+02  0.57234593765E+02  0.10950784860E+03  0.47000000000E+01 0. -1.
        -11    1    6    6    0    0  0.24175776716E+02 -0.14421767274E+02 -0.32116228968E+02  0.42707232576E+02  0.00000000000E+00 0.  1.
         12    1    6    6    0    0 -0.53246607600E+02 -0.60975299415E+02 -0.15905083106E+02  0.82499454715E+02  0.00000000000E+00 0. -1.
         -5    1    3    3    0  503 -0.39552649540E+02  0.29199227050E+02  0.42847930482E+02  0.65383806042E+02  0.47000000000E+01 0.  1.
         11    1    4    4    0    0  0.39690408918E+02  0.96556847394E+02 -0.19784568432E+02  0.10625432926E+03  0.00000000000E+00 0. -1.
        -12    1    4    4    0    0 -0.11587498593E+02  0.33618153309E+02 -0.54986021339E+02  0.65482157098E+02  0.00000000000E+00 0.  1.
</event>
<event>
12    1  0.1597826E-001  0.2173847E+03  0.7818608E-02  0.1136256E+00
         21   -1    0    0  503  502  0.00000000000E+00  0.00000000000E+00  0.74194733110E+03  0.74194733110E+03  0.00000000000E+00 0.  1.
         21   -1    0    0  501  503 -0.00000000000E+00 -0.00000000000E+00 -0.11231937502E+03  0.11231937502E+03  0.00000000000E+00 0. -1.
          6    2    1    2  501    0 -0.91263702233E+02 -0.92606186140E+02  0.32842548472E+02  0.21985160280E+03  0.17421574328E+03 0.  0.
         24    2    3    3    0    0 -0.23658954245E+02 -0.53292982690E+02 -0.46076323727E+02  0.10864814825E+03  0.79255942296E+02 0.  0.
         -6    2    1    2    0  502  0.91263702233E+02  0.92606186140E+02  0.59678540761E+03  0.63441510332E+03  0.17153638542E+03 0.  0.
        -24    2    5    5    0    0 -0.15557458408E+02  0.47526150940E+02  0.32787025276E+03  0.34153215666E+03  0.81514059227E+02 0.  0.
          5    1    3    3  501    0 -0.67604747987E+02 -0.39313203450E+02  0.78918872198E+02  0.11120345455E+03  0.47000000000E+01 0. -1.
        -13    1    4    4    0    0 -0.12796570096E+02  0.13626582366E+02 -0.35379121818E+02  0.40013975232E+02  0.00000000000E+00 0.  1.
         14    1    4    4    0    0 -0.10862384149E+02 -0.66919565057E+02 -0.10697201908E+02  0.68634173015E+02  0.00000000000E+00 0. -1.
         -5    1    5    5    0  502  0.10682116064E+03  0.45080035200E+02  0.26891515485E+03  0.29288294666E+03  0.47000000000E+01 0.  1.
         13    1    6    6    0    0  0.70812041557E+00  0.52852065886E+02  0.31673101461E+03  0.32111116131E+03  0.00000000000E+00 0. -1.
        -14    1    6    6    0    0 -0.16265578823E+02 -0.53259149455E+01  0.11139238154E+02  0.20420995351E+02  0.00000000000E+00 0.  1.
</event>
<event>
12    1  0.1597826E-001  0.2966537E+03  0.7818608E-02  0.1086973E+00
         21   -1    0    0  501  502  0.00000000000E+00  0.00000000000E+00  0.16063774279E+03  0.16063774279E+03  0.00000000000E+00 0.  1.
         21   -1    0    0  502  503 -0.00000000000E+00 -0.00000000000E+00 -0.54922472531E+03  0.54922472531E+03  0.00000000000E+00 0. -1.
         -6    2    1    2    0  503 -0.14257988905E+03  0.19460815239E+03 -0.17231179748E+03  0.34274073271E+03  0.17198400090E+03 0.  0.
        -24    2    3    3    0    0 -0.50632395999E+02  0.10559385319E+03 -0.15983394834E+03  0.21407187998E+03  0.81031952964E+02 0.  0.
          6    2    1    2  501    0  0.14257988905E+03 -0.19460815239E+03 -0.21627518504E+03  0.36712173540E+03  0.17263271765E+03 0.  0.
         24    2    5    5    0    0  0.44794388193E+02 -0.26001134954E+02 -0.10686682834E+03  0.14355382844E+03  0.80651016286E+02 0.  0.
          5    1    5    5  501    0  0.97785500859E+02 -0.16860701744E+03 -0.10940835670E+03  0.22356790696E+03  0.47000000000E+01 0. -1.
        -13    1    6    6    0    0  0.40109775923E+02 -0.25535304407E+02 -0.12028066328E+03  0.12933786706E+03  0.00000000000E+00 0.  1.
         14    1    6    6    0    0  0.46846122697E+01 -0.46583054683E+00  0.13413834941E+02  0.14215961383E+02  0.00000000000E+00 0. -1.
         -5    1    3    3    0  503 -0.91947493053E+02  0.89014299206E+02 -0.12477849139E+02  0.12866885272E+03  0.47000000000E+01 0.  1.
         13    1    4    4    0    0 -0.33893830477E+02  0.54881610720E+02 -0.25232841503E+02  0.69263837823E+02  0.00000000000E+00 0. -1.
        -14    1    4    4    0    0 -0.16738565522E+02  0.50712242467E+02 -0.13460110684E+03  0.14480804216E+03  0.00000000000E+00 0.  1.
</event>
<event>
12    1  0.1597826E-001  0.1987776E+03  0.7818608E-02  0.1150810E+00
         21   -1    0    0  501  502  0.00000000000E+00  0.00000000000E+00  0.21542389525E+03  0.21542389525E+03  0.00000000000E+00 0. -1.
         21   -1    0    0  502  503 -0.00000000000E+00 -0.00000000000E+00 -0.20448780664E+03  0.20448780664E+03  0.00000000000E+00 0.  1.
         -6    2    1    2    0  503 -0.95207709079E+02  0.32342192530E+02 -0.62173885142E+02  0.20811558586E+03  0.17127749356E+03 0.  0.
        -24    2    3    3    0    0 -0.38682956226E+02  0.18307455015E+02  0.30397773238E+02  0.98645848136E+02  0.83519127900E+02 0.  0.
          6    2    1    2  501    0  0.95207709079E+02 -0.32342192530E+02  0.73109973760E+02  0.21179611603E+03  0.17147011756E+03 0.  0.
         24    2    5    5    0    0  0.76242900019E+02  0.39778872314E+02  0.17058416223E+02  0.11838851956E+03  0.79558239755E+02 0.  0.
          5    1    5    5  501    0  0.18964809060E+02 -0.72121064844E+02  0.56051557537E+02  0.93407596475E+02  0.47000000000E+01 0. -1.
        -13    1    6    6    0    0  0.12207178906E+01  0.27489962011E+02 -0.19802184807E+02  0.33901544016E+02  0.00000000000E+00 0.  1.
         14    1    6    6    0    0  0.75022182128E+02  0.12288910304E+02  0.36860601030E+02  0.84486975541E+02  0.00000000000E+00 0. -1.
         -5    1    3    3    0  503 -0.56524752852E+02  0.14034737515E+02 -0.92571658380E+02  0.10946973772E+03  0.47000000000E+01 0.  1.
         11    1    4    4    0    0  0.19550482186E+02 -0.11953511499E+02 -0.58827366367E+01  0.23658283564E+02  0.00000000000E+00 0. -1.
        -12    1    4    4    0    0 -0.58233438412E+02  0.30260966515E+02  0.36280509875E+02  0.74987564572E+02  0.00000000000E+00 0.  1.
</event>
<event>
12    1  0.1597826E-001  0.2843605E+03  0.7818608E-02  0.1093436E+00
         21   -1    0    0  503  502  0.00000000000E+00  0.00000000000E+00  0.93038262421E+03  0.93038262421E+03  0.00000000000E+00 0.  1.
         21   -1    0    0  501  503 -0.00000000000E+00 -0.00000000000E+00 -0.88854186086E+02  0.88854186086E+02  0.00000000000E+00 0. -1.
          6    2    1    2  501    0 -0.22046038796E+03  0.49847702673E+02  0.34032138573E+03  0.44298217317E+03  0.17125123077E+03 0.  0.
         24    2    3    3    0    0 -0.21649728372E+03 -0.24079061467E+01  0.28408311958E+03  0.36596797040E+03  0.79702350408E+02 0.  0.
         -6    2    1    2    0  502  0.22046038796E+03 -0.49847702673E+02  0.50120705239E+03  0.57625463713E+03  0.17254947498E+03 0.  0.
        -24    2    5    5    0    0  0.20398405162E+03 -0.92504765127E+02  0.40659836576E+03  0.47106914277E+03  0.80107935579E+02 0.  0.
          5    1    3    3  501    0 -0.39631042415E+01  0.52255608820E+02  0.56238266155E+02  0.77014202771E+02  0.47000000000E+01 0. -1.
        -13    1    4    4    0    0  0.47776258720E+01  0.35806584063E+01  0.22584482006E+02  0.23360343556E+02  0.00000000000E+00 0.  1.
         14    1    4    4    0    0 -0.22127490959E+03 -0.59885645530E+01  0.26149863757E+03  0.34260762685E+03  0.00000000000E+00 0. -1.
         -5    1    5    5    0  502  0.16476336341E+02  0.42657062454E+02  0.94608686632E+02  0.10518549435E+03  0.47000000000E+01 0.  1.
         13    1    6    6    0    0 -0.21573030947E+01  0.61800018353E+01  0.28838635973E+01  0.71528350026E+01  0.00000000000E+00 0. -1.
        -14    1    6    6    0    0  0.20614135472E+03 -0.98684766962E+02  0.40371450216E+03  0.46391630777E+03  0.00000000000E+00 0.  1.
</event>
<event>
12    1  0.1597826E-001  0.2083046E+03  0.7818608E-02  0.1143020E+00
         21   -1    0    0  503  502  0.00000000000E+00  0.00000000000E+00  0.15162058236E+04  0.15162058236E+04  0.00000000000E+00 0.  1.
         21   -1    0    0  501  503 -0.00000000000E+00 -0.00000000000E+00 -0.33920504980E+02  0.33920504980E+02  0.00000000000E+00 0. -1.
          6    2    1    2  501    0  0.17467278417E+02 -0.11582722876E+03  0.43342831565E+03  0.48088553391E+03  0.17224906148E+03 0.  0.
         24    2    3    3    0    0  0.71296831574E+02 -0.10158060774E+03  0.35494085446E+03  0.38453742253E+03  0.80524288858E+02 0.  0.
         -6    2    1    2    0  502 -0.17467278417E+02  0.11582722876E+03  0.10488570030E+04  0.10692407947E+04  0.17162112797E+03 0.  0.
        -24    2    5    5    0    0  0.64966361146E+01  0.41446699731E+02  0.23089106439E+03  0.24753701655E+03  0.78764558956E+02 0.  0.
          5    1    3    3  501    0 -0.53829553157E+02 -0.14246621017E+02  0.78487461188E+02  0.96348111384E+02  0.47000000000E+01 0. -1.
        -11    1    4    4    0    0  0.46290309245E+02 -0.10234205950E+03  0.33239020152E+03  0.35085600457E+03  0.00000000000E+00 0.  1.
         12    1    4    4    0    0  0.25006522329E+02  0.76145175869E+00  0.22550652938E+02  0.33681417959E+02  0.00000000000E+00 0. -1.
         -5    1    5    5    0  502 -0.23963914532E+02  0.74380529029E+02  0.81796593858E+03  0.82170377812E+03  0.47000000000E+01 0.  1.
         13    1    6    6    0    0 -0.33425780924E+02  0.30894982808E+02  0.92103818354E+02  0.10273702423E+03  0.00000000000E+00 0. -1.
        -14    1    6    6    0    0  0.39922417039E+02  0.10551716923E+02  0.13878724603E+03  0.14479999231E+03  0.00000000000E+00 0.  1.
</event>
<event>
12    1  0.1597826E-001  0.2829078E+03  0.7818608E-02  0.1094163E+00
         21   -1    0    0  501  502  0.00000000000E+00  0.00000000000E+00  0.66173591408E+03  0.66173591408E+03  0.00000000000E+00 0. -1.
         21   -1    0    0  502  503 -0.00000000000E+00 -0.00000000000E+00 -0.13251813085E+03  0.13251813085E+03  0.00000000000E+00 0. -1.
         -6    2    1    2    0  503 -0.17854964971E+03 -0.13598372394E+03  0.14628873066E+03  0.31815373285E+03  0.17160959885E+03 0.  0.
        -24    2    3    3    0    0 -0.19557171227E+03 -0.12661211736E+03  0.16029686406E+03  0.29374276349E+03  0.79440566305E+02 0.  0.
          6    2    1    2  501    0  0.17854964971E+03  0.13598372394E+03  0.38292905257E+03  0.47610031208E+03  0.17223616714E+03 0.  0.
         24    2    5    5    0    0  0.15022854480E+02  0.77177283702E+02  0.17537571716E+03  0.20536116232E+03  0.72350159248E+02 0.  0.
          5    1    5    5  501    0  0.16352679523E+03  0.58806440236E+02  0.20755333541E+03  0.27073914976E+03  0.47000000000E+01 0. -1.
        -11    1    6    6    0    0  0.20919491005E+02  0.10717912757E+02  0.10804293534E+03  0.11057022491E+03  0.00000000000E+00 0.  1.
         12    1    6    6    0    0 -0.58966365255E+01  0.66459370945E+02  0.67332781818E+02  0.94790937416E+02  0.00000000000E+00 0. -1.
         -5    1    3    3    0  503  0.17022062554E+02 -0.93716065819E+01 -0.14008133403E+02  0.24410969357E+02  0.47000000000E+01 0.  1.
         11    1    4    4    0    0 -0.25738661784E+02  0.40360238705E+01  0.40783212076E+02  0.48394613196E+02  0.00000000000E+00 0. -1.
        -12    1    4    4    0    0 -0.16983305048E+03 -0.13064814123E+03  0.11951365198E+03  0.24534815029E+03  0.00000000000E+00 0.  1.
</event>
<event>
12    1  0.1597826E-001  0.1955120E+03  0.7818608E-02  0.1153682E+00
         21   -1    0    0  503  502  0.00000000000E+00  0.00000000000E+00  0.30708338474E+03  0.30708338474E+03  0.00000000000E+00 0.  1.
         21   -1    0    0  501  503 -0.00000000000E+00 -0.00000000000E+00 -0.14271822738E+03  0.14271822738E+03  0.00000000000E+00 0.  1.
          6    2    1    2  501    0 -0.74396364694E+02 -0.52302688126E+02  0.10538845939E+01  0.19505567112E+03  0.17255495907E+03 0.  0.
         24    2    3    3    0    0 -0.99297271217E+02 -0.89601780951E+02 -0.82631532965E+01  0.14901031667E+03  0.65171830964E+02 0.  0.
         -6    2    1    2    0  502  0.74396364694E+02  0.52302688126E+02  0.16331127277E+03  0.25474594101E+03  0.17307377728E+03 0.  0.
        -24    2    5    5    0    0  0.83163882749E+02  0.88421659658E+02  0.16102562388E+03  0.21721244039E+03  0.80730238612E+02 0.  0.
          5    1    3    3  501    0  0.24900906523E+02  0.37299092825E+02  0.93170378904E+01  0.46045354449E+02  0.47000000000E+01 0. -1.
        -11    1    4    4    0    0  0.84225115823E+01 -0.12891982515E+02  0.47861695277E+01  0.16126045184E+02  0.00000000000E+00 0.  1.
         12    1    4    4    0    0 -0.10771978280E+03 -0.76709798436E+02 -0.13049322824E+02  0.13288427149E+03  0.00000000000E+00 0. -1.
         -5    1    5    5    0  502 -0.87675180547E+01 -0.36118971533E+02  0.22856488896E+01  0.37533500613E+02  0.47000000000E+01 0.  1.
         11    1    6    6    0    0  0.41253912211E+02  0.13754229891E+02  0.11623580440E+02  0.45013017393E+02  0.00000000000E+00 0. -1.
        -12    1    6    6    0    0  0.41909970538E+02  0.74667429767E+02  0.14940204344E+03  0.17219942300E+03  0.00000000000E+00 0.  1.
</event>
<event>
12    1  0.1597826E-001  0.1742542E+03  0.7818608E-02  0.1173490E+00
         21   -1    0    0  501  502  0.00000000000E+00  0.00000000000E+00  0.11998396520E+03  0.11998396520E+03  0.00000000000E+00 0. -1.
         21   -1    0    0  502  503 -0.00000000000E+00 -0.00000000000E+00 -0.30736904372E+03  0.30736904372E+03  0.00000000000E+00 0. -1.
         -6    2    1    2    0  503 -0.24251409026E+02  0.60066474338E+01 -0.38440853412E+01  0.17426837729E+03  0.17242528723E+03 0.  0.
        -24    2    3    3    0    0  0.53321003832E+02  0.53939866809E+01 -0.65100749765E+01  0.96505583547E+02  0.79992012336E+02 0.  0.
          6    2    1    2  501    0  0.24251409026E+02 -0.60066474338E+01 -0.18354099318E+03  0.25308463163E+03  0.17245383132E+03 0.  0.
         24    2    5    5    0    0  0.34122833052E+02 -0.64486129096E+02 -0.15109235130E+03  0.18531812701E+03  0.78683422638E+02 0.  0.
          5    1    5    5  501    0 -0.98714240260E+01  0.58479481662E+02 -0.32448641884E+02  0.67766504616E+02  0.47000000000E+01 0. -1.
        -13    1    6    6    0    0  0.39220904714E+02  0.56923996235E+00 -0.37218374531E+02  0.54072273889E+02  0.00000000000E+00 0.  1.
         14    1    6    6    0    0 -0.50980716626E+01 -0.65055369059E+02 -0.11387397676E+03  0.13124585312E+03  0.00000000000E+00 0. -1.
         -5    1    3    3    0  503 -0.77572412858E+02  0.61266075299E+00  0.26659896353E+01  0.77762793742E+02  0.47000000000E+01 0.  1.
         11    1    4    4    0    0  0.37846696613E+02 -0.18680945333E+02  0.28768647138E+02  0.51078226488E+02  0.00000000000E+00 0. -1.
        -12    1    4    4    0    0  0.15474307220E+02  0.24074932014E+02 -0.35278722114E+02  0.45427357059E+02  0.00000000000E+00 0.  1.
</event>
<event>
12    1  0.1597826E-001  0.1900134E+03  0.7818608E-02  0.1158666E+00
         21   -1    0    0  501  502  0.00000000000E+00  0.00000000000E+00  0.13545064775E+03  0.13545064775E+03  0.00000000000E+00 0. -1.
         21   -1    0    0  502  503 -0.00000000000E+00 -0.00000000000E+00 -0.33136362081E+03  0.33136362081E+03  0.00000000000E+00 0.  1.
         -6    2    1    2    0  503  0.75963842637E+02 -0.16769470329E+02 -0.20244247217E+03  0.27764735761E+03  0.17335910742E+03 0.  0.
        -24    2    3    3    0    0  0.84056755295E+02  0.73843090373E+01 -0.50535449262E+02  0.12354760452E+03  0.74767057048E+02 0.  0.
          6    2    1    2  501    0 -0.75963842637E+02  0.16769470329E+02  0.65294991128E+01  0.18916691095E+03  0.17230718301E+03 0.  0.
         24    2    5    5    0    0  0.58903996755E+01 -0.38628548463E+02  0.84562640701E+01  0.90197926447E+02  0.80853546419E+02 0.  0.
          5    1    5    5  501    0 -0.81854242313E+02  0.55398018792E+02 -0.19267649573E+01  0.98968984505E+02  0.47000000000E+01 0. -1.
        -13    1    6    6    0    0 -0.36356927563E+02 -0.14157838685E+02  0.13095491602E+02  0.41155345684E+02  0.00000000000E+00 0.  1.
         14    1    6    6    0    0  0.42247327238E+02 -0.24470709778E+02 -0.46392275322E+01  0.49042580763E+02  0.00000000000E+00 0. -1.
         -5    1    3    3    0  503 -0.80929126575E+01 -0.24153779366E+02 -0.15190702291E+03  0.15409975309E+03  0.47000000000E+01 0.  1.
         13    1    4    4    0    0 -0.89403325615E+01  0.92714895654E+00 -0.25478992155E+02  0.27017923546E+02  0.00000000000E+00 0. -1.
        -14    1    4    4    0    0  0.92997087856E+02  0.64571600807E+01 -0.25056457108E+02  0.96529680973E+02  0.00000000000E+00 0.  1.
</event>
<event>
12    1  0.1597826E-001  0.2040700E+03  0.7818608E-02  0.1147002E+00
         21   -1    0    0  503  502  0.00000000000E+00  0.00000000000E+00  0.22253260012E+03  0.22253260012E+03  0.00000000000E+00 0.  1.
         21   -1    0    0  501  503 -0.00000000000E+00 -0.00000000000E+00 -0.22385029917E+03  0.22385029917E+03  0.00000000000E+00 0. -1.
          6    2    1    2  501    0  0.97222826952E+02  0.51504347104E+02  0.93190456104E+02  0.22434133531E+03  0.17187087527E+03 0.  0.
         24    2    3    3    0    0  0.30285048483E+02  0.26446487486E+01 -0.15729845593E+02  0.87397337880E+02  0.80415721706E+02 0.  0.
         -6    2    1    2    0  502 -0.97222826952E+02 -0.51504347104E+02 -0.94508155148E+02  0.22204156399E+03  0.16812402831E+03 0.  0.
        -24    2    5    5    0    0 -0.53022407100E+02  0.35762374897E+01 -0.11251247432E+03  0.14900873970E+03  0.81977939099E+02 0.  0.
          5    1    3    3  501    0  0.66937778468E+02  0.48859698356E+02  0.10892030170E+03  0.13694399743E+03  0.47000000000E+01 0. -1.
        -11    1    4    4    0    0  0.33459986218E+02  0.36789578258E+02 -0.14530219951E+00  0.49729919152E+02  0.00000000000E+00 0.  1.
         12    1    4    4    0    0 -0.31749377351E+01 -0.34144929510E+02 -0.15584543393E+02  0.37667418728E+02  0.00000000000E+00 0. -1.
         -5    1    5    5    0  502 -0.44200419852E+02 -0.55080584594E+02  0.18004319176E+02  0.73032824287E+02  0.47000000000E+01 0.  1.
         11    1    6    6    0    0  0.17753768627E+02  0.57279300834E+01 -0.54067492064E+02  0.57195272370E+02  0.00000000000E+00 0. -1.
        -12    1    6    6    0    0 -0.70776175726E+02 -0.21516925937E+01 -0.58444982260E+02  0.91813467328E+02  0.00000000000E+00 0.  1.
</event>
<event>
12    1  0.1597826E-001  0.2287844E+03  0.7818608E-02  0.1127537E+00
         21   -1    0    0  503  502  0.00000000000E+00  0.00000000000E+00  0.15295333579E+03  0.15295333579E+03  0.00000000000E+00 0. -1.
         21   -1    0    0  501  503 -0.00000000000E+00 -0.00000000000E+00 -0.34256793731E+03  0.34256793731E+03  0.00000000000E+00 0.  1.
          6    2    1    2  501    0  0.11576631829E+02  0.15011455222E+03 -0.83677430114E+02  0.24340026932E+03  0.17196912980E+03 0.  0.
         24    2    3    3    0    0 -0.49625305783E+02  0.78660987417E+02 -0.85368164396E+02  0.14918648226E+03  0.79490006168E+02 0.  0.
         -6    2    1    2    0  502 -0.11576631829E+02 -0.15011455222E+03 -0.10593717140E+03  0.25212100378E+03  0.17226119432E+03 0.  0.
        -24    2    5    5    0    0 -0.60070729540E+01 -0.34834273877E+02  0.14237843413E+02  0.85433611495E+02  0.76463548348E+02 0.  0.
          5    1    3    3  501    0  0.61201937612E+02  0.71453564804E+02  0.16907342815E+01  0.94213787065E+02  0.47000000000E+01 0. -1.
        -13    1    4    4    0    0 -0.39637518266E+02  0.91676395807E+02 -0.87317421291E+02  0.13266509135E+03  0.00000000000E+00 0.  1.
         14    1    4    4    0    0 -0.99877875167E+01 -0.13015408390E+02  0.19492568947E+01  0.16521390906E+02  0.00000000000E+00 0. -1.
         -5    1    5    5    0  502 -0.55695588754E+01 -0.11528027834E+03 -0.12017501481E+03  0.16668739229E+03  0.47000000000E+01 0.  1.
         13    1    6    6    0    0  0.18469780217E+02 -0.33722480930E+02  0.35992978363E+02  0.52667190857E+02  0.00000000000E+00 0. -1.
        -14    1    6    6    0    0 -0.24476853171E+02 -0.11117929476E+01 -0.21755134950E+02  0.32766420638E+02  0.00000000000E+00 0.  1.
</event>
<event>
12    1  0.1597826E-001  0.1943941E+03  0.7818608E-02  0.1154997E+00
         21   -1    0    0  501  502  0.00000000000E+00  0.00000000000E+00  0.38316603596E+03  0.38316603596E+03  0.00000000000E+00 0.  1.
         21   -1    0    0  502  503 -0.00000000000E+00 -0.00000000000E+00 -0.26304155757E+03  0.26304155757E+03  0.00000000000E+00 0.  1.
         -6    2    1    2    0  503 -0.83407718960E+02 -0.30283286027E+02 -0.19628653228E+03  0.27485198076E+03  0.17070818252E+03 0.  0.
        -24    2    3    3    0    0 -0.98157647323E+02  0.65384401388E+01 -0.80180583735E+02  0.15206728631E+03  0.83772660396E+02 0.  0.
          6    2    1    2  501    0  0.83407718960E+02  0.30283286027E+02  0.31641101067E+03  0.37135561277E+03  0.17295993314E+03 0.  0.
         24    2    5    5    0    0  0.70437902920E+02 -0.30895984031E+02  0.27119373915E+03  0.29403930882E+03  0.83648137950E+02 0.  0.
          5    1    5    5  501    0  0.12969816040E+02  0.61179270058E+02  0.45217271523E+02  0.77316303953E+02  0.47000000000E+01 0. -1.
        -11    1    6    6    0    0 -0.57573059756E+01 -0.92301691517E+01  0.14253345360E+03  0.14294799051E+03  0.00000000000E+00 0.  1.
         12    1    6    6    0    0  0.76195208895E+02 -0.21665814879E+02  0.12866028555E+03  0.15109131831E+03  0.00000000000E+00 0. -1.
         -5    1    3    3    0  503  0.14749928363E+02 -0.36821726166E+02 -0.11610594854E+03  0.12278469445E+03  0.47000000000E+01 0.  1.
         11    1    4    4    0    0  0.69725277752E+01  0.18951582582E+02 -0.16540555852E+01  0.20261158057E+02  0.00000000000E+00 0. -1.
        -12    1    4    4    0    0 -0.10513017510E+03 -0.12413142443E+02 -0.78526528149E+02  0.13180612825E+03  0.00000000000E+00 0.  1.
</event>
<event>
12    1  0.1597826E-001  0.4054170E+03  0.7818608E-02  0.1041921E+00
         21   -1    0    0  501  502  0.00000000000E+00  0.00000000000E+00  0.13066305869E+04  0.13066305869E+04  0.00000000000E+00 0.  1.
         21   -1    0    0  502  503 -0.00000000000E+00 -0.00000000000E+00 -0.16285596147E+03  0.16285596147E+03  0.00000000000E+00 0. -1.
         -6    2    1    2    0  503 -0.11865107010E+03  0.34747900390E+03  0.22135653708E+03  0.46191084306E+03  0.17188128413E+03 0.  0.
        -24    2    3    3    0    0 -0.92727917063E+02  0.33803192050E+03  0.15797237151E+03  0.39262231809E+03  0.79579951120E+02 0.  0.
          6    2    1    2  501    0  0.11865107010E+03 -0.34747900390E+03  0.92241808835E+03  0.10075757053E+04  0.17185440828E+03 0.  0.
         24    2    5    5    0    0  0.11998194151E+03 -0.20103092810E+03  0.68893502070E+03  0.73192149621E+03  0.79173944672E+02 0.  0.
          5    1    5    5  501    0 -0.13308714082E+01 -0.14644807580E+03  0.23348306764E+03  0.27565420911E+03  0.47000000000E+01 0. -1.
        -11    1    6    6    0    0 -0.11864286594E+02 -0.15092755927E+02  0.52816224233E+02  0.56197029460E+02  0.00000000000E+00 0.  1.
         12    1    6    6    0    0  0.13184622810E+03 -0.18593817218E+03  0.63611879647E+03  0.67572446675E+03  0.00000000000E+00 0. -1.
         -5    1    3    3    0  503 -0.25923153039E+02  0.94470834080E+01  0.63384165564E+02  0.69288524971E+02  0.47000000000E+01 0.  1.
         11    1    4    4    0    0 -0.64345455753E+02  0.12670965236E+03  0.34526675847E+02  0.14624556411E+03  0.00000000000E+00 0. -1.
        -12    1    4    4    0    0 -0.28382461310E+02  0.21132226814E+03  0.12344569567E+03  0.24637675398E+03  0.00000000000E+00 0.  1.
</event>
<event>
12    1  0.1597826E-001  0.2757692E+03  0.7818608E-02  0.1098766E+00
         21   -1    0    0  503  502  0.00000000000E+00  0.00000000000E+00  0.62258874608E+03  0.62258874608E+03  0.00000000000E+00 0.  1.
         21   -1    0    0  501  503 -0.00000000000E+00 -0.00000000000E+00 -0.15614081292E+03  0.15614081292E+03  0.00000000000E+00 0. -1.
          6    2    1    2  501    0  0.88722667592E+02  0.19547146992E+03  0.43701422459E+02  0.27398878705E+03  0.16455769142E+03 0.  0.
         24    2    3    3    0    0  0.11160157067E+01  0.11436906946E+03  0.63236406745E+02  0.15292586776E+03  0.79410001587E+02 0.  0.
         -6    2    1    2    0  502 -0.88722667592E+02 -0.19547146992E+03  0.42274651070E+03  0.50474077195E+03  0.17311218113E+03 0.  0.
        -24    2    5    5    0    0  0.18340260942E+02 -0.10570409208E+03  0.24447055904E+03  0.27819042935E+03  0.78194248435E+02 0.  0.
          5    1    3    3  501    0  0.87606651886E+02  0.81102400463E+02 -0.19534984286E+02  0.12106291929E+03  0.47000000000E+01 0. -1.
        -13    1    4    4    0    0  0.20482590206E+02  0.11743208691E+03  0.58345067541E+02  0.13271766440E+03  0.00000000000E+00 0.  1.
         14    1    4    4    0    0 -0.19366574500E+02 -0.30630174515E+01  0.48913392040E+01  0.20208203358E+02  0.00000000000E+00 0. -1.
         -5    1    5    5    0  502 -0.10706292853E+03 -0.89767377848E+02  0.17827595166E+03  0.22655034260E+03  0.47000000000E+01 0.  1.
         11    1    6    6    0    0 -0.60745494239E+01  0.11512122491E+02  0.24847657791E+02  0.28050583107E+02  0.00000000000E+00 0. -1.
        -12    1    6    6    0    0  0.24414810366E+02 -0.11721621457E+03  0.21962290125E+03  0.25013984624E+03  0.00000000000E+00 0.  1.
</event>
<event>
12    1  0.1597826E-001  0.1955366E+03  0.7818608E-02  0.1153735E+00
         21   -1    0    0  503  502  0.00000000000E+00  0.00000000000E+00  0.61909114953E+02  0.61909114953E+02  0.00000000000E+00 0. -1.
         21   -1    0    0  501  503 -0.00000000000E+00 -0.00000000000E+00 -0.12759773269E+04  0.12759773269E+04  0.00000000000E+00 0. -1.
          6    2    1    2  501    0 -0.88877565543E+02 -0.17434419675E+02 -0.10878717501E+04  0.11051632035E+04  0.17238787948E+03 0.  0.
         24    2    3    3    0    0 -0.12473842525E+03 -0.19914581901E+02 -0.96526657030E+03  0.97731066115E+03  0.86257239437E+02 0.  0.
         -6    2    1    2    0  502  0.88877565543E+02  0.17434419675E+02 -0.12619646188E+03  0.23272323841E+03  0.17329563774E+03 0.  0.
        -24    2    5    5    0    0  0.93040763930E+02  0.69922028073E+02 -0.10487849454E+03  0.17572475609E+03  0.79586541082E+02 0.  0.
          5    1    3    3  501    0  0.35860859708E+02  0.24801622264E+01 -0.12260517982E+03  0.12785254234E+03  0.47000000000E+01 0. -1.
        -13    1    4    4    0    0 -0.41936548319E+01  0.74355328527E+01 -0.68205134581E+01  0.10926723822E+02  0.00000000000E+00 0.  1.
         14    1    4    4    0    0 -0.12054477042E+03 -0.27350114754E+02 -0.95844605684E+03  0.96638393733E+03  0.00000000000E+00 0. -1.
         -5    1    5    5    0  502 -0.41631983878E+01 -0.52487608399E+02 -0.21317967333E+02  0.56998482326E+02  0.47000000000E+01 0.  1.
         13    1    6    6    0    0  0.98655274693E+02  0.43855560418E+02 -0.59981982106E+02  0.12350713170E+03  0.00000000000E+00 0. -1.
        -14    1    6    6    0    0 -0.56145107627E+01  0.26066467655E+02 -0.44896512439E+02  0.52217624384E+02  0.00000000000E+00 0.  1.
</event>
<event>
12    1  0.1597826E-001  0.2092555E+03  0.7818608E-02  0.1142535E+00
         21   -1    0    0  503  502  0.00000000000E+00  0.00000000000E+00  0.96912773044E+02  0.96912773044E+02  0.00000000000E+00 0.  1.
         21   -1    0    0  501  503 -0.00000000000E+00 -0.00000000000E+00 -0.71138984828E+03  0.71138984828E+03  0.00000000000E+00 0. -1.
          6    2    1    2  501    0 -0.11443060333E+03 -0.29316932980E+02 -0.55239347801E+03  0.59003163043E+03  0.17042571644E+03 0.  0.
         24    2    3    3    0    0  0.16207701451E+01 -0.48889580313E+02 -0.25297976383E+03  0.26828379121E+03  0.74730273351E+02 0.  0.
         -6    2    1    2    0  502  0.11443060333E+03  0.29316932980E+02 -0.62083597231E+02  0.21827099090E+03  0.17272523523E+03 0.  0.
        -24    2    5    5    0    0  0.97843290825E+01  0.30715888141E+02 -0.72852211954E+02  0.11295787275E+03  0.80080193248E+02 0.  0.
          5    1    3    3  501    0 -0.11605137348E+03  0.19572647333E+02 -0.29941371417E+03  0.32174783922E+03  0.47000000000E+01 0. -1.
        -11    1    4    4    0    0  0.21783025860E+02  0.58435313936E+01 -0.28469470163E+02  0.36320212089E+02  0.00000000000E+00 0.  1.
         12    1    4    4    0    0 -0.20162255715E+02 -0.54733111707E+02 -0.22451029367E+03  0.23196357912E+03  0.00000000000E+00 0. -1.
         -5    1    5    5    0  502  0.10464627425E+03 -0.13989551610E+01  0.10768614723E+02  0.10531311814E+03  0.47000000000E+01 0.  1.
         13    1    6    6    0    0 -0.33826492494E+02  0.18532753067E+02 -0.47059615240E+02  0.60846544005E+02  0.00000000000E+00 0. -1.
        -14    1    6    6    0    0  0.43610821577E+02  0.12183135073E+02 -0.25792596714E+02  0.52111328750E+02  0.00000000000E+00 0.  1.
</event>
<event>
12    1  0.1597826E-001  0.1821244E+03  0.7818608E-02  0.1165882E+00
         21   -1    0    0  501  502  0.00000000000E+00  0.00000000000E+00  0.81700555088E+02  0.81700555088E+02  0.00000000000E+00 0. -1.
         21   -1    0    0  502  503 -0.00000000000E+00 -0.00000000000E+00 -0.43156992367E+03  0.43156992367E+03  0.00000000000E+00 0. -1.
         -6    2    1    2    0  503 -0.52709374870E+02 -0.23459711634E+02 -0.23898737309E+03  0.30047338310E+03  0.17274447367E+03 0.  0.
        -24    2    3    3    0    0 -0.53270176994E+02 -0.29388828250E+02 -0.25969175442E+03  0.27842275207E+03  0.79862422795E+02 0.  0.
          6    2    1    2  501    0  0.52709374870E+02  0.23459711634E+02 -0.11088199549E+03  0.21279709566E+03  0.17221832286E+03 0.  0.
         24    2    5    5    0    0  0.43317776282E+02  0.40069382899E+01 -0.14595922105E+03  0.17133489279E+03  0.78479717008E+02 0.  0.
          5    1    5    5  501    0  0.93915985879E+01  0.19452773344E+02  0.35077225551E+02  0.41462202874E+02  0.47000000000E+01 0. -1.
        -11    1    6    6    0    0  0.43284247044E+02  0.35635716015E+02 -0.74947377303E+02  0.93597754581E+02  0.00000000000E+00 0.  1.
         12    1    6    6    0    0  0.33529237365E-01 -0.31628777725E+02 -0.71011843743E+02  0.77737138206E+02  0.00000000000E+00 0. -1.
         -5    1    3    3    0  503  0.56080212450E+00  0.59291166161E+01  0.20704381325E+02  0.22050631032E+02  0.47000000000E+01 0.  1.
         11    1    4    4    0    0 -0.51855245074E+02 -0.16826031730E+02 -0.72026519120E+02  0.90332171689E+02  0.00000000000E+00 0. -1.
        -12    1    4    4    0    0 -0.14149319199E+01 -0.12562796521E+02 -0.18766523530E+03  0.18809058038E+03  0.00000000000E+00 0.  1.
</event>
<event>
12    1  0.1597826E-001  0.2285251E+03  0.7818608E-02  0.1127822E+00
         21   -1    0    0  501  502  0.00000000000E+00  0.00000000000E+00  0.32794246414E+03  0.32794246414E+03  0.00000000000E+00 0. -1.
         21   -1    0    0  502  503 -0.00000000000E+00 -0.00000000000E+00 -0.21439507604E+03  0.21439507604E+03  0.00000000000E+00 0.  1.
         -6    2    1    2    0  503  0.14256067308E+03  0.44342974168E+02 -0.81508385916E+02  0.24188707615E+03  0.17197643956E+03 0.  0.
        -24    2    3    3    0    0  0.14265693324E+03  0.53113012419E+02 -0.12654172213E+02  0.17231757434E+03  0.79757292223E+02 0.  0.
          6    2    1    2  501    0 -0.14256067308E+03 -0.44342974168E+02  0.19505577402E+03  0.30045046403E+03  0.17301410779E+03 0.  0.
         24    2    5    5    0    0 -0.99249696721E+02 -0.97639831928E+02  0.14526326282E+03  0.21549294587E+03  0.77147619009E+02 0.  0.
          5    1    5    5  501    0 -0.43310976358E+02  0.53296857760E+02  0.49792511205E+02  0.84957518162E+02  0.47000000000E+01 0. -1.
        -11    1    6    6    0    0 -0.13172233980E+02 -0.24180837562E+01  0.59805834187E+02  0.61286969903E+02  0.00000000000E+00 0.  1.
         12    1    6    6    0    0 -0.86077462741E+02 -0.95221748172E+02  0.85457428628E+02  0.15420597597E+03  0.00000000000E+00 0. -1.
         -5    1    3    3    0  503 -0.96260158013E-01 -0.87700382516E+01 -0.68854213703E+02  0.69569501807E+02  0.47000000000E+01 0.  1.
         11    1    4    4    0    0  0.15001126000E+02 -0.13070683996E+01  0.24410657965E+02  0.28681395213E+02  0.00000000000E+00 0. -1.
        -12    1    4    4    0    0  0.12765580724E+03  0.54420080819E+02 -0.37064830178E+02  0.14363617913E+03  0.00000000000E+00 0.  1.
</event>
<event>
12    1  0.1597826E-001  0.2365695E+03  0.7818608E-02  0.1122264E+00
         21   -1    0    0  501  502  0.00000000000E+00  0.00000000000E+00  0.52405910387E+03  0.52405910387E+03  0.00000000000E+00 0. -1.
         21   -1    0    0  502  503 -0.00000000000E+00 -0.00000000000E+00 -0.23995736999E+03  0.23995736999E+03  0.00000000000E+00 0. -1.
         -6    2    1    2    0  503 -0.11469689422E+02  0.16207858351E+03 -0.14312287432E+03  0.27566619075E+03  0.17060677172E+03 0.  0.
        -24    2    3    3    0    0 -0.11400155187E+02  0.15361927719E+03 -0.17267987346E+03  0.24456521171E+03  0.79151489047E+02 0.  0.
          6    2    1    2  501    0  0.11469689422E+02 -0.16207858351E+03  0.42722460819E+03  0.48835028312E+03  0.17194217681E+03 0.  0.
         24    2    5    5    0    0  0.30014118476E+02 -0.18296439800E+03  0.40621770583E+03  0.45308708640E+03  0.76800163328E+02 0.  0.
          5    1    5    5  501    0 -0.18544429054E+02  0.20885814490E+02  0.21006902358E+02  0.35263196714E+02  0.47000000000E+01 0. -1.
        -13    1    6    6    0    0 -0.21386129656E+02 -0.18185124061E+02  0.55827592170E+02  0.62488281511E+02  0.00000000000E+00 0.  1.
         14    1    6    6    0    0  0.51400248132E+02 -0.16477927394E+03  0.35039011366E+03  0.39059880489E+03  0.00000000000E+00 0. -1.
         -5    1    3    3    0  503 -0.69534235056E-01  0.84593063217E+01  0.29556999143E+02  0.31100979032E+02  0.47000000000E+01 0.  1.
         11    1    4    4    0    0 -0.79915674076E+01  0.89212970019E+02 -0.15272393567E+03  0.17705202539E+03  0.00000000000E+00 0. -1.
        -12    1    4    4    0    0 -0.34085877797E+01  0.64406307173E+02 -0.19955937796E+02  0.67513186324E+02  0.00000000000E+00 0.  1.
</event>
<event>
12    1  0.1597826E-001  0.1826807E+03  0.7818608E-02  0.1165525E+00
         21   -1    0    0  501  502  0.00000000000E+00  0.00000000000E+00  0.16381761701E+03  0.16381761701E+03  0.00000000000E+00 0. -1.
         21   -1    0    0  502  503 -0.00000000000E+00 -0.00000000000E+00 -0.22336956576E+03  0.22336956576E+03  0.00000000000E+00 0. -1.
         -6    2    1    2    0  503  0.54650052470E+02  0.14565854816E+02 -0.89065559838E+02  0.20213771798E+03  0.17241864957E+03 0.  0.
        -24    2    3    3    0    0  0.37864742338E+02  0.11367692363E+02  0.16002527003E+02  0.95585534749E+02  0.85542681982E+02 0.  0.
          6    2    1    2  501    0 -0.54650052470E+02 -0.14565854816E+02  0.29513611093E+02  0.18504946479E+03  0.17370509151E+03 0.  0.
         24    2    5    5    0    0  0.36576241048E+02 -0.37681395283E+01  0.33237524549E+02  0.92990870318E+02  0.78680039652E+02 0.  0.
          5    1    5    5  501    0 -0.91226293517E+02 -0.10797715288E+02 -0.37239134554E+01  0.92058594470E+02  0.47000000000E+01 0. -1.
        -11    1    6    6    0    0  0.41807808512E+02  0.30438377982E+02  0.14848308056E+02  0.53803902822E+02  0.00000000000E+00 0.  1.
         12    1    6    6    0    0 -0.52315674640E+01 -0.34206517510E+02  0.18389216493E+02  0.39186967496E+02  0.00000000000E+00 0. -1.
         -5    1    3    3    0  503  0.16785310131E+02  0.31981624534E+01 -0.10506808684E+03  0.10655218323E+03  0.47000000000E+01 0.  1.
         11    1    4    4    0    0  0.20463189892E+02  0.24962096609E+02 -0.30309922482E+02  0.44277983339E+02  0.00000000000E+00 0. -1.
        -12    1    4    4    0    0  0.17401552447E+02 -0.13594404247E+02  0.46312449485E+02  0.51307551410E+02  0.00000000000E+00 0.  1.
</event>
<event>
12    1  0.1597826E-001  0.1769649E+03  0.7818608E-02  0.1172687E+00
         21   -1    0    0  501  502  0.00000000000E+00  0.00000000000E+00  0.18411177830E+03  0.18411177830E+03  0.00000000000E+00 0. -1.
         21   -1    0    0  502  503 -0.00000000000E+00 -0.00000000000E+00 -0.26567280586E+03  0.26567280586E+03  0.00000000000E+00 0. -1.
         -6    2    1    2    0  503 -0.10755259332E+02 -0.37406364067E+02 -0.18117471645E+03  0.25326042662E+03  0.17263155602E+03 0.  0.
        -24    2    3    3    0    0  0.62426788280E+02 -0.21419606005E+01 -0.13262221568E+03  0.15850481689E+03  0.60277964419E+02 0.  0.
          6    2    1    2  501    0  0.10755259332E+02  0.37406364067E+02  0.99613688901E+02  0.19652415754E+03  0.16487554641E+03 0.  0.
         24    2    5    5    0    0 -0.41444178795E+01  0.81608919254E+02  0.91873065224E+02  0.14900707092E+03  0.84173957783E+02 0.  0.
          5    1    5    5  501    0  0.14899677211E+02 -0.44202555186E+02  0.77406236765E+01  0.47517086621E+02  0.47000000000E+01 0. -1.
        -11    1    6    6    0    0 -0.14063286517E+02  0.50459812961E+02  0.95611060869E+00  0.52391630049E+02  0.00000000000E+00 0.  1.
         12    1    6    6    0    0  0.99188686376E+01  0.31149106293E+02  0.90916954615E+02  0.96615440870E+02  0.00000000000E+00 0. -1.
         -5    1    3    3    0  503 -0.73182047612E+02 -0.35264403467E+02 -0.48552500771E+02  0.94755609732E+02  0.47000000000E+01 0.  1.
         11    1    4    4    0    0  0.77880034820E+01 -0.25852425563E+02 -0.47005554249E+02  0.54208145476E+02  0.00000000000E+00 0. -1.
        -12    1    4    4    0    0  0.54638784798E+02  0.23710464962E+02 -0.85616661435E+02  0.10429667142E+03  0.00000000000E+00 0.  1.
</event>
<event>
12    1  0.1597826E-001  0.2054267E+03  0.7818608E-02  0.1145898E+00
         21   -1    0    0  501  502  0.00000000000E+00  0.00000000000E+00  0.13101995361E+03  0.13101995361E+03  0.00000000000E+00 0.  1.
         21   -1    0    0  502  503 -0.00000000000E+00 -0.00000000000E+00 -0.47106267259E+03  0.47106267259E+03  0.00000000000E+00 0.  1.
         -6    2    1    2    0  503  0.51970785070E+02  0.99474535792E+02 -0.34303088928E+03  0.39983786276E+03  0.17205807080E+03 0.  0.
        -24    2    3    3    0    0 -0.25384429819E+02  0.33691391482E+02 -0.94057329081E+02  0.13091189707E+03  0.80694885237E+02 0.  0.
          6    2    1    2  501    0 -0.51970785070E+02 -0.99474535792E+02  0.29881702971E+01  0.20224476345E+03  0.16821970576E+03 0.  0.
         24    2    5    5    0    0 -0.52613607534E+02 -0.10071016094E+03 -0.51806356969E+02  0.14723139954E+03  0.77990115872E+02 0.  0.
          5    1    5    5  501    0  0.64282246436E+00  0.12356251440E+01  0.54794527266E+02  0.55013363908E+02  0.47000000000E+01 0. -1.
        -13    1    6    6    0    0 -0.70147609416E+02 -0.80422695395E+02 -0.25615143929E+02  0.10974804162E+03  0.00000000000E+00 0.  1.
         14    1    6    6    0    0  0.17534001882E+02 -0.20287465541E+02 -0.26191213040E+02  0.37483357915E+02  0.00000000000E+00 0. -1.
         -5    1    3    3    0  503  0.77355214889E+02  0.65783144310E+02 -0.24897356020E+03  0.26892596569E+03  0.47000000000E+01 0.  1.
         13    1    4    4    0    0  0.92245295282E+01  0.38181044919E+02 -0.10954381959E+02  0.40778457796E+02  0.00000000000E+00 0. -1.
        -14    1    4    4    0    0 -0.34608959348E+02 -0.44896534367E+01 -0.83102947122E+02  0.90133439275E+02  0.00000000000E+00 0.  1.
</event>
<event>
12    1  0.1597826E-001  0.1859466E+03  0.7818608E-02  0.1163321E+00
         21   -1    0    0  501  502  0.00000000000E+00  0.00000000000E+00  0.78564990679E+02  0.78564990679E+02  0.00000000000E+00 0.  1.
         21   -1    0    0  502  503 -0.00000000000E+00 -0.00000000000E+00 -0.63713462844E+03  0.63713462844E+03  0.00000000000E+00 0.  1.
         -6    2    1    2    0  503 -0.62917200496E+02  0.29601194681E+02 -0.48150107889E+03  0.51441448619E+03  0.16716509739E+03 0.  0.
        -24    2    3    3    0    0 -0.62672061780E+02 -0.39601576242E+02 -0.33522536707E+03  0.35252638451E+03  0.80017078683E+02 0.  0.
          6    2    1    2  501    0  0.62917200496E+02 -0.29601194681E+02 -0.77068558868E+02  0.20128513293E+03  0.17245676886E+03 0.  0.
         24    2    5    5    0    0  0.14958592959E+02 -0.70954834782E+02 -0.85206297240E+02  0.13726588291E+03  0.79520195175E+02 0.  0.
          5    1    5    5  501    0  0.47958607537E+02  0.41353640101E+02  0.81377383721E+01  0.64019250013E+02  0.47000000000E+01 0. -1.
        -13    1    6    6    0    0  0.27623329656E+02 -0.30407324498E+02  0.10741900507E+01  0.41095104437E+02  0.00000000000E+00 0.  1.
         14    1    6    6    0    0 -0.12664736697E+02 -0.40547510284E+02 -0.86280487291E+02  0.96170778477E+02  0.00000000000E+00 0. -1.
         -5    1    3    3    0  503 -0.24513871571E+00  0.69202770923E+02 -0.14627571182E+03  0.16188810168E+03  0.47000000000E+01 0.  1.
         11    1    4    4    0    0 -0.22063398347E+02 -0.13651640748E+02 -0.17801659383E+02  0.31465217599E+02  0.00000000000E+00 0. -1.
        -12    1    4    4    0    0 -0.40608663434E+02 -0.25949935493E+02 -0.31742370768E+03  0.32106116691E+03  0.00000000000E+00 0.  1.
</event>
<event>
12    1  0.1597826E-001  0.2269320E+03  0.7818608E-02  0.1129283E+00
         21   -1    0    0  503  502  0.00000000000E+00  0.00000000000E+00  0.61498056671E+02  0.61498056671E+02  0.00000000000E+00 0.  1.
         21   -1    0    0  501  503 -0.00000000000E+00 -0.00000000000E+00 -0.82791964345E+03  0.82791964345E+03  0.00000000000E+00 0. -1.
          6    2    1    2  501    0  0.19074963278E+02 -0.14262576340E+03 -0.37869406610E+03  0.44016192740E+03  0.17212601206E+03 0.  0.
         24    2    3    3    0    0 -0.49113665824E+02 -0.67946566098E+02 -0.24140864775E+03  0.26958629099E+03  0.85847219305E+02 0.  0.
         -6    2    1    2    0  502 -0.19074963278E+02  0.14262576340E+03 -0.38772752068E+03  0.44925577272E+03  0.17547693986E+03 0.  0.
        -24    2    5    5    0    0 -0.43043979615E+02  0.16551163100E+02 -0.21789288839E+03  0.23633510461E+03  0.79058495298E+02 0.  0.
          5    1    3    3  501    0  0.68188629101E+02 -0.74679197297E+02 -0.13728541834E+03  0.17057563641E+03  0.47000000000E+01 0. -1.
        -13    1    4    4    0    0  0.23547098332E+02 -0.29074504996E+02 -0.68761482778E+02  0.78281122849E+02  0.00000000000E+00 0.  1.
         14    1    4    4    0    0 -0.72660764156E+02 -0.38872061102E+02 -0.17264716498E+03  0.19130516814E+03  0.00000000000E+00 0. -1.
         -5    1    5    5    0  502  0.23969016337E+02  0.12607460030E+03 -0.16983463229E+03  0.21292066811E+03  0.47000000000E+01 0.  1.
         13    1    6    6    0    0 -0.18662400827E+02  0.45732866579E+02 -0.15659166383E+03  0.16419722735E+03  0.00000000000E+00 0. -1.
        -14    1    6    6    0    0 -0.24381578787E+02 -0.29181703480E+02 -0.61301224560E+02  0.72137877254E+02  0.00000000000E+00 0.  1.
</event>
<event>
12    1  0.1597826E-001  0.1763169E+03  0.7818608E-02  0.1171446E+00
         21   -1    0    0  503  502  0.00000000000E+00  0.00000000000E+00  0.15413040132E+03  0.15413040132E+03  0.00000000000E+00 0. -1.
         21   -1    0    0  501  503 -0.00000000000E+00 -0.00000000000E+00 -0.20238290103E+03  0.20238290103E+03  0.00000000000E+00 0. -1.
          6    2    1    2  501    0  0.32492754422E+02 -0.17486867105E+02 -0.12746581827E+02  0.17677704603E+03  0.17241252577E+03 0.  0.
         24    2    3    3    0    0  0.45478980741E+02 -0.59250944509E+02 -0.49496653953E+02  0.11945743301E+03  0.79000933121E+02 0.  0.
         -6    2    1    2    0  502 -0.32492754422E+02  0.17486867105E+02 -0.35505917881E+02  0.17973625633E+03  0.17228720795E+03 0.  0.
        -24    2    5    5    0    0 -0.41463864331E+02  0.40481236782E+01 -0.87225164952E+02  0.12534828748E+03  0.79801782074E+02 0.  0.
          5    1    3    3  501    0 -0.12986226319E+02  0.41764077404E+02  0.36750072126E+02  0.57319613020E+02  0.47000000000E+01 0. -1.
        -11    1    4    4    0    0  0.19330175044E+02 -0.10978576455E+02 -0.59622245817E+02  0.63631729542E+02  0.00000000000E+00 0.  1.
         12    1    4    4    0    0  0.26148805697E+02 -0.48272368054E+02  0.10125591864E+02  0.55825703467E+02  0.00000000000E+00 0. -1.
         -5    1    5    5    0  502  0.89711099089E+01  0.13438743427E+02  0.51719247070E+02  0.54387968848E+02  0.47000000000E+01 0.  1.
         11    1    6    6    0    0  0.19875380216E+02  0.18325796738E+02 -0.26989481646E+02  0.38200755023E+02  0.00000000000E+00 0. -1.
        -12    1    6    6    0    0 -0.61339244547E+02 -0.14277673060E+02 -0.60235683306E+02  0.87147532455E+02  0.00000000000E+00 0.  1.
</event>
<event>
12    1  0.1597826E-001  0.1952832E+03  0.7818608E-02  0.1154006E+00
         21   -1    0    0  503  502  0.00000000000E+00  0.00000000000E+00  0.49171634557E+03  0.49171634557E+03  0.00000000000E+00 0. -1.
         21   -1    0    0  501  503 -0.00000000000E+00 -0.00000000000E+00 -0.93261858326E+02  0.93261858326E+02  0.00000000000E+00 0. -1.
          6    2    1    2  501    0 -0.63892837334E+02 -0.59562343092E+02  0.77207515659E+02  0.20903251919E+03  0.17350396602E+03 0.  0.
         24    2    3    3    0    0  0.15556325281E+02  0.99516717750E+01  0.69121215937E+01  0.82115616727E+02  0.79712998050E+02 0.  0.
         -6    2    1    2    0  502  0.63892837334E+02  0.59562343092E+02  0.32124697158E+03  0.37594568471E+03  0.17465844876E+03 0.  0.
        -24    2    5    5    0    0  0.12085221427E+02  0.49552057833E+02  0.70860137457E+02  0.12001621868E+03  0.82348495152E+02 0.  0.
          5    1    3    3  501    0 -0.79449162615E+02 -0.69514014867E+02  0.70295394066E+02  0.12691690246E+03  0.47000000000E+01 0. -1.
        -11    1    4    4    0    0  0.33000541641E+02  0.43467044164E+01  0.35178710106E+02  0.48430065379E+02  0.00000000000E+00 0.  1.
         12    1    4    4    0    0 -0.17444216360E+02  0.56049673585E+01 -0.28266588512E+02  0.33685551348E+02  0.00000000000E+00 0. -1.
         -5    1    5    5    0  502  0.51807615906E+02  0.10010285259E+02  0.25038683413E+03  0.25592946603E+03  0.47000000000E+01 0.  1.
         13    1    6    6    0    0  0.54828195848E+01  0.45261898214E+02  0.89134228765E+02  0.10011798778E+03  0.00000000000E+00 0. -1.
        -14    1    6    6    0    0  0.66024018426E+01  0.42901596194E+01 -0.18274091309E+02  0.19898230896E+02  0.00000000000E+00 0.  1.
</event>
<event>
12    1  0.1597826E-001  0.1765321E+03  0.7818608E-02  0.1171616E+00
         21   -1    0    0  501  502  0.00000000000E+00  0.00000000000E+00  0.78233383405E+02  0.78233383405E+02  0.00000000000E+00 0.  1.
         21   -1    0    0  502  503 -0.00000000000E+00 -0.00000000000E+00 -0.65141968503E+03  0.65141968503E+03  0.00000000000E+00 0.  1.
         -6    2    1    2    0  503 -0.21668467754E+02 -0.16365007114E+02 -0.51647930925E+03  0.54581539536E+03  0.17443116973E+03 0.  0.
        -24    2    3    3    0    0 -0.29144900967E+02 -0.23629718222E+02 -0.12069562861E+03  0.14986655404E+03  0.80528010145E+02 0.  0.
          6    2    1    2  501    0  0.21668467754E+02  0.16365007114E+02 -0.56706992368E+02  0.18383767307E+03  0.17275205094E+03 0.  0.
         24    2    5    5    0    0  0.53463372646E+02 -0.27731516829E+02  0.57660449757E+01  0.10088955799E+03  0.80734666629E+02 0.  0.
          5    1    5    5  501    0 -0.31794904892E+02  0.44096523943E+02 -0.62473037344E+02  0.82948115084E+02  0.47000000000E+01 0. -1.
        -13    1    6    6    0    0  0.19359972299E+02 -0.53590440541E+00 -0.35757880450E+02  0.40665977613E+02  0.00000000000E+00 0.  1.
         14    1    6    6    0    0  0.34103400347E+02 -0.27195612424E+02  0.41523925425E+02  0.60223580374E+02  0.00000000000E+00 0. -1.
         -5    1    3    3    0  503  0.74764332132E+01  0.72647111074E+01 -0.39578368065E+03  0.39594884133E+03  0.47000000000E+01 0.  1.
         11    1    4    4    0    0  0.22182130668E+02 -0.13453710954E+02 -0.78409736356E+02  0.82590168996E+02  0.00000000000E+00 0. -1.
        -12    1    4    4    0    0 -0.51327031635E+02 -0.10176007268E+02 -0.42285892251E+02  0.67276385039E+02  0.00000000000E+00 0.  1.
</event>
<event>
12    1  0.1597826E-001  0.1847374E+03  0.7818608E-02  0.1164555E+00
         21   -1    0    0  503  502  0.00000000000E+00  0.00000000000E+00  0.10853434544E+03  0.10853434544E+03  0.00000000000E+00 0. -1.
         21   -1    0    0  501  503 -0.00000000000E+00 -0.00000000000E+00 -0.32079696911E+03  0.32079696911E+03  0.00000000000E+00 0. -1.
          6    2    1    2  501    0  0.50846064171E+02 -0.34059126347E+01 -0.15155203767E+03  0.23487394391E+03  0.17204890852E+03 0.  0.
         24    2    3    3    0    0 -0.23589142278E+02 -0.44207770415E+02 -0.81121937113E+02  0.12447520922E+03  0.80015838621E+02 0.  0.
         -6    2    1    2    0  502 -0.50846064171E+02  0.34059126347E+01 -0.60710585999E+02  0.19445737064E+03  0.17756962370E+03 0.  0.
        -24    2    5    5    0    0  0.22058488807E+02  0.50435233194E+02 -0.36984114384E+02  0.10439147092E+03  0.80619258294E+02 0.  0.
          5    1    3    3  501    0  0.74435206448E+02  0.40801857780E+02 -0.70430100555E+02  0.11039873469E+03  0.47000000000E+01 0. -1.
        -11    1    4    4    0    0 -0.24319621441E+02  0.16691607135E+02 -0.10717109234E+02  0.31383278448E+02  0.00000000000E+00 0.  1.
         12    1    4    4    0    0  0.73047916268E+00 -0.60899377550E+02 -0.70404827879E+02  0.93091930770E+02  0.00000000000E+00 0. -1.
         -5    1    5    5    0  502 -0.72904552978E+02 -0.47029320559E+02 -0.23726471615E+02  0.90065899720E+02  0.47000000000E+01 0.  1.
         11    1    6    6    0    0 -0.10877185536E+02  0.60155098419E+02 -0.12979559758E+02  0.62493343666E+02  0.00000000000E+00 0. -1.
        -12    1    6    6    0    0  0.32935674344E+02 -0.97198652251E+01 -0.24004554626E+02  0.41898127252E+02  0.00000000000E+00 0.  1.
</event>
<event>
12    1  0.1597826E-001  0.2384091E+03  0.7818608E-02  0.1122078E+00
         21   -1    0    0  501  502  0.00000000000E+00  0.00000000000E+00  0.77507758513E+03  0.77507758513E+03  0.00000000000E+00 0. -1.
         21   -1    0    0  502  503 -0.00000000000E+00 -0.00000000000E+00 -0.94824777370E+02  0.94824777370E+02  0.00000000000E+00 0. -1.
         -6    2    1    2    0  503  0.16252369962E+03  0.12460657466E+02  0.11893338738E+03  0.26005122611E+03  0.16404959203E+03 0.  0.
        -24    2    3    3    0    0  0.10406802448E+03 -0.51029739291E+02  0.97998687018E+02  0.17112177028E+03  0.79023601495E+02 0.  0.
          6    2    1    2  501    0 -0.16252369962E+03 -0.12460657466E+02  0.56131942038E+03  0.60985113638E+03  0.17398188390E+03 0.  0.
         24    2    5    5    0    0 -0.12089509612E+03  0.26749983897E+02  0.51650786310E+03  0.53704604939E+03  0.79415997253E+02 0.  0.
          5    1    5    5  501    0 -0.41628603502E+02 -0.39210641363E+02  0.44811557281E+02  0.72805086989E+02  0.47000000000E+01 0. -1.
        -13    1    6    6    0    0 -0.15542961609E+02  0.36274817737E+02  0.18121044612E+03  0.18545800560E+03  0.00000000000E+00 0.  1.
         14    1    6    6    0    0 -0.10535213451E+03 -0.95248338395E+01  0.33529741698E+03  0.35158804379E+03  0.00000000000E+00 0. -1.
         -5    1    3    3    0  503  0.58455675140E+02  0.63490396757E+02  0.20934700358E+02  0.88929455838E+02  0.47000000000E+01 0.  1.
         11    1    4    4    0    0  0.10399129250E+03 -0.18025903426E+02  0.85507257968E+02  0.13583303455E+03  0.00000000000E+00 0. -1.
        -12    1    4    4    0    0  0.76731987868E-01 -0.33003835865E+02  0.12491429050E+02  0.35288735728E+02  0.00000000000E+00 0.  1.
</event>
<event>
12    1  0.1597826E-001  0.1775029E+03  0.7818608E-02  0.1170879E+00
         21   -1    0    0  503  502  0.00000000000E+00  0.00000000000E+00  0.11098088017E+04  0.11098088017E+04  0.00000000000E+00 0.  1.
         21   -1    0    0  501  503 -0.00000000000E+00 -0.00000000000E+00 -0.48068277279E+02  0.48068277279E+02  0.00000000000E+00 0.  1.
          6    2    1    2  501    0  0.19203705834E+02 -0.20019057922E+02  0.15887411885E+03  0.23821893702E+03  0.17532179362E+03 0.  0.
         24    2    3    3    0    0  0.67300471207E+02  0.23844582956E+02  0.66587035859E+02  0.12518658096E+03  0.78357699982E+02 0.  0.
         -6    2    1    2    0  502 -0.19203705834E+02  0.20019057922E+02  0.90286640554E+03  0.91965814193E+03  0.17272465591E+03 0.  0.
        -24    2    5    5    0    0 -0.26897819786E+02  0.53168874690E+02  0.85537348244E+03  0.86104263642E+03  0.78614281945E+02 0.  0.
          5    1    3    3  501    0 -0.48096765373E+02 -0.43863640878E+02  0.92287082993E+02  0.11303235607E+03  0.47000000000E+01 0. -1.
        -11    1    4    4    0    0  0.49107960871E+01  0.36192210712E+02  0.53788504961E+01  0.36917801493E+02  0.00000000000E+00 0.  1.
         12    1    4    4    0    0  0.62389675120E+02 -0.12347627756E+02  0.61208185363E+02  0.88268779465E+02  0.00000000000E+00 0. -1.
         -5    1    5    5    0  502  0.76941139523E+01 -0.33149816768E+02  0.47492923101E+02  0.58615505508E+02  0.47000000000E+01 0.  1.
         13    1    6    6    0    0 -0.27800306099E+02  0.19333275145E+02  0.11464549422E+03  0.11954171611E+03  0.00000000000E+00 0. -1.
        -14    1    6    6    0    0  0.90248631323E+00  0.33835599545E+02  0.74072798823E+03  0.74150092031E+03  0.00000000000E+00 0.  1.
</event>
<event>
12    1  0.1597826E-001  0.2603193E+03  0.7818608E-02  0.1107802E+00
         21   -1    0    0  501  502  0.00000000000E+00  0.00000000000E+00  0.10600192269E+04  0.10600192269E+04  0.00000000000E+00 0. -1.
         21   -1    0    0  502  503 -0.00000000000E+00 -0.00000000000E+00 -0.95000022141E+02  0.95000022141E+02  0.00000000000E+00 0. -1.
         -6    2    1    2    0  503 -0.15854737362E+03 -0.10121379546E+03  0.14159791016E+03  0.29142861719E+03  0.17175322029E+03 0.  0.
        -24    2    3    3    0    0 -0.14300381010E+03 -0.13283907037E+03  0.90740264256E+02  0.22937742440E+03  0.79271047336E+02 0.  0.
          6    2    1    2  501    0  0.15854737362E+03  0.10121379546E+03  0.82342129464E+03  0.86359063190E+03  0.17995735316E+03 0.  0.
         24    2    5    5    0    0  0.11942925399E+02  0.63514244726E+02  0.42529957604E+03  0.43763627614E+03  0.80430641334E+02 0.  0.
          5    1    5    5  501    0  0.14660444822E+03  0.37699550733E+02  0.39812171860E+03  0.42595435575E+03  0.47000000000E+01 0. -1.
        -11    1    6    6    0    0 -0.21861692976E+02 -0.59487477914E+01  0.15006897864E+03  0.15176962664E+03  0.00000000000E+00 0.  1.
         12    1    6    6    0    0  0.33804618375E+02  0.69462992518E+02  0.27523059740E+03  0.28586664950E+03  0.00000000000E+00 0. -1.
         -5    1    3    3    0  503 -0.15543563518E+02  0.31625274908E+02  0.50857645906E+02  0.62051192793E+02  0.47000000000E+01 0.  1.
         13    1    4    4    0    0 -0.48484634304E+02 -0.62906318132E+02 -0.22767879063E+01  0.79455323218E+02  0.00000000000E+00 0. -1.
        -14    1    4    4    0    0 -0.94519175798E+02 -0.69932752235E+02  0.93017052162E+02  0.14992210118E+03  0.00000000000E+00 0.  1.
</event>
<event>
12    1  0.1597826E-001  0.2160328E+03  0.7818608E-02  0.1137088E+00
         21   -1    0    0  501  502  0.00000000000E+00  0.00000000000E+00  0.51164372164E+02  0.51164372164E+02  0.00000000000E+00 0.  1.
         21   -1    0    0  502  503 -0.00000000000E+00 -0.00000000000E+00 -0.10672102320E+04  0.10672102320E+04  0.00000000000E+00 0. -1.
         -6    2    1    2    0  503 -0.12167270444E+03  0.41350808850E+02 -0.29058040314E+03  0.36142660168E+03  0.17227327512E+03 0.  0.
        -24    2    3    3    0    0 -0.12610154813E+03  0.74447536614E+02 -0.27726646296E+03  0.32517251160E+03  0.86118724245E+02 0.  0.
          6    2    1    2  501    0  0.12167270444E+03 -0.41350808850E+02 -0.72546545668E+03  0.75694800246E+03  0.17365486805E+03 0.  0.
         24    2    5    5    0    0  0.12593839054E+03 -0.50827855298E+02 -0.39054255697E+03  0.42183093450E+03  0.83509876134E+02 0.  0.
          5    1    5    5  501    0 -0.42656861049E+01  0.94770464480E+01 -0.33492289971E+03  0.33511706796E+03  0.47000000000E+01 0. -1.
        -13    1    6    6    0    0  0.43181899166E+02 -0.40517401962E+02 -0.75576812549E+02  0.96011410115E+02  0.00000000000E+00 0.  1.
         14    1    6    6    0    0  0.82756491378E+02 -0.10310453336E+02 -0.31496574442E+03  0.32581952439E+03  0.00000000000E+00 0. -1.
         -5    1    3    3    0  503  0.44288436881E+01 -0.33096727764E+02 -0.13313940174E+02  0.36254090088E+02  0.47000000000E+01 0.  1.
         11    1    4    4    0    0 -0.57144961918E+01  0.31884731534E+01 -0.95889256037E+02  0.96112284601E+02  0.00000000000E+00 0. -1.
        -12    1    4    4    0    0 -0.12038705194E+03  0.71259063461E+02 -0.18137720693E+03  0.22906022700E+03  0.00000000000E+00 0.  1.
</event>
<event>
12    1  0.1597826E-001  0.2390077E+03  0.7818608E-02  0.1121357E+00
         21   -1    0    0  501  502  0.00000000000E+00  0.00000000000E+00  0.31530172503E+03  0.31530172503E+03  0.00000000000E+00 0.  1.
         21   -1    0    0  502  503 -0.00000000000E+00 -0.00000000000E+00 -0.17785502467E+03  0.17785502467E+03  0.00000000000E+00 0. -1.
         -6    2    1    2    0  503  0.15904350847E+03  0.39438352000E+02  0.52618058784E+02  0.23954170937E+03  0.16661737372E+03 0.  0.
        -24    2    3    3    0    0  0.37965706930E+02 -0.11358675920E+02  0.60467104993E+02  0.10792153767E+03  0.80127230616E+02 0.  0.
          6    2    1    2  501    0 -0.15904350847E+03 -0.39438352000E+02  0.84828641579E+02  0.25361504033E+03  0.17399560067E+03 0.  0.
         24    2    5    5    0    0 -0.12439148083E+02  0.45527042623E+01  0.48313032661E+02  0.96187179988E+02  0.82111905032E+02 0.  0.
          5    1    5    5  501    0 -0.14660436039E+03 -0.43991056262E+02  0.36515608918E+02  0.15742786034E+03  0.47000000000E+01 0. -1.
        -13    1    6    6    0    0 -0.36523589192E+02 -0.23425343142E+02  0.13492367250E+02  0.45439665963E+02  0.00000000000E+00 0.  1.
         14    1    6    6    0    0  0.24084441109E+02  0.27978047404E+02  0.34820665411E+02  0.50747514025E+02  0.00000000000E+00 0. -1.
         -5    1    3    3    0  503  0.12107780154E+03  0.50797027920E+02 -0.78490462096E+01  0.13162017170E+03  0.47000000000E+01 0.  1.
         13    1    4    4    0    0  0.83127631900E+01 -0.14740331232E+02 -0.17556498752E+02  0.24384627230E+02  0.00000000000E+00 0. -1.
        -14    1    4    4    0    0  0.29652943740E+02  0.33816553118E+01  0.78023603746E+02  0.83536910444E+02  0.00000000000E+00 0.  1.
</event>
<event>
12    1  0.1597826E-001  0.2380790E+03  0.7818608E-02  0.1121096E+00
         21   -1    0    0  503  502  0.00000000000E+00  0.00000000000E+00  0.23774080791E+04  0.23774080791E+04  0.00000000000E+00 0. -1.
         21   -1    0    0  501  503 -0.00000000000E+00 -0.00000000000E+00 -0.73007341940E+02  0.73007341940E+02  0.00000000000E+00 0. -1.
          6    2    1    2  501    0 -0.16487011553E+03 -0.45568575456E+01  0.14657643686E+03  0.27949688039E+03  0.17155446470E+03 0.  0.
         24    2    3    3    0    0 -0.19056725401E+03 -0.20150438806E+02  0.12341437750E+03  0.24125980811E+03  0.79077607126E+02 0.  0.
         -6    2    1    2    0  502  0.16487011553E+03  0.45568575456E+01  0.21578243003E+04  0.21709185407E+04  0.17169356206E+03 0.  0.
        -24    2    5    5    0    0  0.11460650042E+03 -0.59681254009E+02  0.15958676873E+04  0.16030538641E+04  0.79319063510E+02 0.  0.
          5    1    3    3  501    0  0.25697138482E+02  0.15593581260E+02  0.23162059358E+02  0.38237072278E+02  0.47000000000E+01 0. -1.
        -11    1    4    4    0    0 -0.45043622925E+02 -0.14114258515E+01  0.73614881351E+02  0.86313792904E+02  0.00000000000E+00 0.  1.
         12    1    4    4    0    0 -0.14552363108E+03 -0.18739012954E+02  0.49799496153E+02  0.15494601520E+03  0.00000000000E+00 0. -1.
         -5    1    5    5    0  502  0.50263615110E+02  0.64238111555E+02  0.56195661307E+03  0.56786467662E+03  0.47000000000E+01 0.  1.
         13    1    6    6    0    0  0.63745663684E+02 -0.52239815421E+02  0.13108350245E+04  0.13134233778E+04  0.00000000000E+00 0. -1.
        -14    1    6    6    0    0  0.50860836733E+02 -0.74414385883E+01  0.28503266277E+03  0.28963048625E+03  0.00000000000E+00 0.  1.
</event>
<event>
12    1  0.1597826E-001  0.2147537E+03  0.7818608E-02  0.1138149E+00
         21   -1    0    0  503  502  0.00000000000E+00  0.00000000000E+00  0.12425660083E+04  0.12425660083E+04  0.00000000000E+00 0. -1.
         21   -1    0    0  501  503 -0.00000000000E+00 -0.00000000000E+00 -0.56293881004E+02  0.56293881004E+02  0.00000000000E+00 0. -1.
          6    2    1    2  501    0 -0.10557076279E+03  0.71638528045E+02  0.21288291439E+03  0.30238763646E+03  0.17274803267E+03 0.  0.
         24    2    3    3    0    0 -0.91295965794E+02  0.48614523111E+02  0.54393472096E+02  0.14153096750E+03  0.79837583419E+02 0.  0.
         -6    2    1    2    0  502  0.10557076279E+03 -0.71638528045E+02  0.97338921293E+03  0.99647225287E+03  0.17085996087E+03 0.  0.
        -24    2    5    5    0    0  0.38487254672E+02 -0.99135606354E+02  0.49461853224E+03  0.51222051971E+03  0.80082652037E+02 0.  0.
          5    1    3    3  501    0 -0.14274796992E+02  0.23024004934E+02  0.15848944230E+03  0.16085666897E+03  0.47000000000E+01 0. -1.
        -13    1    4    4    0    0  0.14099703434E+02  0.50612757528E+01  0.14126398902E+02  0.20590611820E+02  0.00000000000E+00 0.  1.
         14    1    4    4    0    0 -0.10539566923E+03  0.43553247358E+02  0.40267073194E+02  0.12094035568E+03  0.00000000000E+00 0. -1.
         -5    1    5    5    0  502  0.67083508113E+02  0.27497078310E+02  0.47877068069E+03  0.48425173316E+03  0.47000000000E+01 0.  1.
         13    1    6    6    0    0 -0.22865881170E+02 -0.45724422228E+02  0.21620381087E+03  0.22216583703E+03  0.00000000000E+00 0. -1.
        -14    1    6    6    0    0  0.61353135842E+02 -0.53411184127E+02  0.27841472137E+03  0.29005468267E+03  0.00000000000E+00 0.  1.
</event>
<event>
12    1  0.1597826E-001  0.1933347E+03  0.7818608E-02  0.1155769E+00
         21   -1    0    0  501  502  0.00000000000E+00  0.00000000000E+00  0.13290859932E+03  0.13290859932E+03  0.00000000000E+00 0.  1.
         21   -1    0    0  502  503 -0.00000000000E+00 -0.00000000000E+00 -0.31716876816E+03  0.31716876816E+03  0.00000000000E+00 0.  1.
         -6    2    1    2    0  503  0.27234174537E+02  0.83640659509E+02 -0.16953177099E+03  0.25618250585E+03  0.17073662391E+03 0.  0.
        -24    2    3    3    0    0 -0.30006138491E+02 -0.40527698522E+01 -0.58237132836E+02  0.10329307695E+03  0.79756522082E+02 0.  0.
          6    2    1    2  501    0 -0.27234174537E+02 -0.83640659509E+02 -0.14728397847E+02  0.19389486163E+03  0.17216512852E+03 0.  0.
         24    2    5    5    0    0  0.16486429429E+02 -0.11412685313E+03 -0.10852271464E+02  0.14024774085E+03  0.79088027258E+02 0.  0.
          5    1    5    5  501    0 -0.43720603966E+02  0.30486193621E+02 -0.38761263831E+01  0.53647120784E+02  0.47000000000E+01 0. -1.
        -11    1    6    6    0    0  0.51098884632E+01 -0.29201442898E+02  0.32693957846E+02  0.44133095371E+02  0.00000000000E+00 0.  1.
         12    1    6    6    0    0  0.11376540966E+02 -0.84925410233E+02 -0.43546229310E+02  0.96114645475E+02  0.00000000000E+00 0. -1.
         -5    1    3    3    0  503  0.57240313028E+02  0.87693429362E+02 -0.11129463815E+03  0.15288942890E+03  0.47000000000E+01 0.  1.
         13    1    4    4    0    0 -0.34274992193E+02  0.30505858113E+02 -0.49288216235E+02  0.67340260830E+02  0.00000000000E+00 0. -1.
        -14    1    4    4    0    0  0.42688537019E+01 -0.34558627965E+02 -0.89489166003E+01  0.35952816121E+02  0.00000000000E+00 0.  1.
</event>
<event>
12    1  0.1597826E-001  0.1771822E+03  0.7818608E-02  0.1170887E+00
         21   -1    0    0  501  502  0.00000000000E+00  0.00000000000E+00  0.91728181104E+03  0.91728181104E+03  0.00000000000E+00 0. -1.
         21   -1    0    0  502  503 -0.00000000000E+00 -0.00000000000E+00 -0.36045490228E+02  0.36045490228E+02  0.00000000000E+00 0. -1.
         -6    2    1    2    0  503  0.32724102751E+02 -0.25986768152E+02  0.32466366774E+03  0.36923256761E+03  0.17082158181E+03 0.  0.
        -24    2    3    3    0    0  0.45582163104E+02 -0.37938647814E+02  0.93738135127E+02  0.13759304431E+03  0.81412119940E+02 0.  0.
          6    2    1    2  501    0 -0.32724102751E+02  0.25986768152E+02  0.55657265308E+03  0.58409473366E+03  0.17218408963E+03 0.  0.
         24    2    5    5    0    0 -0.59490591984E+02 -0.97615886619E+01  0.50881002504E+03  0.51853751745E+03  0.79743941925E+02 0.  0.
          5    1    5    5  501    0  0.26766489233E+02  0.35748356814E+02  0.47762628038E+02  0.65557216215E+02  0.47000000000E+01 0. -1.
        -13    1    6    6    0    0  0.19141108141E+02  0.42608105728E+01  0.12215730145E+03  0.12372123029E+03  0.00000000000E+00 0.  1.
         14    1    6    6    0    0 -0.78631700124E+02 -0.14022399235E+02  0.38665272359E+03  0.39481628716E+03  0.00000000000E+00 0. -1.
         -5    1    3    3    0  503 -0.12858060353E+02  0.11951879662E+02  0.23092553261E+03  0.23163952330E+03  0.47000000000E+01 0.  1.
         13    1    4    4    0    0  0.58961529268E+02 -0.51789428672E+02  0.87062521494E+02  0.11721130280E+03  0.00000000000E+00 0. -1.
        -14    1    4    4    0    0 -0.13379366164E+02  0.13850780858E+02  0.66756136335E+01  0.20381741504E+02  0.00000000000E+00 0.  1.
</event>
<event>
12    1  0.1597826E-001  0.3191152E+03  0.7818608E-02  0.1076318E+00
         21   -1    0    0  503  502  0.00000000000E+00  0.00000000000E+00  0.59923280525E+02  0.59923280525E+02  0.00000000000E+00 0.  1.
         21   -1    0    0  501  503 -0.00000000000E+00 -0.00000000000E+00 -0.18928191128E+04  0.18928191128E+04  0.00000000000E+00 0. -1.
          6    2    1    2  501    0  0.23325494778E+03  0.13242607373E+03 -0.12409461467E+04  0.12813203484E+04  0.17288713261E+03 0.  0.
         24    2    3    3    0    0  0.20013573447E+03  0.84731495827E+02 -0.11519529365E+04  0.11749552390E+04  0.79312716682E+02 0.  0.
         -6    2    1    2    0  502 -0.23325494778E+03 -0.13242607373E+03 -0.59194968556E+03  0.67142204488E+03  0.16869675886E+03 0.  0.
        -24    2    5    5    0    0 -0.13324570318E+03 -0.53353486772E+02 -0.45960200493E+03  0.48759516550E+03  0.76902734156E+02 0.  0.
          5    1    3    3  501    0  0.33119213316E+02  0.47694577899E+02 -0.88993210156E+02  0.10636510944E+03  0.47000000000E+01 0. -1.
        -13    1    4    4    0    0  0.51107651319E+02 -0.11895625537E+02 -0.21449794578E+03  0.22082315701E+03  0.00000000000E+00 0.  1.
         14    1    4    4    0    0  0.14902808315E+03  0.96627121364E+02 -0.93745499077E+03  0.95413208198E+03  0.00000000000E+00 0. -1.
         -5    1    5    5    0  502 -0.10000924460E+03 -0.79072586954E+02 -0.13234768063E+03  0.18382687938E+03  0.47000000000E+01 0.  1.
         13    1    6    6    0    0 -0.11009466169E+03 -0.62621810721E+02 -0.29394730234E+03  0.32007396374E+03  0.00000000000E+00 0. -1.
        -14    1    6    6    0    0 -0.23151041490E+02  0.92683239486E+01 -0.16565470258E+03  0.16752120176E+03  0.00000000000E+00 0.  1.
</event>
<event>
12    1  0.1597826E-001  0.1886368E+03  0.7818608E-02  0.1159873E+00
         21   -1    0    0  503  502  0.00000000000E+00  0.00000000000E+00  0.20591812868E+03  0.20591812868E+03  0.00000000000E+00 0. -1.
         21   -1    0    0  501  503 -0.00000000000E+00 -0.00000000000E+00 -0.46966899610E+03  0.46966899610E+03  0.00000000000E+00 0. -1.
          6    2    1    2  501    0 -0.69245103325E+02 -0.27814403020E+02 -0.40065151171E+03  0.44250850420E+03  0.17240538594E+03 0.  0.
         24    2    3    3    0    0 -0.54085732149E+02 -0.34184778152E+02 -0.10862932575E+03  0.14998596608E+03  0.81250194636E+02 0.  0.
         -6    2    1    2    0  502  0.69245103325E+02  0.27814403020E+02  0.13690064430E+03  0.23307862058E+03  0.17324933366E+03 0.  0.
        -24    2    5    5    0    0  0.73030977250E+02  0.48996851995E+02  0.16163387617E+03  0.19995986842E+03  0.78257420786E+02 0.  0.
          5    1    3    3  501    0 -0.15159371176E+02  0.63703751319E+01 -0.29202218596E+03  0.29252253812E+03  0.47000000000E+01 0. -1.
        -11    1    4    4    0    0 -0.56258774157E+02 -0.57238521107E+02 -0.83673909855E+02  0.11594231824E+03  0.00000000000E+00 0.  1.
         12    1    4    4    0    0  0.21730420076E+01  0.23053742955E+02 -0.24955415892E+02  0.34043647838E+02  0.00000000000E+00 0. -1.
         -5    1    5    5    0  502 -0.37858739246E+01 -0.21182448975E+02 -0.24733231876E+02  0.33118752165E+02  0.47000000000E+01 0.  1.
         11    1    6    6    0    0  0.66497432939E+02  0.21847963354E+02  0.53005724531E+02  0.87800050816E+02  0.00000000000E+00 0. -1.
        -12    1    6    6    0    0  0.65335443104E+01  0.27148888641E+02  0.10862815164E+03  0.11215981760E+03  0.00000000000E+00 0.  1.
</event>
<event>
12    1  0.1597826E-001  0.3479120E+03  0.7818608E-02  0.1063670E+00
         21   -1    0    0  501  502  0.00000000000E+00  0.00000000000E+00  0.11003881273E+04  0.11003881273E+04  0.00000000000E+00 0. -1.
         21   -1    0    0  502  503 -0.00000000000E+00 -0.00000000000E+00 -0.13413312901E+03  0.13413312901E+03  0.00000000000E+00 0.  1.
         -6    2    1    2    0  503 -0.28470191838E+03 -0.92278662905E+02  0.21705252750E+03  0.40847823619E+03  0.17370128322E+03 0.  0.
        -24    2    3    3    0    0 -0.27296589831E+03 -0.34279014682E+02  0.18695927940E+03  0.34192459661E+03  0.79203693874E+02 0.  0.
          6    2    1    2  501    0  0.28470191838E+03  0.92278662905E+02  0.74920247079E+03  0.82604302012E+03  0.17740404420E+03 0.  0.
         24    2    5    5    0    0  0.10292772900E+03  0.65951386542E+02  0.21427958880E+03  0.26044637844E+03  0.83503718975E+02 0.  0.
          5    1    5    5  501    0  0.18177418938E+03  0.26327276363E+02  0.53492288199E+03  0.56559664168E+03  0.47000000000E+01 0. -1.
        -13    1    6    6    0    0  0.10010622091E+03  0.26741180610E+02  0.12150478799E+03  0.15968644184E+03  0.00000000000E+00 0.  1.
         14    1    6    6    0    0  0.28215080923E+01  0.39210205932E+02  0.92774800816E+02  0.10075993660E+03  0.00000000000E+00 0. -1.
         -5    1    3    3    0  503 -0.11736020070E+02 -0.57999648222E+02  0.30093248096E+02  0.66553639585E+02  0.47000000000E+01 0.  1.
         13    1    4    4    0    0 -0.92239294799E+02 -0.21148466231E+02  0.10986743670E+03  0.14500413365E+03  0.00000000000E+00 0. -1.
        -14    1    4    4    0    0 -0.18072660351E+03 -0.13130548451E+02  0.77091842696E+02  0.19692046295E+03  0.00000000000E+00 0.  1.
</event>
<event>
12    1  0.1597826E-001  0.1940007E+03  0.7818608E-02  0.1155043E+00
         21   -1    0    0  503  502  0.00000000000E+00  0.00000000000E+00  0.32756385988E+03  0.32756385988E+03  0.00000000000E+00 0.  1.
         21   -1    0    0  501  503 -0.00000000000E+00 -0.00000000000E+00 -0.11490145859E+03  0.11490145859E+03  0.00000000000E+00 0. -1.
          6    2    1    2  501    0  0.90974632012E+02  0.10263602347E+02  0.93357164094E+02  0.21471541935E+03  0.17030979424E+03 0.  0.
         24    2    3    3    0    0  0.75933390832E+02  0.64699883351E+02  0.36936250535E+02  0.13474694360E+03  0.82707299909E+02 0.  0.
         -6    2    1    2    0  502 -0.90974632012E+02 -0.10263602347E+02  0.11930523720E+03  0.22774989913E+03  0.17103962035E+03 0.  0.
        -24    2    5    5    0    0 -0.96864943632E+01  0.46722255716E+02  0.36925058445E+02  0.98661816051E+02  0.78063414306E+02 0.  0.
          5    1    3    3  501    0  0.15041241180E+02 -0.54436281004E+02  0.56420913559E+02  0.79968475743E+02  0.47000000000E+01 0. -1.
        -13    1    4    4    0    0  0.15015087141E+02 -0.13559949107E+02  0.28858150741E+02  0.35243693420E+02  0.00000000000E+00 0.  1.
         14    1    4    4    0    0  0.60918303691E+02  0.78259832459E+02  0.80780997938E+01  0.99503250184E+02  0.00000000000E+00 0. -1.
         -5    1    5    5    0  502 -0.81288137649E+02 -0.56985858063E+02  0.82380178752E+02  0.12908808308E+03  0.47000000000E+01 0.  1.
         11    1    6    6    0    0 -0.73378909541E+00 -0.20983294229E+02 -0.58117733054E-01  0.20996201104E+02  0.00000000000E+00 0. -1.
        -12    1    6    6    0    0 -0.89527052678E+01  0.67705549945E+02  0.36983176178E+02  0.77665614948E+02  0.00000000000E+00 0.  1.
</event>
<event>
12    1  0.1597826E-001  0.2049920E+03  0.7818608E-02  0.1148081E+00
         21   -1    0    0  501  502  0.00000000000E+00  0.00000000000E+00  0.74978776961E+03  0.74978776961E+03  0.00000000000E+00 0.  1.
         21   -1    0    0  502  503 -0.00000000000E+00 -0.00000000000E+00 -0.67881282607E+02  0.67881282607E+02  0.00000000000E+00 0.  1.
         -6    2    1    2    0  503 -0.36626121382E+02 -0.10462827029E+03  0.14088226680E+03  0.23911143018E+03  0.15823373608E+03 0.  0.
        -24    2    3    3    0    0  0.19694482690E+01 -0.74892145074E+02  0.15520177012E+03  0.18811149573E+03  0.75403138236E+02 0.  0.
          6    2    1    2  501    0  0.36626121382E+02  0.10462827029E+03  0.54102422020E+03  0.57855762203E+03  0.17243308110E+03 0.  0.
         24    2    5    5    0    0 -0.92739308385E+01 -0.57701433667E+01  0.15212823135E+03  0.17167089987E+03  0.78794661875E+02 0.  0.
          5    1    5    5  501    0  0.45900052221E+02  0.11039841365E+03  0.38889598885E+03  0.40688672217E+03  0.47000000000E+01 0. -1.
        -13    1    6    6    0    0 -0.33317182565E+02  0.15498693080E+02  0.12283571690E+03  0.12821410799E+03  0.00000000000E+00 0.  1.
         14    1    6    6    0    0  0.24043251727E+02 -0.21268836447E+02  0.29292514444E+02  0.43456791872E+02  0.00000000000E+00 0. -1.
         -5    1    3    3    0  503 -0.38595569651E+02 -0.29736125213E+02 -0.14319503317E+02  0.50999934457E+02  0.47000000000E+01 0.  1.
         11    1    4    4    0    0  0.28947524762E+02 -0.39711903868E+01  0.31276789001E+02  0.42801484473E+02  0.00000000000E+00 0. -1.
        -12    1    4    4    0    0 -0.26978076493E+02 -0.70920954687E+02  0.12392498112E+03  0.14531001125E+03  0.00000000000E+00 0.  1.
</event>
<event>
12    1  0.1597826E-001  0.1796371E+03  0.7818608E-02  0.1170462E+00
         21   -1    0    0  501  502  0.00000000000E+00  0.00000000000E+00  0.88038711207E+02  0.88038711207E+02  0.00000000000E+00 0.  1.
         21   -1    0    0  502  503 -0.00000000000E+00 -0.00000000000E+00 -0.45856891180E+03  0.45856891180E+03  0.00000000000E+00 0.  1.
         -6    2    1    2    0  503  0.12399012365E+02 -0.51976880824E+02 -0.32319376757E+03  0.36976165996E+03  0.17150551634E+03 0.  0.
        -24    2    3    3    0    0  0.36024393815E+02 -0.51792548923E+02 -0.89264501523E+02  0.13459536956E+03  0.78533669225E+02 0.  0.
          6    2    1    2  501    0 -0.12399012365E+02  0.51976880824E+02 -0.47336433024E+02  0.17684596305E+03  0.16179748177E+03 0.  0.
         24    2    5    5    0    0 -0.40438933231E+02 -0.29972177230E+00  0.13357182320E+02  0.91846637846E+02  0.81375631549E+02 0.  0.
          5    1    5    5  501    0  0.28039920866E+02  0.52276602596E+02 -0.60693615344E+02  0.84999325201E+02  0.47000000000E+01 0. -1.
        -13    1    6    6    0    0 -0.63904223019E+02 -0.55335164846E+00  0.20835227327E+02  0.67217279144E+02  0.00000000000E+00 0.  1.
         14    1    6    6    0    0  0.23465289788E+02  0.25362987617E+00 -0.74780450074E+01  0.24629358702E+02  0.00000000000E+00 0. -1.
         -5    1    3    3    0  503 -0.23625381450E+02 -0.18433190104E+00 -0.23392926605E+03  0.23516629040E+03  0.47000000000E+01 0.  1.
         11    1    4    4    0    0 -0.34858309223E+01  0.12029624423E+02  0.55214298191E+01  0.13687551578E+02  0.00000000000E+00 0. -1.
        -12    1    4    4    0    0  0.39510224737E+02 -0.63822173345E+02 -0.94785931342E+02  0.12090781798E+03  0.00000000000E+00 0.  1.
</event>
<event>
12    1  0.1597826E-001  0.1896983E+03  0.7818608E-02  0.1158776E+00
         21   -1    0    0  501  502  0.00000000000E+00  0.00000000000E+00  0.15284213147E+04  0.15284213147E+04  0.00000000000E+00 0.  1.
         21   -1    0    0  502  503 -0.00000000000E+00 -0.00000000000E+00 -0.27193120952E+02  0.27193120952E+02  0.00000000000E+00 0.  1.
         -6    2    1    2    0  503 -0.13003600030E+02 -0.79873423729E+02  0.46448094046E+03  0.50165508669E+03  0.17136634592E+03 0.  0.
        -24    2    3    3    0    0 -0.30735633206E+02 -0.10698679026E+03  0.43967906935E+03  0.46058462947E+03  0.80185188408E+02 0.  0.
          6    2    1    2  501    0  0.13003600030E+02  0.79873423729E+02  0.10367472533E+04  0.10539593490E+04  0.17157093181E+03 0.  0.
         24    2    5    5    0    0  0.21843699456E+02 -0.69501209134E+01  0.27111490262E+03  0.28335474111E+03  0.79127539451E+02 0.  0.
          5    1    5    5  501    0 -0.88400994264E+01  0.86823544642E+02  0.76563235067E+03  0.77060460786E+03  0.47000000000E+01 0. -1.
        -13    1    6    6    0    0 -0.88009861436E+01  0.44887869369E+01  0.23266073955E+03  0.23287040665E+03  0.00000000000E+00 0.  1.
         14    1    6    6    0    0  0.30644685600E+02 -0.11438907850E+02  0.38454163068E+02  0.50484334458E+02  0.00000000000E+00 0. -1.
         -5    1    3    3    0  503  0.17732033176E+02  0.27113366533E+02  0.24801871109E+02  0.41070457215E+02  0.47000000000E+01 0.  1.
         11    1    4    4    0    0 -0.11608604294E+02 -0.68036609864E+02  0.38317172126E+03  0.38933829500E+03  0.00000000000E+00 0. -1.
        -12    1    4    4    0    0 -0.19127028912E+02 -0.38950180398E+02  0.56507348090E+02  0.71246334476E+02  0.00000000000E+00 0.  1.
</event>
<event>
12    1  0.1597826E-001  0.2430201E+03  0.7818608E-02  0.1117910E+00
         21   -1    0    0  501  502  0.00000000000E+00  0.00000000000E+00  0.25401535161E+02  0.25401535161E+02  0.00000000000E+00 0. -1.
         21   -1    0    0  502  503 -0.00000000000E+00 -0.00000000000E+00 -0.23211288693E+04  0.23211288693E+04  0.00000000000E+00 0.  1.
         -6    2    1    2    0  503  0.14369866495E+03  0.92890664875E+02 -0.11095824982E+04  0.11358838262E+04  0.17257104153E+03 0.  0.
        -24    2    3    3    0    0  0.14086542939E+03  0.91211569943E+02 -0.64099770878E+03  0.66726389335E+03  0.78742752207E+02 0.  0.
          6    2    1    2  501    0 -0.14369866495E+03 -0.92890664875E+02 -0.11861448359E+04  0.12106465783E+04  0.17160298279E+03 0.  0.
         24    2    5    5    0    0 -0.14543296525E+03 -0.29511810494E+02 -0.68187257773E+03  0.70238238773E+03  0.79806716436E+02 0.  0.
          5    1    5    5  501    0  0.17343002999E+01 -0.63378854381E+02 -0.50427225822E+03  0.50826419054E+03  0.47000000000E+01 0. -1.
        -13    1    6    6    0    0 -0.67322640930E+02  0.20027230326E+02 -0.20718221787E+03  0.21876448373E+03  0.00000000000E+00 0.  1.
         14    1    6    6    0    0 -0.78110324325E+02 -0.49539040820E+02 -0.47469035986E+03  0.48361790400E+03  0.00000000000E+00 0. -1.
         -5    1    3    3    0  503  0.28332355692E+01  0.16790949323E+01 -0.46858478941E+03  0.46861993283E+03  0.47000000000E+01 0.  1.
         11    1    4    4    0    0 -0.22926701262E+01  0.23459572425E+02 -0.13550801895E+03  0.13754283360E+03  0.00000000000E+00 0. -1.
        -12    1    4    4    0    0  0.14315809951E+03  0.67751997518E+02 -0.50548968983E+03  0.52972105975E+03  0.00000000000E+00 0.  1.
</event>
<event>
12    1  0.1597826E-001  0.2454980E+03  0.7818608E-02  0.1116396E+00
         21   -1    0    0  503  502  0.00000000000E+00  0.00000000000E+00  0.22859387802E+03  0.22859387802E+03  0.00000000000E+00 0.  1.
         21   -1    0    0  501  503 -0.00000000000E+00 -0.00000000000E+00 -0.29829952634E+03  0.29829952634E+03  0.00000000000E+00 0.  1.
          6    2    1    2  501    0  0.85614720343E+02 -0.15065270031E+03 -0.12651858010E+03  0.27618146096E+03  0.17390552556E+03 0.  0.
         24    2    3    3    0    0  0.25575276945E+02 -0.15719740921E+03 -0.67083405428E+02  0.19131569657E+03  0.82075527507E+02 0.  0.
         -6    2    1    2    0  502 -0.85614720343E+02  0.15065270031E+03  0.56812931775E+02  0.25071194339E+03  0.17205421498E+03 0.  0.
        -24    2    5    5    0    0 -0.57260240745E+02  0.97743868210E+02 -0.31256484452E+02  0.14402720643E+03  0.83272260853E+02 0.  0.
          5    1    3    3  501    0  0.60039443398E+02  0.65447089054E+01 -0.59435174668E+02  0.84865764393E+02  0.47000000000E+01 0. -1.
        -13    1    4    4    0    0  0.46290546718E+02 -0.55164963103E+02 -0.10368701250E+02  0.72756428137E+02  0.00000000000E+00 0.  1.
         14    1    4    4    0    0 -0.20715269773E+02 -0.10203244611E+03 -0.56714704178E+02  0.11855926843E+03  0.00000000000E+00 0. -1.
         -5    1    5    5    0  502 -0.28354479598E+02  0.52908832096E+02  0.88069416227E+02  0.10668473697E+03  0.47000000000E+01 0.  1.
         11    1    6    6    0    0  0.57240045823E+01  0.71596403561E+02 -0.95327923952E+01  0.72454698690E+02  0.00000000000E+00 0. -1.
        -12    1    6    6    0    0 -0.62984245327E+02  0.26147464649E+02 -0.21723692057E+02  0.71572507736E+02  0.00000000000E+00 0.  1.
</event>
<event>
12    1  0.1597826E-001  0.2039092E+03  0.7818608E-02  0.1146686E+00
         21   -1    0    0  501  502  0.00000000000E+00  0.00000000000E+00  0.97810002420E+03  0.97810002420E+03  0.00000000000E+00 0. -1.
         21   -1    0    0  502  503 -0.00000000000E+00 -0.00000000000E+00 -0.42305646128E+02  0.42305646128E+02  0.00000000000E+00 0. -1.
         -6    2    1    2    0  503 -0.94023794768E+00 -0.10752334728E+03  0.47196571599E+03  0.51413092721E+03  0.17325362619E+03 0.  0.
        -24    2    3    3    0    0 -0.34951140393E+02 -0.54430833688E+02  0.12751276704E+03  0.16392315956E+03  0.80168563727E+02 0.  0.
          6    2    1    2  501    0  0.94023794768E+00  0.10752334728E+03  0.46382866208E+03  0.50627474312E+03  0.17208989945E+03 0.  0.
         24    2    5    5    0    0 -0.88784004815E+01  0.13934325821E+02  0.34555593953E+03  0.35506020183E+03  0.79911501956E+02 0.  0.
          5    1    5    5  501    0  0.98186384292E+01  0.93589021459E+02  0.11827272255E+03  0.15121454129E+03  0.47000000000E+01 0. -1.
        -11    1    6    6    0    0  0.60926333076E-01 -0.26562197770E+02  0.50081627642E+02  0.56689712379E+02  0.00000000000E+00 0.  1.
         12    1    6    6    0    0 -0.89393268146E+01  0.40496523590E+02  0.29547431189E+03  0.29837048945E+03  0.00000000000E+00 0. -1.
         -5    1    3    3    0  503  0.34010902446E+02 -0.53092513592E+02  0.34445294895E+03  0.35020776766E+03  0.47000000000E+01 0.  1.
         13    1    4    4    0    0  0.17987154712E+02  0.92283515924E+01  0.25138627364E+02  0.32259119540E+02  0.00000000000E+00 0. -1.
        -14    1    4    4    0    0 -0.52938295105E+02 -0.63659185280E+02  0.10237413968E+03  0.13166404002E+03  0.00000000000E+00 0.  1.
</event>
<event>
12    1  0.1597826E-001  0.3058073E+03  0.7818608E-02  0.1082518E+00
         21   -1    0    0  503  502  0.00000000000E+00  0.00000000000E+00  0.30197955008E+03  0.30197955008E+03  0.00000000000E+00 0. -1.
         21   -1    0    0  501  503 -0.00000000000E+00 -0.00000000000E+00 -0.65405762204E+03  0.65405762204E+03  0.00000000000E+00 0.  1.
          6    2    1    2  501    0 -0.11334699581E+02  0.25237183776E+03 -0.52366161822E+03  0.60641537035E+03  0.17233134102E+03 0.  0.
         24    2    3    3    0    0 -0.67188085468E+02  0.21256105236E+03 -0.39151930038E+03  0.45745839163E+03  0.79274066927E+02 0.  0.
         -6    2    1    2    0  502  0.11334699581E+02 -0.25237183776E+03  0.17158354625E+03  0.34962180177E+03  0.17021889147E+03 0.  0.
        -24    2    5    5    0    0  0.20666601079E+02 -0.24342561143E+03  0.19464273294E+03  0.32277156077E+03  0.81317588831E+02 0.  0.
          5    1    3    3  501    0  0.55853385887E+02  0.39810785399E+02 -0.13214231783E+03  0.14895697873E+03  0.47000000000E+01 0. -1.
        -11    1    4    4    0    0  0.69478987078E+01  0.71559996298E+02 -0.17025730751E+03  0.18481519723E+03  0.00000000000E+00 0.  1.
         12    1    4    4    0    0 -0.74135984176E+02  0.14100105606E+03 -0.22126199288E+03  0.27264319440E+03  0.00000000000E+00 0. -1.
         -5    1    5    5    0  502 -0.93319014977E+01 -0.89462263281E+01 -0.23059186684E+02  0.26850240997E+02  0.47000000000E+01 0.  1.
         13    1    6    6    0    0  0.35602317271E+02 -0.96217158493E+02  0.11722235421E+03  0.15577659295E+03  0.00000000000E+00 0. -1.
        -14    1    6    6    0    0 -0.14935716192E+02 -0.14720845294E+03  0.77420378728E+02  0.16699496782E+03  0.00000000000E+00 0.  1.
</event>
<event>
12    1  0.1597826E-001  0.1832140E+03  0.7818608E-02  0.1164759E+00
         21   -1    0    0  503  502  0.00000000000E+00  0.00000000000E+00  0.11212417990E+03  0.11212417990E+03  0.00000000000E+00 0. -1.
         21   -1    0    0  501  503 -0.00000000000E+00 -0.00000000000E+00 -0.43173836522E+03  0.43173836522E+03  0.00000000000E+00 0. -1.
          6    2    1    2  501    0 -0.47102622969E+02  0.40798387402E+02 -0.31045427284E+03  0.36041969145E+03  0.17215496785E+03 0.  0.
         24    2    3    3    0    0 -0.92601398053E+02 -0.19512576447E+01 -0.18498861782E+03  0.22020060831E+03  0.75423423759E+02 0.  0.
         -6    2    1    2    0  502  0.47102622969E+02 -0.40798387402E+02 -0.91599124868E+01  0.18344285367E+03  0.17229106495E+03 0.  0.
        -24    2    5    5    0    0  0.16162572523E+02 -0.21042314506E+02 -0.72054152492E+02  0.11046775817E+03  0.79418618428E+02 0.  0.
          5    1    3    3  501    0  0.45498775085E+02  0.42749645047E+02 -0.12546565502E+03  0.14021908314E+03  0.47000000000E+01 0. -1.
        -13    1    4    4    0    0 -0.61702008937E+02  0.34489493814E+02 -0.96261005319E+02  0.11942715033E+03  0.00000000000E+00 0.  1.
         14    1    4    4    0    0 -0.30899389116E+02 -0.36440751459E+02 -0.88727612496E+02  0.10077345798E+03  0.00000000000E+00 0. -1.
         -5    1    5    5    0  502  0.30940050445E+02 -0.19756072896E+02  0.62894240006E+02  0.72975095503E+02  0.47000000000E+01 0.  1.
         11    1    6    6    0    0 -0.60519741699E+01  0.17460851282E+02  0.70095696279E+01  0.19764660008E+02  0.00000000000E+00 0. -1.
        -12    1    6    6    0    0  0.22214546693E+02 -0.38503165788E+02 -0.79063722120E+02  0.90703098161E+02  0.00000000000E+00 0.  1.
</event>
<event>
12    1  0.1597826E-001  0.2035076E+03  0.7818608E-02  0.1149642E+00
         21   -1    0    0  501  502  0.00000000000E+00  0.00000000000E+00  0.28698344927E+03  0.28698344927E+03  0.00000000000E+00 0. -1.
         21   -1    0    0  502  503 -0.00000000000E+00 -0.00000000000E+00 -0.14608706427E+03  0.14608706427E+03  0.00000000000E+00 0. -1.
         -6    2    1    2    0  503  0.94840695166E+02  0.52242015204E+02  0.88543331439E+01  0.19047941235E+03  0.15646092708E+03 0.  0.
        -24    2    3    3    0    0  0.10157441565E+03  0.22057362349E+02 -0.36421048035E+02  0.13544845379E+03  0.78840990264E+02 0.  0.
          6    2    1    2  501    0 -0.94840695166E+02 -0.52242015204E+02  0.13204205185E+03  0.24259110118E+03  0.17231179095E+03 0.  0.
         24    2    5    5    0    0 -0.73850515200E+01  0.99795105337E+01  0.10246358908E+03  0.13115958261E+03  0.80931572374E+02 0.  0.
          5    1    5    5  501    0 -0.87455643646E+02 -0.62221525738E+02  0.29578462779E+02  0.11143151857E+03  0.47000000000E+01 0. -1.
        -11    1    6    6    0    0 -0.11178907090E+02  0.15058563076E+02 -0.80896263158E+01  0.20424748213E+02  0.00000000000E+00 0.  1.
         12    1    6    6    0    0  0.37938555696E+01 -0.50790525426E+01  0.11055321539E+03  0.11073483439E+03  0.00000000000E+00 0. -1.
         -5    1    3    3    0  503 -0.67337204856E+01  0.30184652855E+02  0.45275381179E+02  0.55030958564E+02  0.47000000000E+01 0.  1.
         13    1    4    4    0    0  0.75323398994E+02 -0.20816496593E+02 -0.10383805969E+02  0.78833776979E+02  0.00000000000E+00 0. -1.
        -14    1    4    4    0    0  0.26251016657E+02  0.42873858942E+02 -0.26037242065E+02  0.56614676812E+02  0.00000000000E+00 0.  1.
</event>
<event>
12    1  0.1597826E-001  0.2329194E+03  0.7818608E-02  0.1124763E+00
         21   -1    0    0  501  502  0.00000000000E+00  0.00000000000E+00  0.56702959547E+03  0.56702959547E+03  0.00000000000E+00 0.  1.
         21   -1    0    0  502  503 -0.00000000000E+00 -0.00000000000E+00 -0.12624308225E+03  0.12624308225E+03  0.00000000000E+00 0.  1.
         -6    2    1    2    0  503  0.94774547101E+02 -0.12493463334E+03  0.49098182578E+02  0.23803799772E+03  0.17222247077E+03 0.  0.
        -24    2    3    3    0    0  0.14184312369E+02 -0.12507162494E+03  0.12880552712E+02  0.14955855709E+03  0.79735483179E+02 0.  0.
          6    2    1    2  501    0 -0.94774547101E+02  0.12493463334E+03  0.39168833064E+03  0.45523468001E+03  0.17096194937E+03 0.  0.
         24    2    5    5    0    0 -0.43337180158E+02  0.10551797337E+03  0.37043876036E+03  0.39610394655E+03  0.81616832850E+02 0.  0.
          5    1    5    5  501    0 -0.51437366943E+02  0.19416659977E+02  0.21249570282E+02  0.59130733462E+02  0.47000000000E+01 0. -1.
        -11    1    6    6    0    0 -0.26543158750E+02  0.96770023337E+00  0.32552001326E+02  0.42013194480E+02  0.00000000000E+00 0.  1.
         12    1    6    6    0    0 -0.16794021409E+02  0.10455027313E+03  0.33788675903E+03  0.35409075206E+03  0.00000000000E+00 0. -1.
         -5    1    3    3    0  503  0.80590234732E+02  0.13699159665E+00  0.36217629866E+02  0.88479440629E+02  0.47000000000E+01 0.  1.
         13    1    4    4    0    0 -0.20587765477E+02 -0.15345310353E+01  0.92893257405E+00  0.20665763682E+02  0.00000000000E+00 0. -1.
        -14    1    4    4    0    0  0.34772077846E+02 -0.12353709391E+03  0.11951620138E+02  0.12889279341E+03  0.00000000000E+00 0.  1.
</event>
<event>
12    1  0.1597826E-001  0.2182662E+03  0.7818608E-02  0.1135238E+00
         21   -1    0    0  501  502  0.00000000000E+00  0.00000000000E+00  0.92452107075E+02  0.92452107075E+02  0.00000000000E+00 0.  1.
         21   -1    0    0  502  503 -0.00000000000E+00 -0.00000000000E+00 -0.98149189231E+03  0.98149189231E+03  0.00000000000E+00 0. -1.
         -6    2    1    2    0  503  0.13468946350E+03  0.12084395186E+02 -0.81502921476E+03  0.84374922337E+03  0.17132672541E+03 0.  0.
        -24    2    3    3    0    0  0.55664989266E+02 -0.46522045016E+02 -0.28754345515E+03  0.30714611216E+03  0.79966267369E+02 0.  0.
          6    2    1    2  501    0 -0.13468946350E+03 -0.12084395186E+02 -0.74010570467E+02  0.23019477601E+03  0.17095258458E+03 0.  0.
         24    2    5    5    0    0 -0.19142006966E+02  0.10506454588E+02  0.15343807384E+02  0.82316934372E+02  0.77870682806E+02 0.  0.
          5    1    5    5  501    0 -0.11554745654E+03 -0.22590849774E+02 -0.89354377852E+02  0.14787784164E+03  0.47000000000E+01 0. -1.
        -13    1    6    6    0    0 -0.43559168278E+01 -0.31791595803E+02 -0.60656956737E+01  0.32656886550E+02  0.00000000000E+00 0.  1.
         14    1    6    6    0    0 -0.14786090138E+02  0.42298050392E+02  0.21409503058E+02  0.49660047822E+02  0.00000000000E+00 0. -1.
         -5    1    3    3    0  503  0.79024474236E+02  0.58606440202E+02 -0.52748575962E+03  0.53660311121E+03  0.47000000000E+01 0.  1.
         11    1    4    4    0    0  0.73110510455E+02 -0.19875460609E+02 -0.19066391892E+03  0.20516556887E+03  0.00000000000E+00 0. -1.
        -12    1    4    4    0    0 -0.17445521189E+02 -0.26646584407E+02 -0.96879536230E+02  0.10198054329E+03  0.00000000000E+00 0.  1.
</event>
<event>
12    1  0.1597826E-001  0.2310220E+03  0.7818608E-02  0.1126079E+00
         21   -1    0    0  501  502  0.00000000000E+00  0.00000000000E+00  0.19181820895E+03  0.19181820895E+03  0.00000000000E+00 0. -1.
         21   -1    0    0  502  503 -0.00000000000E+00 -0.00000000000E+00 -0.28087196804E+03  0.28087196804E+03  0.00000000000E+00 0.  1.
         -6    2    1    2    0  503 -0.58968382745E+02 -0.14251331903E+03 -0.71591762037E+02  0.24100917691E+03  0.17080025379E+03 0.  0.
        -24    2    3    3    0    0 -0.15696258541E+02 -0.20945231525E+01 -0.37913386268E+02  0.90190617161E+02  0.80288000386E+02 0.  0.
          6    2    1    2  501    0  0.58968382745E+02  0.14251331903E+03 -0.17461997055E+02  0.23168100008E+03  0.17199955870E+03 0.  0.
         24    2    5    5    0    0 -0.22413909650E+02  0.10384412621E+03 -0.39566803266E+02  0.13878807007E+03  0.80066288646E+02 0.  0.
          5    1    5    5  501    0  0.81382292394E+02  0.38669192817E+02  0.22104806211E+02  0.92892930011E+02  0.47000000000E+01 0. -1.
        -11    1    6    6    0    0 -0.25691452776E+02  0.96604228063E+02 -0.15756053891E+01  0.99974547549E+02  0.00000000000E+00 0.  1.
         12    1    6    6    0    0  0.32775431267E+01  0.72398981518E+01 -0.37991197877E+02  0.38813522519E+02  0.00000000000E+00 0. -1.
         -5    1    3    3    0  503 -0.43272124204E+02 -0.14041879588E+03 -0.33678375769E+02  0.15081855974E+03  0.47000000000E+01 0.  1.
         13    1    4    4    0    0 -0.45893993018E+02 -0.88176843093E+01 -0.84947583497E+01  0.47499169163E+02  0.00000000000E+00 0. -1.
        -14    1    4    4    0    0  0.30197734477E+02  0.67231611568E+01 -0.29418627919E+02  0.42691447998E+02  0.00000000000E+00 0.  1.
</event>
<event>
12    1  0.1597826E-001  0.1881709E+03  0.7818608E-02  0.1162416E+00
         21   -1    0    0  503  502  0.00000000000E+00  0.00000000000E+00  0.59695175421E+02  0.59695175421E+02  0.00000000000E+00 0.  1.
         21   -1    0    0  501  503 -0.00000000000E+00 -0.00000000000E+00 -0.56536788080E+03  0.56536788080E+03  0.00000000000E+00 0.  1.
          6    2    1    2  501    0  0.33249134605E+02  0.28555152145E+02 -0.28070437701E+03  0.33793971561E+03  0.18299563505E+03 0.  0.
         24    2    3    3    0    0  0.78591441476E+02  0.61396923668E+02 -0.23044527272E+03  0.26255686402E+03  0.76713012052E+02 0.  0.
         -6    2    1    2    0  502 -0.33249134605E+02 -0.28555152145E+02 -0.22496832838E+03  0.28712334062E+03  0.17293976491E+03 0.  0.
        -24    2    5    5    0    0  0.20094384222E+02  0.27480848266E+02 -0.60400673147E+02  0.10521631082E+03  0.79140693999E+02 0.  0.
          5    1    3    3  501    0 -0.45342306871E+02 -0.32841771524E+02 -0.50259104286E+02  0.75382851583E+02  0.47000000000E+01 0. -1.
        -11    1    4    4    0    0  0.56108512679E+02  0.78918729303E+02 -0.16787422293E+03  0.19379908606E+03  0.00000000000E+00 0.  1.
         12    1    4    4    0    0  0.22482928797E+02 -0.17521805635E+02 -0.62571049785E+02  0.68757777969E+02  0.00000000000E+00 0. -1.
         -5    1    5    5    0  502 -0.53343518828E+02 -0.56036000411E+02 -0.16456765523E+03  0.18190702980E+03  0.47000000000E+01 0.  1.
         11    1    6    6    0    0  0.18944534210E+02  0.47286303533E+02 -0.67128126495E+02  0.84267877895E+02  0.00000000000E+00 0. -1.
        -12    1    6    6    0    0  0.11498500124E+01 -0.19805455267E+02  0.67274533472E+01  0.20948432922E+02  0.00000000000E+00 0.  1.
</event>
<event>
12    1  0.1597826E-001  0.1771524E+03  0.7818608E-02  0.1170837E+00
         21   -1    0    0  503  502  0.00000000000E+00  0.00000000000E+00  0.71584198599E+02  0.71584198599E+02  0.00000000000E+00 0.  1.
         21   -1    0    0  501  503 -0.00000000000E+00 -0.00000000000E+00 -0.67378542629E+03  0.67378542629E+03  0.00000000000E+00 0.  1.
          6    2    1    2  501    0 -0.35025571278E+02 -0.29512036344E+02 -0.80220542999E+02  0.19446926095E+03  0.17112921142E+03 0.  0.
         24    2    3    3    0    0  0.12088489151E+02  0.40327173590E+02 -0.30088787156E+02  0.96323793003E+02  0.81243618126E+02 0.  0.
         -6    2    1    2    0  502  0.35025571278E+02  0.29512036344E+02 -0.52198068469E+03  0.55090036394E+03  0.17008710964E+03 0.  0.
        -24    2    5    5    0    0  0.32991199277E+02  0.70537333202E+02 -0.22960579503E+03  0.25561680572E+03  0.80976512949E+02 0.  0.
          5    1    3    3  501    0 -0.47114060429E+02 -0.69839209934E+02 -0.50131755843E+02  0.98145467946E+02  0.47000000000E+01 0. -1.
        -13    1    4    4    0    0  0.21004312660E+02 -0.12999971097E+02  0.12324606251E+02  0.27605729805E+02  0.00000000000E+00 0.  1.
         14    1    4    4    0    0 -0.89158235093E+01  0.53327144687E+02 -0.42413393407E+02  0.68718063198E+02  0.00000000000E+00 0. -1.
         -5    1    5    5    0  502  0.20343720012E+01 -0.41025296858E+02 -0.29237488966E+03  0.29528355822E+03  0.47000000000E+01 0.  1.
         11    1    6    6    0    0  0.51745202599E+01  0.73025187342E+01  0.55449564197E+01  0.10528484292E+02  0.00000000000E+00 0. -1.
        -12    1    6    6    0    0  0.27816679017E+02  0.63234814468E+02 -0.23515075145E+03  0.24508832143E+03  0.00000000000E+00 0.  1.
</event>
<event>
12    1  0.1597826E-001  0.2352745E+03  0.7818608E-02  0.1123056E+00
         21   -1    0    0  503  502  0.00000000000E+00  0.00000000000E+00  0.10812982960E+04  0.10812982960E+04  0.00000000000E+00 0.  1.
         21   -1    0    0  501  503 -0.00000000000E+00 -0.00000000000E+00 -0.54269378332E+02  0.54269378332E+02  0.00000000000E+00 0. -1.
          6    2    1    2  501    0  0.67268209094E+02 -0.14537925276E+03  0.37581022875E+03  0.44315171038E+03  0.17172644319E+03 0.  0.
         24    2    3    3    0    0  0.59634442071E+02 -0.12851536673E+03  0.16661787044E+03  0.23308934387E+03  0.80601869129E+02 0.  0.
         -6    2    1    2    0  502 -0.67268209094E+02  0.14537925276E+03  0.65121868895E+03  0.69241596399E+03  0.17231931770E+03 0.  0.
        -24    2    5    5    0    0  0.18454159805E+02  0.23167410196E+02  0.20531933636E+03  0.22216881446E+03  0.79534063936E+02 0.  0.
          5    1    3    3  501    0  0.76337670234E+01 -0.16863886037E+02  0.20919235831E+03  0.21006236651E+03  0.47000000000E+01 0. -1.
        -11    1    4    4    0    0  0.66176145727E+02 -0.85008302870E+02  0.15283033854E+03  0.18698343830E+03  0.00000000000E+00 0.  1.
         12    1    4    4    0    0 -0.65417036566E+01 -0.43507063857E+02  0.13787531903E+02  0.46105905567E+02  0.00000000000E+00 0. -1.
         -5    1    5    5    0  502 -0.85722368899E+02  0.12221184257E+03  0.44589935260E+03  0.47024714953E+03  0.47000000000E+01 0.  1.
         13    1    6    6    0    0 -0.10255330537E+02  0.45844345482E+02  0.95758233757E+02  0.10666074793E+03  0.00000000000E+00 0. -1.
        -14    1    6    6    0    0  0.28709490342E+02 -0.22676935286E+02  0.10956110260E+03  0.11550806653E+03  0.00000000000E+00 0.  1.
</event>
<event>
12    1  0.1597826E-001  0.2208124E+03  0.7818608E-02  0.1133391E+00
         21   -1    0    0  501  502  0.00000000000E+00  0.00000000000E+00  0.30889730638E+03  0.30889730638E+03  0.00000000000E+00 0. -1.
         21   -1    0    0  502  503 -0.00000000000E+00 -0.00000000000E+00 -0.27874593074E+03  0.27874593074E+03  0.00000000000E+00 0. -1.
         -6    2    1    2    0  503 -0.12662326769E+03 -0.56871995488E+02 -0.17876307824E+03  0.28410269299E+03  0.17172718548E+03 0.  0.
        -24    2    3    3    0    0 -0.11531687214E+03  0.10624093126E+02 -0.59858293250E+02  0.14682926347E+03  0.67564524612E+02 0.  0.
          6    2    1    2  501    0  0.12662326769E+03  0.56871995488E+02  0.20891445388E+03  0.30354054412E+03  0.17094951621E+03 0.  0.
         24    2    5    5    0    0  0.49494500227E+02  0.38588215157E+02  0.20014348969E+03  0.22365210186E+03  0.77615013371E+02 0.  0.
          5    1    5    5  501    0  0.77128767464E+02  0.18283780331E+02  0.87709641941E+01  0.79888442260E+02  0.47000000000E+01 0. -1.
        -13    1    6    6    0    0  0.14776213772E+02 -0.22096080104E+02  0.83833062895E+02  0.87946322742E+02  0.00000000000E+00 0.  1.
         14    1    6    6    0    0  0.34718286455E+02  0.60684295261E+02  0.11631042679E+03  0.13570577912E+03  0.00000000000E+00 0. -1.
         -5    1    3    3    0  503 -0.11306395551E+02 -0.67496088613E+02 -0.11890478499E+03  0.13727342952E+03  0.47000000000E+01 0.  1.
         11    1    4    4    0    0 -0.29996109158E+02 -0.14212786651E+02  0.90218689775E+01  0.34397150883E+02  0.00000000000E+00 0. -1.
        -12    1    4    4    0    0 -0.85320762982E+02  0.24836879776E+02 -0.68880162228E+02  0.11243211259E+03  0.00000000000E+00 0.  1.
</event>
<event>
12    1  0.1597826E-001  0.2134687E+03  0.7818608E-02  0.1141168E+00
         21   -1    0    0  503  502  0.00000000000E+00  0.00000000000E+00  0.10530826585E+04  0.10530826585E+04  0.00000000000E+00 0. -1.
         21   -1    0    0  501  503 -0.00000000000E+00 -0.00000000000E+00 -0.41394156703E+02  0.41394156703E+02  0.00000000000E+00 0.  1.
          6    2    1    2  501    0  0.19045899130E+02  0.12438820203E+03  0.54858919415E+03  0.58454559969E+03  0.15782358220E+03 0.  0.
         24    2    3    3    0    0  0.66822163714E+02  0.10577596500E+03  0.41117134361E+03  0.43779839367E+03  0.83377475165E+02 0.  0.
         -6    2    1    2    0  502 -0.19045899130E+02 -0.12438820203E+03  0.46309930761E+03  0.50993121548E+03  0.17243463902E+03 0.  0.
        -24    2    5    5    0    0 -0.39586350837E+02 -0.13323976670E+03  0.26409869340E+03  0.30962246677E+03  0.82450212076E+02 0.  0.
          5    1    3    3  501    0 -0.47776264584E+02  0.18612237034E+02  0.13741785054E+03  0.14674720601E+03  0.47000000000E+01 0. -1.
        -13    1    4    4    0    0  0.75535354346E+02  0.97021621514E+02  0.27705215776E+03  0.30311166741E+03  0.00000000000E+00 0.  1.
         14    1    4    4    0    0 -0.87131906321E+01  0.87543434835E+01  0.13411918584E+03  0.13468672626E+03  0.00000000000E+00 0. -1.
         -5    1    5    5    0  502  0.20540451707E+02  0.88515646665E+01  0.19900061421E+03  0.20030874871E+03  0.47000000000E+01 0.  1.
         13    1    6    6    0    0 -0.22992444559E+02 -0.60314148809E+02  0.20310367186E+03  0.21311393801E+03  0.00000000000E+00 0. -1.
        -14    1    6    6    0    0 -0.16593906277E+02 -0.72925617889E+02  0.60995021543E+02  0.96508528758E+02  0.00000000000E+00 0.  1.
</event>
<event>
12    1  0.1597826E-001  0.2047999E+03  0.7818608E-02  0.1146485E+00
         21   -1    0    0  501  502  0.00000000000E+00  0.00000000000E+00  0.20653617554E+03  0.20653617554E+03  0.00000000000E+00 0.  1.
         21   -1    0    0  502  503 -0.00000000000E+00 -0.00000000000E+00 -0.68820553160E+03  0.68820553160E+03  0.00000000000E+00 0.  1.
         -6    2    1    2    0  503 -0.41784365947E+02  0.98325041079E+02 -0.61718481657E+03  0.64916593726E+03  0.17054491886E+03 0.  0.
        -24    2    3    3    0    0 -0.43292110675E+01 -0.27063790261E+01 -0.15296100127E+03  0.17257798402E+03  0.79749771814E+02 0.  0.
          6    2    1    2  501    0  0.41784365947E+02 -0.98325041079E+02  0.13551546051E+03  0.24557576987E+03  0.17472627670E+03 0.  0.
         24    2    5    5    0    0 -0.11875656135E+02 -0.87407586728E+02  0.23195057227E+02  0.12052957132E+03  0.78792445424E+02 0.  0.
          5    1    5    5  501    0  0.53660022081E+02 -0.10917454351E+02  0.11232040329E+03  0.12504619856E+03  0.47000000000E+01 0. -1.
        -13    1    6    6    0    0  0.11336823656E+02 -0.73302195479E+02  0.44065084719E+02  0.86275530273E+02  0.00000000000E+00 0.  1.
         14    1    6    6    0    0 -0.23212479790E+02 -0.14105391249E+02 -0.20870027492E+02  0.34254041044E+02  0.00000000000E+00 0. -1.
         -5    1    3    3    0  503 -0.37455154879E+02  0.10103142011E+03 -0.46422381531E+03  0.47658795324E+03  0.47000000000E+01 0.  1.
         11    1    4    4    0    0 -0.42758586627E+01 -0.29953931536E+02 -0.13842928986E+03  0.14169752741E+03  0.00000000000E+00 0. -1.
        -12    1    4    4    0    0 -0.53352404814E-01  0.27247552510E+02 -0.14531711403E+02  0.30880456612E+02  0.00000000000E+00 0.  1.
</event>
<event>
12    1  0.1597826E-001  0.1857224E+03  0.7818608E-02  0.1162775E+00
         21   -1    0    0  503  502  0.00000000000E+00  0.00000000000E+00  0.71642600234E+02  0.71642600234E+02  0.00000000000E+00 0. -1.
         21   -1    0    0  501  503 -0.00000000000E+00 -0.00000000000E+00 -0.12290799695E+04  0.12290799695E+04  0.00000000000E+00 0. -1.
          6    2    1    2  501    0 -0.33070427918E+02 -0.61337647043E+02 -0.10864052317E+04  0.11018799527E+04  0.17031483359E+03 0.  0.
         24    2    3    3    0    0 -0.60175816494E+01 -0.63175601905E+02 -0.10556377036E+04  0.10606008374E+04  0.80472400297E+02 0.  0.
         -6    2    1    2    0  502  0.33070427918E+02  0.61337647043E+02 -0.71032137582E+02  0.19884261705E+03  0.17215359897E+03 0.  0.
        -24    2    5    5    0    0 -0.16642380208E+02  0.87113942947E+02 -0.17468156642E+02  0.12120904972E+03  0.80750785530E+02 0.  0.
          5    1    3    3  501    0 -0.27052846268E+02  0.18379548611E+01 -0.30767528129E+02  0.41279115258E+02  0.47000000000E+01 0. -1.
        -13    1    4    4    0    0  0.33223119856E+02 -0.11738860540E+02 -0.26721022710E+03  0.26952343498E+03  0.00000000000E+00 0.  1.
         14    1    4    4    0    0 -0.39240701505E+02 -0.51436741364E+02 -0.78842747646E+03  0.79107740245E+03  0.00000000000E+00 0. -1.
         -5    1    5    5    0  502  0.49712808125E+02 -0.25776295904E+02 -0.53563980939E+02  0.77633567330E+02  0.47000000000E+01 0.  1.
         13    1    6    6    0    0 -0.20820608729E+02  0.21969694248E+02  0.28337728982E+02  0.41463141428E+02  0.00000000000E+00 0. -1.
        -14    1    6    6    0    0  0.41782285210E+01  0.65144248700E+02 -0.45805885625E+02  0.79745908297E+02  0.00000000000E+00 0.  1.
</event>
<event>
12    1  0.1597826E-001  0.1824030E+03  0.7818608E-02  0.1165777E+00
         21   -1    0    0  501  502  0.00000000000E+00  0.00000000000E+00  0.14392796667E+04  0.14392796667E+04  0.00000000000E+00 0.  1.
         21   -1    0    0  502  503 -0.00000000000E+00 -0.00000000000E+00 -0.29917815687E+02  0.29917815687E+02  0.00000000000E+00 0. -1.
         -6    2    1    2    0  503 -0.54003334668E+02 -0.29094153680E+02  0.35236947085E+03  0.39678090340E+03  0.17177896082E+03 0.  0.
        -24    2    3    3    0    0 -0.19166977419E+02  0.18001409299E+02  0.31721443685E+03  0.32830075844E+03  0.80405007835E+02 0.  0.
          6    2    1    2  501    0  0.54003334668E+02  0.29094153680E+02  0.10569923802E+04  0.10724165790E+04  0.17053327309E+03 0.  0.
         24    2    5    5    0    0  0.44226576253E+02 -0.39259400471E+02  0.81546403319E+03  0.82116804514E+03  0.76407318738E+02 0.  0.
          5    1    5    5  501    0  0.97767584152E+01  0.68353554152E+02  0.24152834697E+03  0.25124853385E+03  0.47000000000E+01 0. -1.
        -11    1    6    6    0    0  0.15967883363E+02  0.74065005558E+01  0.54356467385E+03  0.54384959704E+03  0.00000000000E+00 0.  1.
         12    1    6    6    0    0  0.28258692890E+02 -0.46665901027E+02  0.27189935934E+03  0.27731844809E+03  0.00000000000E+00 0. -1.
         -5    1    3    3    0  503 -0.34836357249E+02 -0.47095562979E+02  0.35155034005E+02  0.68480144966E+02  0.47000000000E+01 0.  1.
         13    1    4    4    0    0  0.19969089631E+02  0.29072998827E+02  0.77341902517E+02  0.85004550975E+02  0.00000000000E+00 0. -1.
        -14    1    4    4    0    0 -0.39136067050E+02 -0.11071589529E+02  0.23987253433E+03  0.24329620746E+03  0.00000000000E+00 0.  1.
</event>
<event>
12    1  0.1597826E-001  0.2053032E+03  0.7818608E-02  0.1145788E+00
         21   -1    0    0  503  502  0.00000000000E+00  0.00000000000E+00  0.25851408713E+03  0.25851408713E+03  0.00000000000E+00 0.  1.
         21   -1    0    0  501  503 -0.00000000000E+00 -0.00000000000E+00 -0.18216508161E+03  0.18216508161E+03  0.00000000000E+00 0.  1.
          6    2    1    2  501    0  0.85965876577E+02  0.64669289903E+02 -0.36548917814E+02  0.20638157436E+03  0.17229417242E+03 0.  0.
         24    2    3    3    0    0  0.91739834853E+02  0.90251208834E+02 -0.67430187581E+02  0.16559535128E+03  0.79457612442E+02 0.  0.
         -6    2    1    2    0  502 -0.85965876577E+02 -0.64669289903E+02  0.11289792334E+03  0.23429759438E+03  0.17486329702E+03 0.  0.
        -24    2    5    5    0    0 -0.75594432594E+02 -0.11050382910E+03  0.71813056677E+02  0.17170024537E+03  0.79989028405E+02 0.  0.
          5    1    3    3  501    0 -0.57739582755E+01 -0.25581918931E+02  0.30881269768E+02  0.40786223076E+02  0.47000000000E+01 0. -1.
        -11    1    4    4    0    0  0.84484257286E+02  0.28994883806E+02 -0.44440455390E+02  0.99765961587E+02  0.00000000000E+00 0.  1.
         12    1    4    4    0    0  0.72555775667E+01  0.61256325028E+02 -0.22989732192E+02  0.65829389698E+02  0.00000000000E+00 0. -1.
         -5    1    5    5    0  502 -0.10371443983E+02  0.45834539200E+02  0.41084866661E+02  0.62597349005E+02  0.47000000000E+01 0.  1.
         13    1    6    6    0    0  0.15010347150E+02 -0.95822674007E+01  0.19306202258E+02  0.26265182576E+02  0.00000000000E+00 0. -1.
        -14    1    6    6    0    0 -0.90604779744E+02 -0.10092156170E+03  0.52506854419E+02  0.14543506279E+03  0.00000000000E+00 0.  1.
</event>
<event>
12    1  0.1597826E-001  0.1812822E+03  0.7818608E-02  0.1166586E+00
         21   -1    0    0  501  502  0.00000000000E+00  0.00000000000E+00  0.10543154971E+03  0.10543154971E+03  0.00000000000E+00 0.  1.
         21   -1    0    0  502  503 -0.00000000000E+00 -0.00000000000E+00 -0.11892757638E+04  0.11892757638E+04  0.00000000000E+00 0. -1.
         -6    2    1    2    0  503 -0.64673570420E+01  0.63175746737E+02 -0.10980782604E+04  0.11129416510E+04  0.16979473110E+03 0.  0.
        -24    2    3    3    0    0 -0.12152100353E+02  0.17339246690E+02 -0.23901131155E+03  0.25262112132E+03  0.79010764270E+02 0.  0.
          6    2    1    2  501    0  0.64673570420E+01 -0.63175746737E+02  0.14234046361E+02  0.18176566254E+03  0.16971489716E+03 0.  0.
         24    2    5    5    0    0 -0.22080182165E+02  0.52300105324E+01  0.50838111583E+02  0.98963143173E+02  0.81818718290E+02 0.  0.
          5    1    5    5  501    0  0.28547539207E+02 -0.68405757269E+02 -0.36604065222E+02  0.82802519365E+02  0.47000000000E+01 0. -1.
        -13    1    6    6    0    0 -0.40713131154E+02  0.30470729970E+02  0.43073194665E+02  0.66643263215E+02  0.00000000000E+00 0.  1.
         14    1    6    6    0    0  0.18632948989E+02 -0.25240719437E+02  0.77649169180E+01  0.32319879958E+02  0.00000000000E+00 0. -1.
         -5    1    3    3    0  503  0.56847433112E+01  0.45836500047E+02 -0.85906694889E+03  0.86032052964E+03  0.47000000000E+01 0.  1.
         11    1    4    4    0    0  0.67292602419E+01 -0.30045500424E+02 -0.90504673207E+02  0.95598697226E+02  0.00000000000E+00 0. -1.
        -12    1    4    4    0    0 -0.18881360595E+02  0.47384747113E+02 -0.14850663834E+03  0.15702242410E+03  0.00000000000E+00 0.  1.
</event>
<event>
12    1  0.1597826E-001  0.2144164E+03  0.7818608E-02  0.1138367E+00
         21   -1    0    0  501  502  0.00000000000E+00  0.00000000000E+00  0.75686055295E+02  0.75686055295E+02  0.00000000000E+00 0.  1.
         21   -1    0    0  502  503 -0.00000000000E+00 -0.00000000000E+00 -0.18731956785E+04  0.18731956785E+04  0.00000000000E+00 0. -1.
         -6    2    1    2    0  503  0.12275266940E+03 -0.31455690109E+02 -0.17000482435E+04  0.17133544629E+04  0.17135287235E+03 0.  0.
        -24    2    3    3    0    0  0.14198087446E+03 -0.53555724643E+02 -0.16027018447E+04  0.16115873426E+04  0.74389351497E+02 0.  0.
          6    2    1    2  501    0 -0.12275266940E+03  0.31455690109E+02 -0.97461379654E+02  0.23552727089E+03  0.17296443717E+03 0.  0.
         24    2    5    5    0    0 -0.68155161455E+02  0.41000725458E+02  0.11158138056E+02  0.11349331987E+03  0.80187555707E+02 0.  0.
          5    1    5    5  501    0 -0.54597507945E+02 -0.95450353487E+01 -0.10861951771E+03  0.12203395102E+03  0.47000000000E+01 0. -1.
        -11    1    6    6    0    0 -0.21068386065E+02  0.49618821940E+02 -0.18720896799E+02  0.57064668221E+02  0.00000000000E+00 0.  1.
         12    1    6    6    0    0 -0.47086775390E+02 -0.86180964825E+01  0.29879034855E+02  0.56428651654E+02  0.00000000000E+00 0. -1.
         -5    1    3    3    0  503 -0.19228205059E+02  0.22100034534E+02 -0.97346398855E+02  0.10176712026E+03  0.47000000000E+01 0.  1.
         13    1    4    4    0    0  0.22662392231E+02 -0.14203751160E+02 -0.66102950135E+03  0.66157035319E+03  0.00000000000E+00 0. -1.
        -14    1    4    4    0    0  0.11931848223E+03 -0.39351973483E+02 -0.94167234331E+03  0.95001698941E+03  0.00000000000E+00 0.  1.
</event>
<event>
12    1  0.1597826E-001  0.1743479E+03  0.7818608E-02  0.1173806E+00
         21   -1    0    0  501  502  0.00000000000E+00  0.00000000000E+00  0.37238424916E+03  0.37238424916E+03  0.00000000000E+00 0. -1.
         21   -1    0    0  502  503 -0.00000000000E+00 -0.00000000000E+00 -0.81117624554E+02  0.81117624554E+02  0.00000000000E+00 0. -1.
         -6    2    1    2    0  503 -0.92990654184E+01 -0.28363259307E+02  0.13350654695E+03  0.21959323407E+03  0.17177381429E+03 0.  0.
        -24    2    3    3    0    0  0.36754651907E+02 -0.33054761824E+02  0.14416858537E+03  0.17185725038E+03  0.79415437943E+02 0.  0.
          6    2    1    2  501    0  0.92990654184E+01  0.28363259307E+02  0.15776007766E+03  0.23390863965E+03  0.17010015433E+03 0.  0.
         24    2    5    5    0    0 -0.48045611005E+02  0.52668086979E+02  0.12128096973E+03  0.16157640701E+03  0.79470457163E+02 0.  0.
          5    1    5    5  501    0  0.57344676423E+02 -0.24304827672E+02  0.36479107929E+02  0.72332232632E+02  0.47000000000E+01 0. -1.
        -11    1    6    6    0    0  0.17622338835E+01  0.55918347532E+02  0.53581663593E+02  0.77465874631E+02  0.00000000000E+00 0.  1.
         12    1    6    6    0    0 -0.49807844888E+02 -0.32502605534E+01  0.67699306137E+02  0.84110532382E+02  0.00000000000E+00 0. -1.
         -5    1    3    3    0  503 -0.46053717325E+02  0.46915025171E+01 -0.10662038426E+02  0.47735983689E+02  0.47000000000E+01 0.  1.
         13    1    4    4    0    0  0.32398776112E+02  0.20851256395E+02  0.72155287461E+02  0.81797561672E+02  0.00000000000E+00 0. -1.
        -14    1    4    4    0    0  0.43558757946E+01 -0.53906018218E+02  0.72013297912E+02  0.90059688708E+02  0.00000000000E+00 0.  1.
</event>
<event>
12    1  0.1597826E-001  0.2405465E+03  0.7818608E-02  0.1119588E+00
         21   -1    0    0  503  502  0.00000000000E+00  0.00000000000E+00  0.25852661467E+03  0.25852661467E+03  0.00000000000E+00 0.  1.
         21   -1    0    0  501  503 -0.00000000000E+00 -0.00000000000E+00 -0.24039379812E+03  0.24039379812E+03  0.00000000000E+00 0.  1.
          6    2    1    2  501    0  0.93313988654E+02 -0.13967178905E+03 -0.58185114437E+02  0.24655753163E+03  0.17084905539E+03 0.  0.
         24    2    3    3    0    0 -0.18938927260E+02 -0.56064283678E+02 -0.21329371766E+02  0.10174258816E+03  0.79967026170E+02 0.  0.
         -6    2    1    2    0  502 -0.93313988654E+02  0.13967178905E+03  0.76317930982E+02  0.25236288116E+03  0.17218271708E+03 0.  0.
        -24    2    5    5    0    0 -0.49973128507E+02  0.72738377348E+02 -0.25494313110E+02  0.12295525075E+03  0.81730340601E+02 0.  0.
          5    1    3    3  501    0  0.11225291591E+03 -0.83607505372E+02 -0.36855742671E+02  0.14481494347E+03  0.47000000000E+01 0. -1.
        -11    1    4    4    0    0  0.30698251233E+02 -0.23849097820E+02 -0.96891962240E-01  0.38873789159E+02  0.00000000000E+00 0.  1.
         12    1    4    4    0    0 -0.49637178492E+02 -0.32215185858E+02 -0.21232479804E+02  0.62868798996E+02  0.00000000000E+00 0. -1.
         -5    1    5    5    0  502 -0.43340860147E+02  0.66933411702E+02  0.10181224409E+03  0.12940763041E+03  0.47000000000E+01 0.  1.
         11    1    6    6    0    0  0.20964161731E+02  0.81592413381E+01 -0.13608231400E+02  0.26291695611E+02  0.00000000000E+00 0. -1.
        -12    1    6    6    0    0 -0.70937290238E+02  0.64579136010E+02 -0.11886081711E+02  0.96663555141E+02  0.00000000000E+00 0.  1.
</event>
<event>
12    1  0.1597826E-001  0.2194570E+03  0.7818608E-02  0.1134452E+00
         21   -1    0    0  501  502  0.00000000000E+00  0.00000000000E+00  0.36164107591E+02  0.36164107591E+02  0.00000000000E+00 0.  1.
         21   -1    0    0  502  503 -0.00000000000E+00 -0.00000000000E+00 -0.18297733749E+04  0.18297733749E+04  0.00000000000E+00 0.  1.
         -6    2    1    2    0  503 -0.13365379026E+03 -0.19710809150E+02 -0.13874138917E+04  0.14046631932E+04  0.17294371259E+03 0.  0.
        -24    2    3    3    0    0 -0.10980740843E+03  0.49067875816E+02 -0.96386746801E+03  0.97488089892E+03  0.82987636487E+02 0.  0.
          6    2    1    2  501    0  0.13365379026E+03  0.19710809150E+02 -0.40619537560E+03  0.46127428931E+03  0.17183548869E+03 0.  0.
         24    2    5    5    0    0  0.20626305645E+02 -0.17512128992E+02 -0.86742701607E+02  0.12034488265E+03  0.78908018303E+02 0.  0.
          5    1    5    5  501    0  0.11302748461E+03  0.37222938142E+02 -0.31945267399E+03  0.34092940666E+03  0.47000000000E+01 0. -1.
        -11    1    6    6    0    0  0.47666935332E+02 -0.21725228444E+02 -0.72639110391E+02  0.89557593945E+02  0.00000000000E+00 0.  1.
         12    1    6    6    0    0 -0.27040629687E+02  0.42130994511E+01 -0.14103591216E+02  0.30787288709E+02  0.00000000000E+00 0. -1.
         -5    1    3    3    0  503 -0.23846381829E+02 -0.68778684966E+02 -0.42354642368E+03  0.42978229424E+03  0.47000000000E+01 0.  1.
         13    1    4    4    0    0 -0.19230018282E+02 -0.15985844806E+02 -0.75320852226E+02  0.79363540857E+02  0.00000000000E+00 0. -1.
        -14    1    4    4    0    0 -0.90577390145E+02  0.65053720623E+02 -0.88854661578E+03  0.89551735806E+03  0.00000000000E+00 0.  1.
</event>
<event>
12    1  0.1597826E-001  0.3224489E+03  0.7818608E-02  0.1074563E+00
         21   -1    0    0  503  502  0.00000000000E+00  0.00000000000E+00  0.70053761789E+03  0.70053761789E+03  0.00000000000E+00 0. -1.
         21   -1    0    0  501  503 -0.00000000000E+00 -0.00000000000E+00 -0.18676015235E+03  0.18676015235E+03  0.00000000000E+00 0.  1.
          6    2    1    2  501    0  0.11787218191E+03 -0.24544921295E+03  0.45818218029E+03  0.56009119120E+03  0.17213966630E+03 0.  0.
         24    2    3    3    0    0  0.95984998710E+02 -0.11783011047E+03  0.19593789139E+03  0.26758505251E+03  0.10056365215E+03 0.  0.
         -6    2    1    2    0  502 -0.11787218191E+03  0.24544921295E+03  0.55595285246E+02  0.32720657905E+03  0.17272562700E+03 0.  0.
        -24    2    5    5    0    0  0.68610719297E+01  0.10341725562E+03  0.28940852509E+01  0.13091351244E+03  0.79923519331E+02 0.  0.
          5    1    3    3  501    0  0.21887183197E+02 -0.12761910248E+03  0.26224428890E+03  0.29250613869E+03  0.47000000000E+01 0. -1.
        -13    1    4    4    0    0 -0.20626234988E+02 -0.24761855591E+02  0.25693856387E+02  0.41216080820E+02  0.00000000000E+00 0.  1.
         14    1    4    4    0    0  0.11661123370E+03 -0.93068254879E+02  0.17024403500E+03  0.22636897169E+03  0.00000000000E+00 0. -1.
         -5    1    5    5    0  502 -0.12473325384E+03  0.14203195733E+03  0.52701199995E+02  0.19629306660E+03  0.47000000000E+01 0.  1.
         13    1    6    6    0    0 -0.28816213646E+01  0.37694696217E+02 -0.37424965790E+02  0.53196070616E+02  0.00000000000E+00 0. -1.
        -14    1    6    6    0    0  0.97426932943E+01  0.65722559403E+02  0.40319051041E+02  0.77717441825E+02  0.00000000000E+00 0.  1.
</event>
<event>
12    1  0.1597826E-001  0.1939489E+03  0.7818608E-02  0.1156429E+00
         21   -1    0    0  503  502  0.00000000000E+00  0.00000000000E+00  0.17380625218E+03  0.17380625218E+03  0.00000000000E+00 0. -1.
         21   -1    0    0  501  503 -0.00000000000E+00 -0.00000000000E+00 -0.26928855299E+03  0.26928855299E+03  0.00000000000E+00 0. -1.
          6    2    1    2  501    0  0.80339246298E+02  0.51083322217E+02 -0.15311610234E+03  0.24710468392E+03  0.16897421021E+03 0.  0.
         24    2    3    3    0    0  0.11707304376E+02  0.33742652213E+02 -0.11114637232E+02  0.88367327323E+02  0.80060113810E+02 0.  0.
         -6    2    1    2    0  502 -0.80339246298E+02 -0.51083322217E+02  0.57633801526E+02  0.19599012125E+03  0.16132753095E+03 0.  0.
        -24    2    5    5    0    0 -0.87337461770E+01 -0.54370205375E+02 -0.91624321217E+01  0.97898439243E+02  0.80422364359E+02 0.  0.
          5    1    3    3  501    0  0.68631941922E+02  0.17340670004E+02 -0.14200146510E+03  0.15873735660E+03  0.47000000000E+01 0. -1.
        -11    1    4    4    0    0  0.87523819648E+00  0.51761430955E+02 -0.30233029920E+02  0.59950378436E+02  0.00000000000E+00 0.  1.
         12    1    4    4    0    0  0.10832066180E+02 -0.18018778743E+02  0.19118392688E+02  0.28416948887E+02  0.00000000000E+00 0. -1.
         -5    1    5    5    0  502 -0.71605500121E+02  0.32868831583E+01  0.66796233647E+02  0.98091682002E+02  0.47000000000E+01 0.  1.
         13    1    6    6    0    0 -0.62561600568E+01  0.20813209654E+02  0.21058520048E+01  0.21834922657E+02  0.00000000000E+00 0. -1.
        -14    1    6    6    0    0 -0.24775861201E+01 -0.75183415029E+02 -0.11268284126E+02  0.76063516587E+02  0.00000000000E+00 0.  1.
</event>
<event>
12    1  0.1597826E-001  0.1744514E+03  0.7818608E-02  0.1173503E+00
         21   -1    0    0  501  502  0.00000000000E+00  0.00000000000E+00  0.31958921765E+03  0.31958921765E+03  0.00000000000E+00 0. -1.
         21   -1    0    0  502  503 -0.00000000000E+00 -0.00000000000E+00 -0.27065177793E+03  0.27065177793E+03  0.00000000000E+00 0. -1.
         -6    2    1    2    0  503 -0.24156140603E+02 -0.38773753050E+01 -0.21346952761E+03  0.27513671285E+03  0.17184998799E+03 0.  0.
        -24    2    3    3    0    0 -0.19432593193E+02  0.60834318004E+02 -0.16468675484E+03  0.19382395819E+03  0.79796990064E+02 0.  0.
          6    2    1    2  501    0  0.24156140603E+02  0.38773753050E+01  0.26240696733E+03  0.31510428273E+03  0.17272735546E+03 0.  0.
         24    2    5    5    0    0  0.17923051880E+02 -0.60726629982E+02  0.11799334168E+03  0.15670632136E+03  0.81397070551E+02 0.  0.
          5    1    5    5  501    0  0.62330887233E+01  0.64604005287E+02  0.14441362565E+03  0.15839796137E+03  0.47000000000E+01 0. -1.
        -13    1    6    6    0    0  0.41935993033E+02 -0.44825006259E+02  0.11135130250E+03  0.12714960191E+03  0.00000000000E+00 0.  1.
         14    1    6    6    0    0 -0.24012941153E+02 -0.15901623723E+02  0.66420391804E+01  0.29556719444E+02  0.00000000000E+00 0. -1.
         -5    1    3    3    0  503 -0.47235474102E+01 -0.64711693309E+02 -0.48782772760E+02  0.81312754653E+02  0.47000000000E+01 0.  1.
         13    1    4    4    0    0 -0.12871397927E+02  0.26294052419E+02 -0.15445856429E+03  0.15720845448E+03  0.00000000000E+00 0. -1.
        -14    1    4    4    0    0 -0.65611952662E+01  0.34540265585E+02 -0.10228190550E+02  0.36615503710E+02  0.00000000000E+00 0.  1.
</event>
<event>
12    1  0.1597826E-001  0.2640288E+03  0.7818608E-02  0.1104875E+00
         21   -1    0    0  503  502  0.00000000000E+00  0.00000000000E+00  0.43415075152E+03  0.43415075152E+03  0.00000000000E+00 0. -1.
         21   -1    0    0  501  503 -0.00000000000E+00 -0.00000000000E+00 -0.27852427842E+03  0.27852427842E+03  0.00000000000E+00 0.  1.
          6    2    1    2  501    0 -0.18704705931E+03  0.69706080563E+02 -0.15452456276E+03  0.30592325426E+03  0.17281683059E+03 0.  0.
         24    2    3    3    0    0 -0.16550960409E+03  0.87296130855E+02 -0.67450293508E+02  0.21439571626E+03  0.80012108750E+02 0.  0.
         -6    2    1    2    0  502  0.18704705931E+03 -0.69706080563E+02  0.31015103587E+03  0.40675177568E+03  0.17148703131E+03 0.  0.
        -24    2    5    5    0    0  0.13054543064E+03 -0.14923848069E+02  0.10504950065E+03  0.18701953683E+03  0.81707275500E+02 0.  0.
          5    1    3    3  501    0 -0.21537455216E+02 -0.17590050292E+02 -0.87074269255E+02  0.91527538002E+02  0.47000000000E+01 0. -1.
        -11    1    4    4    0    0 -0.51068036046E+02  0.44375307594E+02  0.11870135814E+02  0.68687788972E+02  0.00000000000E+00 0.  1.
         12    1    4    4    0    0 -0.11444156804E+03  0.42920823261E+02 -0.79320429322E+02  0.14570792728E+03  0.00000000000E+00 0. -1.
         -5    1    5    5    0  502  0.56501628670E+02 -0.54782232494E+02  0.20510153522E+03  0.21973223885E+03  0.47000000000E+01 0.  1.
         11    1    6    6    0    0  0.12256797322E+03 -0.80857015457E+00  0.11493611576E+03  0.16802938002E+03  0.00000000000E+00 0. -1.
        -12    1    6    6    0    0  0.79774574184E+01 -0.14115277914E+02 -0.98866151098E+01  0.18990156813E+02  0.00000000000E+00 0.  1.
</event>
<event>
12    1  0.1597826E-001  0.1986238E+03  0.7818608E-02  0.1151422E+00
         21   -1    0    0  503  502  0.00000000000E+00  0.00000000000E+00  0.72660611039E+02  0.72660611039E+02  0.00000000000E+00 0.  1.
         21   -1    0    0  501  503 -0.00000000000E+00 -0.00000000000E+00 -0.55766238620E+03  0.55766238620E+03  0.00000000000E+00 0.  1.
          6    2    1    2  501    0 -0.93312534233E+02  0.30089685695E+02 -0.30263553130E+03  0.36067717040E+03  0.16996216701E+03 0.  0.
         24    2    3    3    0    0  0.65922221769E+01  0.51783924370E+01 -0.19789623360E+03  0.21372839236E+03  0.80290929051E+02 0.  0.
         -6    2    1    2    0  502  0.93312534233E+02 -0.30089685695E+02 -0.18236624386E+03  0.26964582683E+03  0.17273912932E+03 0.  0.
        -24    2    5    5    0    0 -0.19402679826E+02 -0.17528942385E+02 -0.61106390201E+02  0.10354786218E+03  0.79400510282E+02 0.  0.
          5    1    3    3  501    0 -0.99904756409E+02  0.24911293258E+02 -0.10473929770E+03  0.14694877804E+03  0.47000000000E+01 0. -1.
        -11    1    4    4    0    0 -0.34958432457E+02  0.14590816705E+02 -0.10144467315E+03  0.10828668267E+03  0.00000000000E+00 0.  1.
         12    1    4    4    0    0  0.41550654634E+02 -0.94124242676E+01 -0.96451560444E+02  0.10544170969E+03  0.00000000000E+00 0. -1.
         -5    1    5    5    0  502  0.11271521406E+03 -0.12560743309E+02 -0.12125985366E+03  0.16609796465E+03  0.47000000000E+01 0.  1.
         13    1    6    6    0    0 -0.11889890224E+02 -0.21419009880E+02 -0.79560599235E+02  0.83246816301E+02  0.00000000000E+00 0. -1.
        -14    1    6    6    0    0 -0.75127896017E+01  0.38900674944E+01  0.18454209034E+02  0.20301045879E+02  0.00000000000E+00 0.  1.
</event>
<event>
12    1  0.1597826E-001  0.2169664E+03  0.7818608E-02  0.1136441E+00
         21   -1    0    0  501  502  0.00000000000E+00  0.00000000000E+00  0.91545907558E+02  0.91545907558E+02  0.00000000000E+00 0. -1.
         21   -1    0    0  502  503 -0.00000000000E+00 -0.00000000000E+00 -0.53013347534E+03  0.53013347534E+03  0.00000000000E+00 0. -1.
         -6    2    1    2    0  503 -0.11765027546E+03  0.57806729401E+02 -0.27937773846E+03  0.35373200426E+03  0.17289073085E+03 0.  0.
        -24    2    3    3    0    0 -0.15316526742E+03  0.50302102224E+02 -0.22862105301E+03  0.29115433092E+03  0.80705377141E+02 0.  0.
          6    2    1    2  501    0  0.11765027546E+03 -0.57806729401E+02 -0.15920982933E+03  0.26794737864E+03  0.17106964280E+03 0.  0.
         24    2    5    5    0    0  0.11064954355E+03 -0.11115285238E+02 -0.48702316819E+02  0.14768474302E+03  0.84095163975E+02 0.  0.
          5    1    5    5  501    0  0.70007319075E+01 -0.46691444164E+02 -0.11050751251E+03  0.12026263562E+03  0.47000000000E+01 0. -1.
        -13    1    6    6    0    0  0.26145326793E+02  0.15094445298E+02 -0.50902616952E+02  0.59181895919E+02  0.00000000000E+00 0.  1.
         14    1    6    6    0    0  0.84504216758E+02 -0.26209730536E+02  0.22003001329E+01  0.88502847103E+02  0.00000000000E+00 0. -1.
         -5    1    3    3    0  503  0.35514991965E+02  0.75046271778E+01 -0.50756685445E+02  0.62577673341E+02  0.47000000000E+01 0.  1.
         11    1    4    4    0    0 -0.94844975809E+02  0.60740923032E+02 -0.10459981603E+03  0.15370800461E+03  0.00000000000E+00 0. -1.
        -12    1    4    4    0    0 -0.58320291614E+02 -0.10438820808E+02 -0.12402123698E+03  0.13744632631E+03  0.00000000000E+00 0.  1.
</event>
<event>
12    1  0.1597826E-001  0.2033469E+03  0.7818608E-02  0.1147242E+00
         21   -1    0    0  501  502  0.00000000000E+00  0.00000000000E+00  0.16685380492E+04  0.16685380492E+04  0.00000000000E+00 0. -1.
         21   -1    0    0  502  503 -0.00000000000E+00 -0.00000000000E+00 -0.24822522374E+02  0.24822522374E+02  0.00000000000E+00 0. -1.
         -6    2    1    2    0  503  0.32087045603E+02  0.10402701232E+03  0.74025140984E+03  0.76729503509E+03  0.17005388357E+03 0.  0.
        -24    2    3    3    0    0  0.57770016227E+02  0.65283160079E+02  0.34039263550E+03  0.36471606087E+03  0.97731228327E+02 0.  0.
          6    2    1    2  501    0 -0.32087045603E+02 -0.10402701232E+03  0.90346411696E+03  0.92606553645E+03  0.17175205790E+03 0.  0.
         24    2    5    5    0    0  0.30720508027E+02 -0.10770995398E+03  0.68515480947E+03  0.69882250227E+03  0.79815994206E+02 0.  0.
          5    1    5    5  501    0 -0.62807553630E+02  0.36829416686E+01  0.21830930748E+03  0.22724303419E+03  0.47000000000E+01 0. -1.
        -11    1    6    6    0    0 -0.17691365281E+01 -0.67681423006E+02  0.20462170361E+03  0.21553177597E+03  0.00000000000E+00 0.  1.
         12    1    6    6    0    0  0.32489644555E+02 -0.40028530978E+02  0.48053310587E+03  0.48329072630E+03  0.00000000000E+00 0. -1.
         -5    1    3    3    0  503 -0.25682970624E+02  0.38743852237E+02  0.39985877434E+03  0.40257897422E+03  0.47000000000E+01 0.  1.
         11    1    4    4    0    0  0.19458242416E+02  0.82454352774E+02  0.18033448654E+03  0.19924324461E+03  0.00000000000E+00 0. -1.
        -12    1    4    4    0    0  0.38311773811E+02 -0.17171192695E+02  0.16005814897E+03  0.16547281626E+03  0.00000000000E+00 0.  1.
</event>
<event>
12    1  0.1597826E-001  0.3037487E+03  0.7818608E-02  0.1084475E+00
         21   -1    0    0  503  502  0.00000000000E+00  0.00000000000E+00  0.18445859538E+03  0.18445859538E+03  0.00000000000E+00 0.  1.
         21   -1    0    0  501  503 -0.00000000000E+00 -0.00000000000E+00 -0.57328925960E+03  0.57328925960E+03  0.00000000000E+00 0.  1.
          6    2    1    2  501    0 -0.19228035734E+03  0.14343040488E+03 -0.33993795697E+03  0.45008930681E+03  0.17169319337E+03 0.  0.
         24    2    3    3    0    0 -0.12973062188E+03  0.16072956901E+03 -0.21858158070E+03  0.31238966793E+03  0.84530282137E+02 0.  0.
         -6    2    1    2    0  502  0.19228035734E+03 -0.14343040488E+03 -0.48892707243E+02  0.30765854817E+03  0.18633107249E+03 0.  0.
        -24    2    5    5    0    0  0.72026785584E+02 -0.92244068722E+02 -0.91789903268E+02  0.17002417035E+03  0.82377218370E+02 0.  0.
          5    1    3    3  501    0 -0.62549735463E+02 -0.17299164134E+02 -0.12135637627E+03  0.13769963888E+03  0.47000000000E+01 0. -1.
        -13    1    4    4    0    0 -0.12549220204E+03  0.10375357489E+03 -0.18358121819E+03  0.24538777628E+03  0.00000000000E+00 0.  1.
         14    1    4    4    0    0 -0.42384198447E+01  0.56975994120E+02 -0.35000362510E+02  0.67001891649E+02  0.00000000000E+00 0. -1.
         -5    1    5    5    0  502  0.12025357176E+03 -0.51186336157E+02  0.42897196025E+02  0.13763437782E+03  0.47000000000E+01 0.  1.
         11    1    6    6    0    0  0.10088542320E+02  0.48328814720E+01 -0.43911596124E+02  0.45314056358E+02  0.00000000000E+00 0. -1.
        -12    1    6    6    0    0  0.61938243264E+02 -0.97076950194E+02 -0.47878307143E+02  0.12471011399E+03  0.00000000000E+00 0.  1.
</event>
<event>
12    1  0.1597826E-001  0.2296033E+03  0.7818608E-02  0.1126980E+00
         21   -1    0    0  503  502  0.00000000000E+00  0.00000000000E+00  0.12470119648E+03  0.12470119648E+03  0.00000000000E+00 0. -1.
         21   -1    0    0  501  503 -0.00000000000E+00 -0.00000000000E+00 -0.59497902559E+03  0.59497902559E+03  0.00000000000E+00 0.  1.
          6    2    1    2  501    0 -0.15000876952E+03 -0.23295964511E+02 -0.42922141843E+03  0.48677375409E+03  0.17225657823E+03 0.  0.
         24    2    3    3    0    0 -0.13489281432E+03 -0.75766804904E+02 -0.30579159038E+03  0.35172304641E+03  0.79144959097E+02 0.  0.
         -6    2    1    2    0  502  0.15000876952E+03  0.23295964511E+02 -0.41056410689E+02  0.23290646797E+03  0.17179773302E+03 0.  0.
        -24    2    5    5    0    0  0.70611617681E+02  0.35917288571E+02  0.41556598949E+02  0.11753660665E+03  0.76235495779E+02 0.  0.
          5    1    3    3  501    0 -0.15115955197E+02  0.52470840393E+02 -0.12342982805E+03  0.13505070768E+03  0.47000000000E+01 0. -1.
        -13    1    4    4    0    0  0.41686226684E+00  0.53264325609E+01 -0.56238207804E+02  0.56491421251E+02  0.00000000000E+00 0.  1.
         14    1    4    4    0    0 -0.13530967659E+03 -0.81093237465E+02 -0.24955338257E+03  0.29523162516E+03  0.00000000000E+00 0. -1.
         -5    1    5    5    0  502  0.79397151836E+02 -0.12621324060E+02 -0.82613009638E+02  0.11536986132E+03  0.47000000000E+01 0.  1.
         11    1    6    6    0    0  0.67703388176E+02 -0.50090348129E+01  0.18035726119E+02  0.70243338595E+02  0.00000000000E+00 0. -1.
        -12    1    6    6    0    0  0.29082295047E+01  0.40926323384E+02  0.23520872830E+02  0.47293268055E+02  0.00000000000E+00 0.  1.
</event>
<event>
12    1  0.1597826E-001  0.2025782E+03  0.7818608E-02  0.1147690E+00
         21   -1    0    0  503  502  0.00000000000E+00  0.00000000000E+00  0.96589014097E+03  0.96589014097E+03  0.00000000000E+00 0.  1.
         21   -1    0    0  501  503 -0.00000000000E+00 -0.00000000000E+00 -0.13693813222E+03  0.13693813222E+03  0.00000000000E+00 0. -1.
          6    2    1    2  501    0 -0.38091314223E+02  0.98707143294E+02 -0.43574313795E+02  0.20721162065E+03  0.17275383224E+03 0.  0.
         24    2    3    3    0    0 -0.76705676326E+02  0.55181673343E+02  0.14341021128E+02  0.12498138586E+03  0.80535110793E+02 0.  0.
         -6    2    1    2    0  502  0.38091314223E+02 -0.98707143294E+02  0.87252632254E+03  0.89561665253E+03  0.17214225632E+03 0.  0.
        -24    2    5    5    0    0  0.13939499567E+02 -0.47961264919E+01  0.20497809770E+03  0.22104618793E+03  0.81413046767E+02 0.  0.
          5    1    3    3  501    0  0.38614362103E+02  0.43525469951E+02 -0.57915334923E+02  0.82230234795E+02  0.47000000000E+01 0. -1.
        -11    1    4    4    0    0 -0.63403965020E+02  0.21904726971E+02  0.42494558324E+02  0.79408232137E+02  0.00000000000E+00 0.  1.
         12    1    4    4    0    0 -0.13301711306E+02  0.33276946372E+02 -0.28153537196E+02  0.45573153721E+02  0.00000000000E+00 0. -1.
         -5    1    5    5    0  502  0.24151814656E+02 -0.93911016802E+02  0.66754822484E+03  0.67457046460E+03  0.47000000000E+01 0.  1.
         13    1    6    6    0    0  0.25192356492E+02 -0.31620715265E+02  0.54929639956E+02  0.68204030711E+02  0.00000000000E+00 0. -1.
        -14    1    6    6    0    0 -0.11252856925E+02  0.26824588773E+02  0.15004845775E+03  0.15284215722E+03  0.00000000000E+00 0.  1.
</event>
<event>
12    1  0.1597826E-001  0.2055173E+03  0.7818608E-02  0.1145177E+00
         21   -1    0    0  501  502  0.00000000000E+00  0.00000000000E+00  0.23283006854E+03  0.23283006854E+03  0.00000000000E+00 0. -1.
         21   -1    0    0  502  503 -0.00000000000E+00 -0.00000000000E+00 -0.19277854929E+03  0.19277854929E+03  0.00000000000E+00 0. -1.
         -6    2    1    2    0  503  0.10103172811E+03 -0.51729639934E+02 -0.31768464588E+02  0.20790359370E+03  0.17126384090E+03 0.  0.
        -24    2    3    3    0    0  0.55021407355E+02 -0.99314259777E+02 -0.17222436096E+02  0.13997037203E+03  0.80027590733E+02 0.  0.
          6    2    1    2  501    0 -0.10103172811E+03  0.51729639934E+02  0.71819983837E+02  0.21770502413E+03  0.17133009578E+03 0.  0.
         24    2    5    5    0    0 -0.99618922400E+02 -0.21394165150E+02  0.62189586725E+02  0.14378668109E+03  0.80158748481E+02 0.  0.
          5    1    5    5  501    0 -0.14128057119E+01  0.73123805084E+02  0.96303971110E+01  0.73918343044E+02  0.47000000000E+01 0. -1.
        -11    1    6    6    0    0 -0.37650398732E+02 -0.36149234144E+02  0.60718072433E+02  0.80068745300E+02  0.00000000000E+00 0.  1.
         12    1    6    6    0    0 -0.61968523668E+02  0.14755068994E+02  0.14715142925E+01  0.63717935787E+02  0.00000000000E+00 0. -1.
         -5    1    3    3    0  503  0.46010320757E+02  0.47584619844E+02 -0.14546028492E+02  0.67933221672E+02  0.47000000000E+01 0.  1.
         11    1    4    4    0    0  0.56906995446E+02 -0.10511756919E+03 -0.32202981122E+02  0.12379475545E+03  0.00000000000E+00 0. -1.
        -12    1    4    4    0    0 -0.18855880906E+01  0.58033094112E+01  0.14980545026E+02  0.16175616583E+02  0.00000000000E+00 0.  1.
</event>
<event>
12    1  0.1597826E-001  0.2141278E+03  0.7818608E-02  0.1138619E+00
         21   -1    0    0  503  502  0.00000000000E+00  0.00000000000E+00  0.25517541800E+03  0.25517541800E+03  0.00000000000E+00 0.  1.
         21   -1    0    0  501  503 -0.00000000000E+00 -0.00000000000E+00 -0.17925470324E+03  0.17925470324E+03  0.00000000000E+00 0.  1.
          6    2    1    2  501    0  0.11306930272E+03  0.56062849654E+02  0.23708989844E+02  0.21543640249E+03  0.17298270719E+03 0.  0.
         24    2    3    3    0    0  0.92606199661E+02 -0.31831057921E+01  0.65848983389E+02  0.13976149991E+03  0.81308965477E+02 0.  0.
         -6    2    1    2    0  502 -0.11306930272E+03 -0.56062849654E+02  0.52211724918E+02  0.21899371875E+03  0.17118549677E+03 0.  0.
        -24    2    5    5    0    0 -0.41023669242E+01 -0.25132833362E+02  0.67237036351E+02  0.10463328421E+03  0.76018526555E+02 0.  0.
          5    1    3    3  501    0  0.20463103063E+02  0.59245955446E+02 -0.42139993545E+02  0.75674902574E+02  0.47000000000E+01 0. -1.
        -11    1    4    4    0    0  0.15411763767E+02 -0.13118108045E+02  0.58125370156E+02  0.61548077767E+02  0.00000000000E+00 0.  1.
         12    1    4    4    0    0  0.77194435893E+02  0.99350022534E+01  0.77236132337E+01  0.78213422148E+02  0.00000000000E+00 0. -1.
         -5    1    5    5    0  502 -0.10896693580E+03 -0.30930016291E+02 -0.15025311434E+02  0.11436043454E+03  0.47000000000E+01 0.  1.
         11    1    6    6    0    0 -0.26400213954E+02  0.16717040213E+02  0.36840246008E+02  0.48307705972E+02  0.00000000000E+00 0. -1.
        -12    1    6    6    0    0  0.22297847030E+02 -0.41849873575E+02  0.30396790343E+02  0.56325578236E+02  0.00000000000E+00 0.  1.
</event>
<event>
12    1  0.1597826E-001  0.2130729E+03  0.7818608E-02  0.1139259E+00
         21   -1    0    0  501  502  0.00000000000E+00  0.00000000000E+00  0.89250885550E+03  0.89250885550E+03  0.00000000000E+00 0.  1.
         21   -1    0    0  502  503 -0.00000000000E+00 -0.00000000000E+00 -0.50769261428E+02  0.50769261428E+02  0.00000000000E+00 0.  1.
         -6    2    1    2    0  503  0.12541816461E+03 -0.75341344162E+01  0.41018309619E+03  0.46222312840E+03  0.17208593445E+03 0.  0.
        -24    2    3    3    0    0  0.83643808232E+00 -0.19869654019E+02  0.12153043018E+03  0.14755628360E+03  0.81287813285E+02 0.  0.
          6    2    1    2  501    0 -0.12541816461E+03  0.75341344162E+01  0.43155649788E+03  0.48105498853E+03  0.17142465378E+03 0.  0.
         24    2    5    5    0    0 -0.13807983138E+03  0.11746926875E+02  0.43679621422E+03  0.46596823761E+03  0.84447827550E+02 0.  0.
          5    1    5    5  501    0  0.12661666773E+02 -0.42127924591E+01 -0.52397163400E+01  0.15086750912E+02  0.47000000000E+01 0. -1.
        -11    1    6    6    0    0 -0.10830540279E+03 -0.25227531340E+02  0.34717467808E+03  0.36455005927E+03  0.00000000000E+00 0.  1.
         12    1    6    6    0    0 -0.29774428592E+02  0.36974458215E+02  0.89621536142E+02  0.10141817834E+03  0.00000000000E+00 0. -1.
         -5    1    3    3    0  503  0.12458172653E+03  0.12335519603E+02  0.28865266600E+03  0.31466684481E+03  0.47000000000E+01 0.  1.
         13    1    4    4    0    0 -0.12010159861E+02 -0.45851010064E+02  0.10237370242E+03  0.11281371375E+03  0.00000000000E+00 0. -1.
        -14    1    4    4    0    0  0.12846597943E+02  0.25981356045E+02  0.19156727764E+02  0.34742569843E+02  0.00000000000E+00 0.  1.
</event>
<event>
12    1  0.1597826E-001  0.2575569E+03  0.7818608E-02  0.1108873E+00
         21   -1    0    0  501  502  0.00000000000E+00  0.00000000000E+00  0.23250370609E+03  0.23250370609E+03  0.00000000000E+00 0. -1.
         21   -1    0    0  502  503 -0.00000000000E+00 -0.00000000000E+00 -0.30677539828E+03  0.30677539828E+03  0.00000000000E+00 0. -1.
         -6    2    1    2    0  503  0.18691471512E+03  0.42913464157E+02 -0.11155826737E+03  0.28067920425E+03  0.17192118120E+03 0.  0.
        -24    2    3    3    0    0  0.11268057262E+03  0.22644369634E+01 -0.13498202984E+03  0.19273709844E+03  0.78901214290E+02 0.  0.
          6    2    1    2  501    0 -0.18691471512E+03 -0.42913464157E+02  0.37286575179E+02  0.25859990012E+03  0.16942533317E+03 0.  0.
         24    2    5    5    0    0 -0.35328940089E+02  0.17367372079E+02 -0.19298956933E+02  0.85868782912E+02  0.73832503136E+02 0.  0.
          5    1    5    5  501    0 -0.15158577503E+03 -0.60280836236E+02  0.56585532112E+02  0.17273111721E+03  0.47000000000E+01 0. -1.
        -13    1    6    6    0    0 -0.31351709087E+02 -0.21028099739E+02 -0.27121542066E+02  0.46483208639E+02  0.00000000000E+00 0.  1.
         14    1    6    6    0    0 -0.39772310016E+01  0.38395471819E+02  0.78225851337E+01  0.39385574273E+02  0.00000000000E+00 0. -1.
         -5    1    3    3    0  503  0.74234142501E+02  0.40649027193E+02  0.23423762477E+02  0.87942105804E+02  0.47000000000E+01 0.  1.
         11    1    4    4    0    0  0.93394664571E+02  0.28501972874E+02 -0.70298919294E+02  0.12031983993E+03  0.00000000000E+00 0. -1.
        -12    1    4    4    0    0  0.19285908045E+02 -0.26237535910E+02 -0.64683110549E+02  0.72417258509E+02  0.00000000000E+00 0.  1.
</event>
<event>
12    1  0.1597826E-001  0.2574045E+03  0.7818608E-02  0.1108777E+00
         21   -1    0    0  503  502  0.00000000000E+00  0.00000000000E+00  0.80725717101E+02  0.80725717101E+02  0.00000000000E+00 0. -1.
         21   -1    0    0  501  503 -0.00000000000E+00 -0.00000000000E+00 -0.85421029091E+03  0.85421029091E+03  0.00000000000E+00 0. -1.
          6    2    1    2  501    0 -0.18335942147E+03  0.53471294201E+02 -0.48078293372E+03  0.54515232719E+03  0.17192723385E+03 0.  0.
         24    2    3    3    0    0 -0.56766222781E+02 -0.56266327272E+01 -0.10266080280E+03  0.14201855434E+03  0.79849648093E+02 0.  0.
         -6    2    1    2    0  502  0.18335942147E+03 -0.53471294201E+02 -0.29270164009E+03  0.38978368083E+03  0.17256074577E+03 0.  0.
        -24    2    5    5    0    0  0.15978821284E+02 -0.32241994465E+01 -0.88716699063E+02  0.12113338394E+03  0.80851257386E+02 0.  0.
          5    1    3    3  501    0 -0.12659319869E+03  0.59097926928E+02 -0.37812213091E+03  0.40313377284E+03  0.47000000000E+01 0. -1.
        -11    1    4    4    0    0  0.18531641726E+02 -0.10478915605E+02 -0.33328516093E+02  0.39547685170E+02  0.00000000000E+00 0.  1.
         12    1    4    4    0    0 -0.75297864507E+02  0.48522828777E+01 -0.69332286710E+02  0.10247086917E+03  0.00000000000E+00 0. -1.
         -5    1    5    5    0  502  0.16738060018E+03 -0.50247094754E+02 -0.20398494103E+03  0.26865029689E+03  0.47000000000E+01 0.  1.
         13    1    6    6    0    0  0.40599394469E+02 -0.31073166314E+01 -0.87467664330E+02  0.96480871427E+02  0.00000000000E+00 0. -1.
        -14    1    6    6    0    0 -0.24620573185E+02 -0.11688281509E+00 -0.12490347329E+01  0.24652512515E+02  0.00000000000E+00 0.  1.
</event>
<event>
12    1  0.1597826E-001  0.2107496E+03  0.7818608E-02  0.1141140E+00
         21   -1    0    0  501  502  0.00000000000E+00  0.00000000000E+00  0.22386681706E+03  0.22386681706E+03  0.00000000000E+00 0. -1.
         21   -1    0    0  502  503 -0.00000000000E+00 -0.00000000000E+00 -0.19800660822E+03  0.19800660822E+03  0.00000000000E+00 0. -1.
         -6    2    1    2    0  503  0.17384403524E+02 -0.12060847114E+03  0.34285017128E+01  0.20993341860E+03  0.17091420311E+03 0.  0.
        -24    2    3    3    0    0  0.38710632513E+02  0.65358089190E+01 -0.21155359996E+01  0.80808276403E+02  0.70599378007E+02 0.  0.
          6    2    1    2  501    0 -0.17384403524E+02  0.12060847114E+03  0.22431707127E+02  0.21194000668E+03  0.17194988849E+03 0.  0.
         24    2    5    5    0    0  0.52356494516E+02  0.45648343799E+02 -0.46498213746E+01  0.10592909811E+03  0.79839709279E+02 0.  0.
          5    1    5    5  501    0 -0.69740898040E+02  0.74960127338E+02  0.27081528502E+02  0.10601090857E+03  0.47000000000E+01 0. -1.
        -13    1    6    6    0    0 -0.42791389520E+01  0.38572051444E+02 -0.24037772062E+02  0.45650067562E+02  0.00000000000E+00 0.  1.
         14    1    6    6    0    0  0.56635633468E+02  0.70762923555E+01  0.19387950687E+02  0.60279030547E+02  0.00000000000E+00 0. -1.
         -5    1    3    3    0  503 -0.21326228989E+02 -0.12714428006E+03  0.55440377125E+01  0.12912514220E+03  0.47000000000E+01 0.  1.
         13    1    4    4    0    0  0.35519165079E+02  0.34074874565E+02 -0.13185458779E+02  0.50956496031E+02  0.00000000000E+00 0. -1.
        -14    1    4    4    0    0  0.31914674340E+01 -0.27539065646E+02  0.11069922780E+02  0.29851780372E+02  0.00000000000E+00 0.  1.
</event>
<event>
12    1  0.1597826E-001  0.1970474E+03  0.7818608E-02  0.1152854E+00
         21   -1    0    0  503  502  0.00000000000E+00  0.00000000000E+00  0.80202092657E+03  0.80202092657E+03  0.00000000000E+00 0. -1.
         21   -1    0    0  501  503 -0.00000000000E+00 -0.00000000000E+00 -0.92752716459E+02  0.92752716459E+02  0.00000000000E+00 0. -1.
          6    2    1    2  501    0  0.33125758449E+02  0.90942519370E+02  0.41662203217E+02  0.19869502623E+03  0.16845211952E+03 0.  0.
         24    2    3    3    0    0  0.25131325559E+02  0.51802926888E+02  0.92126755078E+02  0.13416147177E+03  0.78719976807E+02 0.  0.
         -6    2    1    2    0  502 -0.33125758449E+02 -0.90942519370E+02  0.66760600689E+03  0.69607861679E+03  0.17163858137E+03 0.  0.
        -24    2    5    5    0    0 -0.46579690609E+02 -0.31328457320E+02  0.17461435075E+03  0.19929122996E+03  0.77946667910E+02 0.  0.
          5    1    3    3  501    0  0.79944328895E+01  0.39139592482E+02 -0.50464551861E+02  0.64533554461E+02  0.47000000000E+01 0. -1.
        -11    1    4    4    0    0 -0.25109964599E+02  0.12793969202E+02  0.51442129398E+02  0.58655678728E+02  0.00000000000E+00 0.  1.
         12    1    4    4    0    0  0.50241290158E+02  0.39008957686E+02  0.40684625680E+02  0.75505793044E+02  0.00000000000E+00 0. -1.
         -5    1    5    5    0  502  0.13453932160E+02 -0.59614062050E+02  0.49299165615E+03  0.49678738683E+03  0.47000000000E+01 0.  1.
         13    1    6    6    0    0 -0.62917223889E+02 -0.33711927239E+02  0.16593955456E+03  0.18064054602E+03  0.00000000000E+00 0. -1.
        -14    1    6    6    0    0  0.16337533281E+02  0.23834699191E+01  0.86747961880E+01  0.18650683941E+02  0.00000000000E+00 0.  1.
</event>
<event>
12    1  0.1597826E-001  0.1835728E+03  0.7818608E-02  0.1164427E+00
         21   -1    0    0  503  502  0.00000000000E+00  0.00000000000E+00  0.15722126917E+03  0.15722126917E+03  0.00000000000E+00 0. -1.
         21   -1    0    0  501  503 -0.00000000000E+00 -0.00000000000E+00 -0.23692489586E+03  0.23692489586E+03  0.00000000000E+00 0. -1.
          6    2    1    2  501    0 -0.39116351963E+02 -0.47228760661E+02 -0.10093262622E+03  0.20934997187E+03  0.17285650367E+03 0.  0.
         24    2    3    3    0    0 -0.88143152342E+02 -0.13663908486E+02 -0.58863019604E+02  0.13639677963E+03  0.84754402340E+02 0.  0.
         -6    2    1    2    0  502  0.39116351963E+02  0.47228760661E+02  0.21228999536E+02  0.18479619316E+03  0.17302692785E+03 0.  0.
        -24    2    5    5    0    0  0.68985939190E+02 -0.14075863356E+02 -0.12841546230E+02  0.10841987971E+03  0.81441852089E+02 0.  0.
          5    1    3    3  501    0  0.49026800379E+02 -0.33564852174E+02 -0.42069606618E+02  0.72953192239E+02  0.47000000000E+01 0. -1.
        -11    1    4    4    0    0 -0.15390052587E+02  0.20178665244E+02  0.13148880741E+02  0.28581905367E+02  0.00000000000E+00 0.  1.
         12    1    4    4    0    0 -0.72753099755E+02 -0.33842573730E+02 -0.72011900345E+02  0.10781487426E+03  0.00000000000E+00 0. -1.
         -5    1    5    5    0  502 -0.29869587227E+02  0.61304624016E+02  0.34070545766E+02  0.76376313447E+02  0.47000000000E+01 0.  1.
         11    1    6    6    0    0  0.82117619118E+02 -0.22455436854E+01  0.62711662532E+01  0.82387337390E+02  0.00000000000E+00 0. -1.
        -12    1    6    6    0    0 -0.13131679927E+02 -0.11830319671E+02 -0.19112712483E+02  0.26032542321E+02  0.00000000000E+00 0.  1.
</event>
<event>
12    1  0.1597826E-001  0.1995526E+03  0.7818608E-02  0.1151814E+00
         21   -1    0    0  501  502  0.00000000000E+00  0.00000000000E+00  0.26722312129E+03  0.26722312129E+03  0.00000000000E+00 0. -1.
         21   -1    0    0  502  503 -0.00000000000E+00 -0.00000000000E+00 -0.14494721804E+03  0.14494721804E+03  0.00000000000E+00 0.  1.
         -6    2    1    2    0  503  0.32863593894E+02  0.76966325153E+02  0.84893232689E+02  0.21685963503E+03  0.18115575988E+03 0.  0.
        -24    2    3    3    0    0  0.75154941243E+02  0.41399588068E+02  0.10589774770E+03  0.15755676412E+03  0.79041823515E+02 0.  0.
          6    2    1    2  501    0 -0.32863593894E+02 -0.76966325153E+02  0.37382670559E+02  0.19531070431E+03  0.17246731907E+03 0.  0.
         24    2    5    5    0    0 -0.82291877153E+02 -0.70573568814E+02  0.51922350286E+02  0.14318091622E+03  0.77796289440E+02 0.  0.
          5    1    5    5  501    0  0.49428283259E+02 -0.63927563387E+01 -0.14539679727E+02  0.52129788088E+02  0.47000000000E+01 0. -1.
        -11    1    6    6    0    0 -0.47293497785E+02 -0.45813012847E+02 -0.11286291563E+02  0.66804846053E+02  0.00000000000E+00 0.  1.
         12    1    6    6    0    0 -0.34998379368E+02 -0.24760555967E+02  0.63208641849E+02  0.76376070170E+02  0.00000000000E+00 0. -1.
         -5    1    3    3    0  503 -0.42291347348E+02  0.35566737085E+02 -0.21004515014E+02  0.59302870912E+02  0.47000000000E+01 0.  1.
         13    1    4    4    0    0  0.40205913542E+02  0.58317120538E+02  0.92448563887E+02  0.11646518362E+03  0.00000000000E+00 0. -1.
        -14    1    4    4    0    0  0.34949027701E+02 -0.16917532470E+02  0.13449183816E+02  0.41091580493E+02  0.00000000000E+00 0.  1.
</event>
<event>
12    1  0.1597826E-001  0.2100971E+03  0.7818608E-02  0.1142152E+00
         21   -1    0    0  503  502  0.00000000000E+00  0.00000000000E+00  0.10576950149E+03  0.10576950149E+03  0.00000000000E+00 0.  1.
         21   -1    0    0  501  503 -0.00000000000E+00 -0.00000000000E+00 -0.51819839401E+03  0.51819839401E+03  0.00000000000E+00 0.  1.
          6    2    1    2  501    0  0.11947159825E+03 -0.17420175899E+02 -0.34957457591E+03  0.40785190421E+03  0.17194146193E+03 0.  0.
         24    2    3    3    0    0  0.11079678959E+03  0.19811110538E+02 -0.14705882308E+03  0.20170598226E+03  0.79941210577E+02 0.  0.
         -6    2    1    2    0  502 -0.11947159825E+03  0.17420175899E+02 -0.62854316606E+02  0.21611599129E+03  0.16786462182E+03 0.  0.
        -24    2    5    5    0    0 -0.18375769985E+02  0.45785852678E+02 -0.67306936330E+02  0.11091668552E+03  0.73063494448E+02 0.  0.
          5    1    3    3  501    0  0.86748086576E+01 -0.37231286438E+02 -0.20251575282E+03  0.20614592195E+03  0.47000000000E+01 0. -1.
        -13    1    4    4    0    0  0.87937880616E+02  0.10894825649E+02 -0.15268341237E+03  0.17653326170E+03  0.00000000000E+00 0.  1.
         14    1    4    4    0    0  0.22858908978E+02  0.89162848890E+01  0.56245892866E+01  0.25172720562E+02  0.00000000000E+00 0. -1.
         -5    1    5    5    0  502 -0.10109582827E+03 -0.28365676779E+02  0.44526197241E+01  0.10519930577E+03  0.47000000000E+01 0.  1.
         11    1    6    6    0    0 -0.25803262733E+01  0.63904006216E+01  0.15999639668E+02  0.17420785668E+02  0.00000000000E+00 0. -1.
        -12    1    6    6    0    0 -0.15795443712E+02  0.39395452056E+02 -0.83306575999E+02  0.93495899854E+02  0.00000000000E+00 0.  1.
</event>
<event>
12    1  0.1597826E-001  0.2038686E+03  0.7818608E-02  0.1147172E+00
         21   -1    0    0  501  502  0.00000000000E+00  0.00000000000E+00  0.85470494127E+03  0.85470494127E+03  0.00000000000E+00 0.  1.
         21   -1    0    0  502  503 -0.00000000000E+00 -0.00000000000E+00 -0.42720190508E+03  0.42720190508E+03  0.00000000000E+00 0.  1.
         -6    2    1    2    0  503  0.55903872496E+02 -0.87946345249E+02 -0.39003024849E+03  0.44009772576E+03  0.17522160506E+03 0.  0.
        -24    2    3    3    0    0  0.54910846765E+02 -0.11437452111E+03 -0.22730002231E+03  0.27516546363E+03  0.89185200899E+02 0.  0.
          6    2    1    2  501    0 -0.55903872496E+02  0.87946345249E+02  0.81753328467E+03  0.84180912059E+03  0.17152877709E+03 0.  0.
         24    2    5    5    0    0  0.33048883873E+02  0.37355445304E+02  0.26784779505E+03  0.28265953460E+03  0.75274917240E+02 0.  0.
          5    1    5    5  501    0 -0.88952756369E+02  0.50590899945E+02  0.54968548962E+03  0.55914958600E+03  0.47000000000E+01 0. -1.
        -11    1    6    6    0    0  0.37962192038E+02  0.55159181215E+02  0.16333860926E+03  0.17653091676E+03  0.00000000000E+00 0.  1.
         12    1    6    6    0    0 -0.49133081643E+01 -0.17803735911E+02  0.10450918579E+03  0.10612861784E+03  0.00000000000E+00 0. -1.
         -5    1    3    3    0  503  0.99302573056E+00  0.26428175863E+02 -0.16273022618E+03  0.16493226213E+03  0.47000000000E+01 0.  1.
         11    1    4    4    0    0  0.52100430918E+02 -0.25132506320E+02 -0.49204953888E+02  0.75942249525E+02  0.00000000000E+00 0. -1.
        -12    1    4    4    0    0  0.28104158473E+01 -0.89242014792E+02 -0.17809506842E+03  0.19922321410E+03  0.00000000000E+00 0.  1.
</event>
<event>
12    1  0.1597826E-001  0.1899362E+03  0.7818608E-02  0.1158687E+00
         21   -1    0    0  501  502  0.00000000000E+00  0.00000000000E+00  0.14508911411E+03  0.14508911411E+03  0.00000000000E+00 0.  1.
         21   -1    0    0  502  503 -0.00000000000E+00 -0.00000000000E+00 -0.31879774201E+03  0.31879774201E+03  0.00000000000E+00 0. -1.
         -6    2    1    2    0  503  0.77813906489E+02 -0.18109046228E+02 -0.19627929378E+03  0.27261427449E+03  0.17149355642E+03 0.  0.
        -24    2    3    3    0    0  0.79324642215E+02  0.17941804262E+02 -0.55634462014E+02  0.12733865766E+03  0.80657505348E+02 0.  0.
          6    2    1    2  501    0 -0.77813906489E+02  0.18109046228E+02  0.22570665887E+02  0.19127258163E+03  0.17231605823E+03 0.  0.
         24    2    5    5    0    0 -0.72507085252E+02 -0.44281863544E+02  0.41490839804E+02  0.12569170823E+03  0.82817600064E+02 0.  0.
          5    1    5    5  501    0 -0.53068212375E+01  0.62390909773E+02 -0.18920173917E+02  0.65580873393E+02  0.47000000000E+01 0. -1.
        -13    1    6    6    0    0 -0.13496281049E+02  0.20975710923E+02  0.26588617038E+02  0.36456612663E+02  0.00000000000E+00 0.  1.
         14    1    6    6    0    0 -0.59010804203E+02 -0.65257574468E+02  0.14902222766E+02  0.89235095570E+02  0.00000000000E+00 0. -1.
         -5    1    3    3    0  503 -0.15107357254E+01 -0.36050850491E+02 -0.14064483176E+03  0.14527561683E+03  0.47000000000E+01 0.  1.
         13    1    4    4    0    0  0.87092156672E+02  0.22609022053E+02 -0.67446475279E+02  0.11245105006E+03  0.00000000000E+00 0. -1.
        -14    1    4    4    0    0 -0.77675144574E+01 -0.46672177906E+01  0.11812013265E+02  0.14887607603E+02  0.00000000000E+00 0.  1.
</event>
<event>
12    1  0.1597826E-001  0.2109436E+03  0.7818608E-02  0.1140984E+00
         21   -1    0    0  503  502  0.00000000000E+00  0.00000000000E+00  0.95928789299E+03  0.95928789299E+03  0.00000000000E+00 0.  1.
         21   -1    0    0  501  503 -0.00000000000E+00 -0.00000000000E+00 -0.55807169347E+02  0.55807169347E+02  0.00000000000E+00 0.  1.
          6    2    1    2  501    0  0.11894446862E+03  0.20113328601E+02  0.24193696766E+03  0.32098398472E+03  0.17304591738E+03 0.  0.
         24    2    3    3    0    0  0.30290632796E+02 -0.12960541117E+02  0.34006364535E+02  0.92487575160E+02  0.79448226342E+02 0.  0.
         -6    2    1    2    0  502 -0.11894446862E+03 -0.20113328601E+02  0.66154375599E+03  0.69411107762E+03  0.17203986280E+03 0.  0.
        -24    2    5    5    0    0 -0.14903288866E+03 -0.17138812426E+00  0.49182272611E+03  0.52053022617E+03  0.82772526595E+02 0.  0.
          5    1    3    3  501    0  0.88653835826E+02  0.33073869718E+02  0.20793060313E+03  0.22849640956E+03  0.47000000000E+01 0. -1.
        -13    1    4    4    0    0 -0.12555029676E+02  0.24441790965E+02  0.19792502380E+02  0.33864037949E+02  0.00000000000E+00 0.  1.
         14    1    4    4    0    0  0.42845662472E+02 -0.37402332082E+02  0.14213862154E+02  0.58623537211E+02  0.00000000000E+00 0. -1.
         -5    1    5    5    0  502  0.30088420035E+02 -0.19941940477E+02  0.16972102987E+03  0.17358085145E+03  0.47000000000E+01 0.  1.
         13    1    6    6    0    0 -0.14207356370E+03  0.81782848820E+01  0.34352823317E+03  0.37183790666E+03  0.00000000000E+00 0. -1.
        -14    1    6    6    0    0 -0.69593249574E+01 -0.83496730063E+01  0.14829449294E+03  0.14869231950E+03  0.00000000000E+00 0.  1.
</event>
<event>
12    1  0.1597826E-001  0.1920216E+03  0.7818608E-02  0.1157306E+00
         21   -1    0    0  501  502  0.00000000000E+00  0.00000000000E+00  0.20177287143E+03  0.20177287143E+03  0.00000000000E+00 0. -1.
         21   -1    0    0  502  503 -0.00000000000E+00 -0.00000000000E+00 -0.26565981837E+03  0.26565981837E+03  0.00000000000E+00 0.  1.
         -6    2    1    2    0  503  0.82345945765E+02 -0.13426474999E+02 -0.16484378286E+03  0.25307264468E+03  0.17294844816E+03 0.  0.
        -24    2    3    3    0    0 -0.17077129916E+02 -0.19992015767E+02 -0.43475320475E+02  0.95972523846E+02  0.81420591881E+02 0.  0.
          6    2    1    2  501    0 -0.82345945765E+02  0.13426474999E+02  0.10095683593E+03  0.21436004512E+03  0.16969626163E+03 0.  0.
         24    2    5    5    0    0 -0.97332599382E+02  0.16601677422E+02  0.17651582257E+02  0.12952763984E+03  0.81954746847E+02 0.  0.
          5    1    5    5  501    0  0.14986653617E+02 -0.31752024227E+01  0.83305253670E+02  0.84832405283E+02  0.47000000000E+01 0. -1.
        -11    1    6    6    0    0  0.21312434326E+01  0.13588078916E+01 -0.21430808820E+02  0.21579344850E+02  0.00000000000E+00 0.  1.
         12    1    6    6    0    0 -0.99463842815E+02  0.15242869530E+02  0.39082391078E+02  0.10794829499E+03  0.00000000000E+00 0. -1.
         -5    1    3    3    0  503  0.99423075682E+02  0.65655407684E+01 -0.12136846239E+03  0.15710012083E+03  0.47000000000E+01 0.  1.
         13    1    4    4    0    0  0.86827615130E+01  0.20696530699E+01  0.21167562440E+02  0.22972581722E+02  0.00000000000E+00 0. -1.
        -14    1    4    4    0    0 -0.25759891429E+02 -0.22061668837E+02 -0.64642882916E+02  0.72999942123E+02  0.00000000000E+00 0.  1.
</event>
<event>
12    1  0.1597826E-001  0.1951747E+03  0.7818608E-02  0.1153879E+00
         21   -1    0    0  501  502  0.00000000000E+00  0.00000000000E+00  0.26244278096E+03  0.26244278096E+03  0.00000000000E+00 0.  1.
         21   -1    0    0  502  503 -0.00000000000E+00 -0.00000000000E+00 -0.23740879920E+03  0.23740879920E+03  0.00000000000E+00 0.  1.
         -6    2    1    2    0  503  0.85141254484E+02 -0.30358093657E+02 -0.14329599637E+03  0.24212990233E+03  0.17298121274E+03 0.  0.
        -24    2    3    3    0    0  0.66723861582E+02 -0.62515673270E+02 -0.34159396432E+02  0.12677740893E+03  0.80903423550E+02 0.  0.
          6    2    1    2  501    0 -0.85141254484E+02  0.30358093657E+02  0.16832997813E+03  0.25772167783E+03  0.17295905476E+03 0.  0.
         24    2    5    5    0    0 -0.25818286132E+02 -0.43103423161E+02  0.45338223732E+02  0.10259311606E+03  0.77105797092E+02 0.  0.
          5    1    5    5  501    0 -0.59322968352E+02  0.73461516818E+02  0.12299175439E+03  0.15512856177E+03  0.47000000000E+01 0. -1.
        -13    1    6    6    0    0  0.30899873968E+01  0.90257692656E+01  0.41805592319E+02  0.42880299463E+02  0.00000000000E+00 0.  1.
         14    1    6    6    0    0 -0.28908273529E+02 -0.52129192426E+02  0.35326314133E+01  0.59712816599E+02  0.00000000000E+00 0. -1.
         -5    1    3    3    0  503  0.18417392902E+02  0.32157579612E+02 -0.10913659994E+03  0.11535249340E+03  0.47000000000E+01 0.  1.
         13    1    4    4    0    0  0.78615879292E+02 -0.27911601781E+02 -0.34265779735E+02  0.90186793111E+02  0.00000000000E+00 0. -1.
        -14    1    4    4    0    0 -0.11892017709E+02 -0.34604071489E+02  0.10638330298E+00  0.36590615822E+02  0.00000000000E+00 0.  1.
</event>
<event>
12    1  0.1597826E-001  0.2431835E+03  0.7818608E-02  0.1117835E+00
         21   -1    0    0  501  502  0.00000000000E+00  0.00000000000E+00  0.37381072977E+03  0.37381072977E+03  0.00000000000E+00 0. -1.
         21   -1    0    0  502  503 -0.00000000000E+00 -0.00000000000E+00 -0.17612861026E+03  0.17612861026E+03  0.00000000000E+00 0. -1.
         -6    2    1    2    0  503  0.16503004011E+03  0.43724421287E+02  0.95696465565E+01  0.24249096765E+03  0.17194054816E+03 0.  0.
        -24    2    3    3    0    0  0.74663585654E+02 -0.11831415019E+02 -0.50621883482E+02  0.12043500783E+03  0.78913766989E+02 0.  0.
          6    2    1    2  501    0 -0.16503004011E+03 -0.43724421287E+02  0.18811247295E+03  0.30744837238E+03  0.17318042626E+03 0.  0.
         24    2    5    5    0    0 -0.91112936524E+02 -0.51806214987E+00  0.23462992273E+02  0.12180875063E+03  0.77362937726E+02 0.  0.
          5    1    5    5  501    0 -0.73917103585E+02 -0.43206359137E+02  0.16464948068E+03  0.18563962174E+03  0.47000000000E+01 0. -1.
        -11    1    6    6    0    0  0.10543397443E+02  0.42463296025E+01 -0.95230272690E+01  0.14828438660E+02  0.00000000000E+00 0.  1.
         12    1    6    6    0    0 -0.10165633397E+03 -0.47643917524E+01  0.32986019542E+02  0.10698031197E+03  0.00000000000E+00 0. -1.
         -5    1    3    3    0  503  0.90366454455E+02  0.55555836306E+02  0.60191530038E+02  0.12205595982E+03  0.47000000000E+01 0.  1.
         11    1    4    4    0    0  0.91163932943E+02 -0.12216373024E+02 -0.47910923684E+02  0.10370901141E+03  0.00000000000E+00 0. -1.
        -12    1    4    4    0    0 -0.16500347288E+02  0.38495800460E+00 -0.27109597978E+01  0.16725996423E+02  0.00000000000E+00 0.  1.
</event>
<event>
12    1  0.1597826E-001  0.1938259E+03  0.7818608E-02  0.1156544E+00
         21   -1    0    0  501  502  0.00000000000E+00  0.00000000000E+00  0.66004850133E+02  0.66004850133E+02  0.00000000000E+00 0.  1.
         21   -1    0    0  502  503 -0.00000000000E+00 -0.00000000000E+00 -0.56957484822E+03  0.56957484822E+03  0.00000000000E+00 0.  1.
         -6    2    1    2    0  503 -0.55157261640E+02 -0.72873265816E+02 -0.18835561097E+03  0.26554104381E+03  0.16334433992E+03 0.  0.
        -24    2    3    3    0    0  0.26338198308E+02 -0.58906898648E+02 -0.84738329117E+02  0.13289414222E+03  0.79476696057E+02 0.  0.
          6    2    1    2  501    0  0.55157261640E+02  0.72873265816E+02 -0.31521438712E+03  0.37003865454E+03  0.17092588928E+03 0.  0.
         24    2    5    5    0    0  0.91343721860E+02  0.88958768174E+02 -0.27454675393E+03  0.31308121711E+03  0.79916146406E+02 0.  0.
          5    1    5    5  501    0 -0.36186460220E+02 -0.16085502359E+02 -0.40667633190E+02  0.56957437431E+02  0.47000000000E+01 0. -1.
        -13    1    6    6    0    0  0.34708804016E+02  0.83462109453E+02 -0.19841820389E+03  0.21803763075E+03  0.00000000000E+00 0.  1.
         14    1    6    6    0    0  0.56634917844E+02  0.54966587215E+01 -0.76128550038E+02  0.95043586355E+02  0.00000000000E+00 0. -1.
         -5    1    3    3    0  503 -0.81495459948E+02 -0.13966367168E+02 -0.10361728185E+03  0.13264690159E+03  0.47000000000E+01 0.  1.
         13    1    4    4    0    0 -0.74849542135E+01  0.91894079712E+01  0.69828128173E+01  0.13756068962E+02  0.00000000000E+00 0. -1.
        -14    1    4    4    0    0  0.33823152522E+02 -0.68096306619E+02 -0.91721141934E+02  0.11913807326E+03  0.00000000000E+00 0.  1.
</event>
<event>
12    1  0.1597826E-001  0.1724716E+03  0.7818608E-02  0.1176196E+00
         21   -1    0    0  503  502  0.00000000000E+00  0.00000000000E+00  0.67751635208E+02  0.67751635208E+02  0.00000000000E+00 0. -1.
         21   -1    0    0  501  503 -0.00000000000E+00 -0.00000000000E+00 -0.93468132615E+03  0.93468132615E+03  0.00000000000E+00 0. -1.
          6    2    1    2  501    0 -0.11454615634E+02 -0.39988748146E+00 -0.80370801510E+03  0.82200549488E+03  0.17209035981E+03 0.  0.
         24    2    3    3    0    0 -0.61089526933E+02  0.30044376637E+02 -0.62215229153E+03  0.63128305676E+03  0.82524111836E+02 0.  0.
         -6    2    1    2    0  502  0.11454615634E+02  0.39988748146E+00 -0.63221675836E+02  0.18042746648E+03  0.16859929488E+03 0.  0.
        -24    2    5    5    0    0 -0.75812257209E+01 -0.43500755884E+02  0.13699697403E+02  0.89715739535E+02  0.76885899003E+02 0.  0.
          5    1    3    3  501    0  0.49634911299E+02 -0.30444264119E+02 -0.18155572358E+03  0.19072243812E+03  0.47000000000E+01 0. -1.
        -13    1    4    4    0    0 -0.67255051544E+02 -0.85656663595E+01 -0.38249111324E+03  0.38845342617E+03  0.00000000000E+00 0.  1.
         14    1    4    4    0    0  0.61655246111E+01  0.38610042997E+02 -0.23966117828E+03  0.24282963059E+03  0.00000000000E+00 0. -1.
         -5    1    5    5    0  502  0.19035841354E+02  0.43900643365E+02 -0.76921373239E+02  0.90711726942E+02  0.47000000000E+01 0.  1.
         11    1    6    6    0    0 -0.32556769558E+02 -0.54666752452E+00  0.22059309969E+02  0.39330080673E+02  0.00000000000E+00 0. -1.
        -12    1    6    6    0    0  0.24975543837E+02 -0.42954088359E+02 -0.83596125658E+01  0.50385658862E+02  0.00000000000E+00 0.  1.
</event>
<event>
12    1  0.1597826E-001  0.2185994E+03  0.7818608E-02  0.1134961E+00
         21   -1    0    0  501  502  0.00000000000E+00  0.00000000000E+00  0.58723927491E+02  0.58723927491E+02  0.00000000000E+00 0.  1.
         21   -1    0    0  502  503 -0.00000000000E+00 -0.00000000000E+00 -0.19550023985E+04  0.19550023985E+04  0.00000000000E+00 0.  1.
         -6    2    1    2    0  503  0.67887351734E+02  0.11711486448E+03 -0.17177650725E+04  0.17316184760E+04  0.17164241263E+03 0.  0.
        -24    2    3    3    0    0  0.38570170910E+02  0.19213383664E+02 -0.12307966738E+04  0.12340197336E+04  0.78022038119E+02 0.  0.
          6    2    1    2  501    0 -0.67887351734E+02 -0.11711486448E+03 -0.17851339844E+03  0.28210785001E+03  0.17144451466E+03 0.  0.
         24    2    5    5    0    0 -0.10308176173E+03 -0.52418664104E+02 -0.92406631289E+02  0.16870277875E+03  0.80920183531E+02 0.  0.
          5    1    5    5  501    0  0.35194409999E+02 -0.64696200381E+02 -0.86106767153E+02  0.11340507126E+03  0.47000000000E+01 0. -1.
        -11    1    6    6    0    0 -0.35644385520E+02 -0.33274614683E+02  0.46431554233E+01  0.48982456999E+02  0.00000000000E+00 0.  1.
         12    1    6    6    0    0 -0.67437376212E+02 -0.19144049421E+02 -0.97049786712E+02  0.11972032175E+03  0.00000000000E+00 0. -1.
         -5    1    3    3    0  503  0.29317180824E+02  0.97901480821E+02 -0.48696839870E+03  0.49759874233E+03  0.47000000000E+01 0.  1.
         11    1    4    4    0    0  0.58340813718E+02  0.29637572173E+02 -0.10018114049E+04  0.10039462771E+04  0.00000000000E+00 0. -1.
        -12    1    4    4    0    0 -0.19770642808E+02 -0.10424188510E+02 -0.22898526892E+03  0.23007345654E+03  0.00000000000E+00 0.  1.
</event>
<event>
12    1  0.1597826E-001  0.1751470E+03  0.7818608E-02  0.1172693E+00
         21   -1    0    0  503  502  0.00000000000E+00  0.00000000000E+00  0.40090036583E+03  0.40090036583E+03  0.00000000000E+00 0.  1.
         21   -1    0    0  501  503 -0.00000000000E+00 -0.00000000000E+00 -0.78447524939E+02  0.78447524939E+02  0.00000000000E+00 0.  1.
          6    2    1    2  501    0  0.23264121762E+02 -0.29160623822E+02  0.12164684204E+03  0.21289054337E+03  0.17068353153E+03 0.  0.
         24    2    3    3    0    0  0.82142181395E+01 -0.23319582564E+02  0.15472749869E+03  0.17578209141E+03  0.79671001601E+02 0.  0.
         -6    2    1    2    0  502 -0.23264121762E+02  0.29160623822E+02  0.20080599885E+03  0.26645734740E+03  0.17112833624E+03 0.  0.
        -24    2    5    5    0    0 -0.28892917787E+00  0.42994019281E+02  0.37271426182E+02  0.10067173655E+03  0.83048601176E+02 0.  0.
          5    1    3    3  501    0  0.15049903622E+02 -0.58410412578E+01 -0.33080656659E+02  0.37108451962E+02  0.47000000000E+01 0. -1.
        -11    1    4    4    0    0  0.24508189475E+02 -0.16442639501E+02  0.11832090133E+02  0.31796385046E+02  0.00000000000E+00 0.  1.
         12    1    4    4    0    0 -0.16293971336E+02 -0.68769430638E+01  0.14289540856E+03  0.14398570636E+03  0.00000000000E+00 0. -1.
         -5    1    5    5    0  502 -0.22975192584E+02 -0.13833395459E+02  0.16353457267E+03  0.16578561084E+03  0.47000000000E+01 0.  1.
         11    1    6    6    0    0  0.12027633620E+01  0.65338549637E+02  0.42134782645E+02  0.77755466798E+02  0.00000000000E+00 0. -1.
        -12    1    6    6    0    0 -0.14916925399E+01 -0.22344530356E+02 -0.48633564626E+01  0.22916269757E+02  0.00000000000E+00 0.  1.
</event>
<event>
12    1  0.1597826E-001  0.2675603E+03  0.7818608E-02  0.1102849E+00
         21   -1    0    0  503  502  0.00000000000E+00  0.00000000000E+00  0.90377619461E+03  0.90377619461E+03  0.00000000000E+00 0. -1.
         21   -1    0    0  501  503 -0.00000000000E+00 -0.00000000000E+00 -0.29796626242E+03  0.29796626242E+03  0.00000000000E+00 0.  1.
          6    2    1    2  501    0  0.64148338573E+02 -0.19426919940E+03 -0.21216627411E+03  0.34147187523E+03  0.17243254487E+03 0.  0.
         24    2    3    3    0    0  0.43712366985E+01 -0.16935491203E+03 -0.10133691735E+03  0.21302243014E+03  0.80057423071E+02 0.  0.
         -6    2    1    2    0  502 -0.64148338573E+02  0.19426919940E+03  0.81797620630E+03  0.86027058180E+03  0.17066009684E+03 0.  0.
        -24    2    5    5    0    0 -0.10593304547E+03  0.12061081081E+03  0.54247901515E+03  0.57201321022E+03  0.84539061840E+02 0.  0.
          5    1    3    3  501    0  0.59777101875E+02 -0.24914287368E+02 -0.11082935676E+03  0.12844944509E+03  0.47000000000E+01 0. -1.
        -11    1    4    4    0    0  0.38700375855E+02 -0.12636644443E+03 -0.76008951231E+02  0.15245838133E+03  0.00000000000E+00 0.  1.
         12    1    4    4    0    0 -0.34329139157E+02 -0.42988467597E+02 -0.25327966117E+02  0.60564048818E+02  0.00000000000E+00 0. -1.
         -5    1    5    5    0  502  0.41784706892E+02  0.73658388584E+02  0.27549719115E+03  0.28825737158E+03  0.47000000000E+01 0.  1.
         11    1    6    6    0    0 -0.72861353217E+02  0.12382542068E+03  0.48261188451E+03  0.50354318849E+03  0.00000000000E+00 0. -1.
        -12    1    6    6    0    0 -0.33071692248E+02 -0.32146098674E+01  0.59867130641E+02  0.68470021732E+02  0.00000000000E+00 0.  1.
</event>
<event>
12    1  0.1597826E-001  0.2511616E+03  0.7818608E-02  0.1112687E+00
         21   -1    0    0  503  502  0.00000000000E+00  0.00000000000E+00  0.35620079913E+03  0.35620079913E+03  0.00000000000E+00 0.  1.
         21   -1    0    0  501  503 -0.00000000000E+00 -0.00000000000E+00 -0.21248535597E+03  0.21248535597E+03  0.00000000000E+00 0.  1.
          6    2    1    2  501    0 -0.18051749398E+03 -0.26348745076E+02  0.18864791462E+03  0.31353700869E+03  0.17157097112E+03 0.  0.
         24    2    3    3    0    0 -0.91574230143E+02  0.11452753311E+02  0.22167801257E+02  0.12098162547E+03  0.75020911115E+02 0.  0.
         -6    2    1    2    0  502  0.18051749398E+03  0.26348745076E+02 -0.44932471465E+02  0.25514914640E+03  0.17263064015E+03 0.  0.
        -24    2    5    5    0    0  0.44778702462E+02  0.32709792558E+02  0.24515239187E+02  0.10247119462E+03  0.82609237076E+02 0.  0.
          5    1    3    3  501    0 -0.88943263836E+02 -0.37801498387E+02  0.16648011336E+03  0.19255538322E+03  0.47000000000E+01 0. -1.
        -13    1    4    4    0    0 -0.36682979986E+02 -0.19389195826E+02 -0.19123866108E+02  0.45687024311E+02  0.00000000000E+00 0.  1.
         14    1    4    4    0    0 -0.54891250156E+02  0.30841949136E+02  0.41291667365E+02  0.75294601161E+02  0.00000000000E+00 0. -1.
         -5    1    5    5    0  502  0.13573879152E+03 -0.63610474820E+01 -0.69447710652E+02  0.15267795179E+03  0.47000000000E+01 0.  1.
         13    1    6    6    0    0  0.34895775260E+02 -0.11918444211E+02 -0.17107817804E+02  0.40650238295E+02  0.00000000000E+00 0. -1.
        -14    1    6    6    0    0  0.98829272021E+01  0.44628236769E+02  0.41623056991E+02  0.61820956321E+02  0.00000000000E+00 0.  1.
</event>
<event>
12    1  0.1597826E-001  0.2361325E+03  0.7818608E-02  0.1122597E+00
         21   -1    0    0  503  502  0.00000000000E+00  0.00000000000E+00  0.94944196615E+03  0.94944196615E+03  0.00000000000E+00 0.  1.
         21   -1    0    0  501  503 -0.00000000000E+00 -0.00000000000E+00 -0.64758429823E+02  0.64758429823E+02  0.00000000000E+00 0.  1.
          6    2    1    2  501    0  0.13682527000E+03 -0.86436733187E+02  0.60180114346E+03  0.64646978563E+03  0.17194796918E+03 0.  0.
         24    2    3    3    0    0  0.29613270310E+02  0.12488015079E+02  0.28485623666E+03  0.29753328332E+03  0.79687406911E+02 0.  0.
         -6    2    1    2    0  502 -0.13682527000E+03  0.86436733187E+02  0.28288239286E+03  0.36773061034E+03  0.17032583549E+03 0.  0.
        -24    2    5    5    0    0 -0.14944198117E+03  0.44002025308E+02  0.16471433982E+03  0.24145446614E+03  0.83068414628E+02 0.  0.
          5    1    3    3  501    0  0.10721199969E+03 -0.98924748266E+02  0.31694490681E+03  0.34893650231E+03  0.47000000000E+01 0. -1.
        -11    1    4    4    0    0  0.55850304060E+02  0.16126839179E+02  0.21809042773E+03  0.22570504220E+03  0.00000000000E+00 0.  1.
         12    1    4    4    0    0 -0.26237033750E+02 -0.36388240991E+01  0.66765808924E+02  0.71828241118E+02  0.00000000000E+00 0. -1.
         -5    1    5    5    0  502  0.12616711176E+02  0.42434707879E+02  0.11816805305E+03  0.12627614420E+03  0.47000000000E+01 0.  1.
         13    1    6    6    0    0 -0.73164819594E+01 -0.20716678538E+01  0.56414138634E+02  0.56924316015E+02  0.00000000000E+00 0. -1.
        -14    1    6    6    0    0 -0.14212549921E+03  0.46073693161E+02  0.10830020118E+03  0.18453015012E+03  0.00000000000E+00 0.  1.
</event>
<event>
12    1  0.1597826E-001  0.1931771E+03  0.7818608E-02  0.1155841E+00
         21   -1    0    0  503  502  0.00000000000E+00  0.00000000000E+00  0.40279923239E+03  0.40279923239E+03  0.00000000000E+00 0. -1.
         21   -1    0    0  501  503 -0.00000000000E+00 -0.00000000000E+00 -0.96645354028E+02  0.96645354028E+02  0.00000000000E+00 0.  1.
          6    2    1    2  501    0 -0.31540316127E+02  0.84125702093E+02  0.20637957017E+03  0.28202265826E+03  0.16991859079E+03 0.  0.
         24    2    3    3    0    0 -0.41973533729E+02 -0.31893052805E+01  0.15909442188E+03  0.18206898004E+03  0.77885359450E+02 0.  0.
         -6    2    1    2    0  502  0.31540316127E+02 -0.84125702093E+02  0.99774308194E+02  0.21742192816E+03  0.17101303159E+03 0.  0.
        -24    2    5    5    0    0  0.66465458067E+02 -0.57052569757E+02  0.11972555640E+03  0.16870989331E+03  0.80350273261E+02 0.  0.
          5    1    3    3  501    0  0.10433217603E+02  0.87315007373E+02  0.47285148289E+02  0.99953678226E+02  0.47000000000E+01 0. -1.
        -11    1    4    4    0    0 -0.19184241611E+02  0.35797306735E+02  0.53065658902E+02  0.66823996067E+02  0.00000000000E+00 0.  1.
         12    1    4    4    0    0 -0.22789292119E+02 -0.38986612015E+02  0.10602876298E+03  0.11524498397E+03  0.00000000000E+00 0. -1.
         -5    1    5    5    0  502 -0.34925141941E+02 -0.27073132336E+02 -0.19951248205E+02  0.48712034847E+02  0.47000000000E+01 0.  1.
         11    1    6    6    0    0  0.68644844786E+02 -0.44546823098E+02  0.45950856397E+02  0.93851027525E+02  0.00000000000E+00 0. -1.
        -12    1    6    6    0    0 -0.21793867191E+01 -0.12505746659E+02  0.73774700002E+02  0.74858865784E+02  0.00000000000E+00 0.  1.
</event>
<event>
12    1  0.1597826E-001  0.2392229E+03  0.7818608E-02  0.1121784E+00
         21   -1    0    0  503  502  0.00000000000E+00  0.00000000000E+00  0.10612950372E+03  0.10612950372E+03  0.00000000000E+00 0.  1.
         21   -1    0    0  501  503 -0.00000000000E+00 -0.00000000000E+00 -0.76072850561E+03  0.76072850561E+03  0.00000000000E+00 0. -1.
          6    2    1    2  501    0 -0.14364094532E+03 -0.84602941055E+02 -0.56700928270E+03  0.61210407592E+03  0.15931570632E+03 0.  0.
         24    2    3    3    0    0 -0.71979587808E+02 -0.65327902301E+02 -0.48675316515E+03  0.50269652735E+03  0.79538411775E+02 0.  0.
         -6    2    1    2    0  502  0.14364094532E+03  0.84602941055E+02 -0.87589719192E+02  0.25475393341E+03  0.17157280925E+03 0.  0.
        -24    2    5    5    0    0  0.95136712204E+02  0.13221059086E+02 -0.10996511491E+03  0.16547469710E+03  0.77870138498E+02 0.  0.
          5    1    3    3  501    0 -0.71661357507E+02 -0.19275038754E+02 -0.80256117549E+02  0.10940754856E+03  0.47000000000E+01 0. -1.
        -11    1    4    4    0    0 -0.12223281765E+02 -0.56002555755E+02 -0.15047537955E+03  0.16102339805E+03  0.00000000000E+00 0.  1.
         12    1    4    4    0    0 -0.59756306043E+02 -0.93253465460E+01 -0.33627778560E+03  0.34167312931E+03  0.00000000000E+00 0. -1.
         -5    1    5    5    0  502  0.48504233111E+02  0.71381881969E+02  0.22375395721E+02  0.89279236314E+02  0.47000000000E+01 0.  1.
         11    1    6    6    0    0  0.11626565711E+02 -0.28005209537E+02 -0.31112196761E+02  0.43444649599E+02  0.00000000000E+00 0. -1.
        -12    1    6    6    0    0  0.83510146493E+02  0.41226268623E+02 -0.78852918151E+02  0.12203004750E+03  0.00000000000E+00 0.  1.
</event>
<event>
12    1  0.1597826E-001  0.2505781E+03  0.7818608E-02  0.1112960E+00
         21   -1    0    0  503  502  0.00000000000E+00  0.00000000000E+00  0.51182343577E+03  0.51182343577E+03  0.00000000000E+00 0. -1.
         21   -1    0    0  501  503 -0.00000000000E+00 -0.00000000000E+00 -0.13825343630E+03  0.13825343630E+03  0.00000000000E+00 0.  1.
          6    2    1    2  501    0  0.98560273415E+02  0.15323630437E+03  0.77431618941E+02  0.26214991496E+03  0.17184711179E+03 0.  0.
         24    2    3    3    0    0 -0.10670481392E+02  0.10036207635E+03  0.39826168954E+02  0.13501494081E+03  0.80352379962E+02 0.  0.
         -6    2    1    2    0  502 -0.98560273415E+02 -0.15323630437E+03  0.29613838052E+03  0.38792695711E+03  0.17202875098E+03 0.  0.
        -24    2    5    5    0    0 -0.35185295041E+02 -0.62246062512E+01  0.76871640118E+02  0.11639644186E+03  0.79762973315E+02 0.  0.
          5    1    3    3  501    0  0.10923075481E+03  0.52874228023E+02  0.37605449987E+02  0.12713497415E+03  0.47000000000E+01 0. -1.
        -11    1    4    4    0    0  0.17685191516E+02  0.52866870233E+02 -0.14375700322E+02  0.57570241679E+02  0.00000000000E+00 0.  1.
         12    1    4    4    0    0 -0.28355672909E+02  0.47495206112E+02  0.54201869276E+02  0.77444699126E+02  0.00000000000E+00 0. -1.
         -5    1    5    5    0  502 -0.63374978373E+02 -0.14701169812E+03  0.21926674040E+03  0.27153051525E+03  0.47000000000E+01 0.  1.
         13    1    6    6    0    0 -0.50255877651E+02  0.10776710058E+02  0.78266236066E+02  0.93634365625E+02  0.00000000000E+00 0. -1.
        -14    1    6    6    0    0  0.15070582609E+02 -0.17001316310E+02 -0.13945959484E+01  0.22762076230E+02  0.00000000000E+00 0.  1.
</event>
<event>
12    1  0.1597826E-001  0.2568181E+03  0.7818608E-02  0.1109113E+00
         21   -1    0    0  501  502  0.00000000000E+00  0.00000000000E+00  0.21160587844E+04  0.21160587844E+04  0.00000000000E+00 0.  1.
         21   -1    0    0  502  503 -0.00000000000E+00 -0.00000000000E+00 -0.32552463960E+02  0.32552463960E+02  0.00000000000E+00 0. -1.
         -6    2    1    2    0  503 -0.16560841080E+03 -0.93608515015E+02  0.81811163471E+03  0.85747430598E+03  0.17253068936E+03 0.  0.
        -24    2    3    3    0    0 -0.12829787693E+03  0.15756649750E+01  0.42879663346E+03  0.45493193026E+03  0.81447408543E+02 0.  0.
          6    2    1    2  501    0  0.16560841080E+03  0.93608515015E+02  0.12653946857E+04  0.12911369423E+04  0.17211099172E+03 0.  0.
         24    2    5    5    0    0  0.18834484457E+03  0.76641285226E+02  0.11995208570E+04  0.12192600781E+04  0.79982401636E+02 0.  0.
          5    1    5    5  501    0 -0.22736433764E+02  0.16967229789E+02  0.65873828696E+02  0.71876864248E+02  0.47000000000E+01 0. -1.
        -11    1    6    6    0    0  0.33382588036E+02 -0.15651199087E+02  0.25772968379E+03  0.26035350415E+03  0.00000000000E+00 0.  1.
         12    1    6    6    0    0  0.15496225653E+03  0.92292484312E+02  0.94179117322E+03  0.95890657395E+03  0.00000000000E+00 0. -1.
         -5    1    3    3    0  503 -0.37310533869E+02 -0.95184179990E+02  0.38931500125E+03  0.40254237573E+03  0.47000000000E+01 0.  1.
         11    1    4    4    0    0  0.34898545904E+01 -0.17988421684E+02  0.63793937621E+02  0.66373404892E+02  0.00000000000E+00 0. -1.
        -12    1    4    4    0    0 -0.13178773152E+03  0.19564086659E+02  0.36500269584E+03  0.38855852537E+03  0.00000000000E+00 0.  1.
</event>
<event>
12    1  0.1597826E-001  0.1843033E+03  0.7818608E-02  0.1164225E+00
         21   -1    0    0  503  502  0.00000000000E+00  0.00000000000E+00  0.26702329783E+03  0.26702329783E+03  0.00000000000E+00 0. -1.
         21   -1    0    0  501  503 -0.00000000000E+00 -0.00000000000E+00 -0.12592196742E+03  0.12592196742E+03  0.00000000000E+00 0.  1.
          6    2    1    2  501    0 -0.53629717701E+02 -0.29379569197E+02  0.62432633158E+02  0.19459072732E+03  0.17386319844E+03 0.  0.
         24    2    3    3    0    0 -0.22534248347E+02 -0.56643075700E+02 -0.20127658193E+02  0.10213252753E+03  0.79433621232E+02 0.  0.
         -6    2    1    2    0  502  0.53629717701E+02  0.29379569197E+02  0.78668697244E+02  0.19835453792E+03  0.17151225345E+03 0.  0.
        -24    2    5    5    0    0  0.35391221594E+02 -0.30957788196E+01  0.11601754019E+03  0.14539873523E+03  0.80116166671E+02 0.  0.
          5    1    3    3  501    0 -0.31095469354E+02  0.27263506503E+02  0.82560291351E+02  0.92458199794E+02  0.47000000000E+01 0. -1.
        -13    1    4    4    0    0  0.24770897103E+01  0.18634566066E+02 -0.12206906761E+02  0.22414093749E+02  0.00000000000E+00 0.  1.
         14    1    4    4    0    0 -0.25011338057E+02 -0.75277641766E+02 -0.79207514322E+01  0.79718433782E+02  0.00000000000E+00 0. -1.
         -5    1    5    5    0  502  0.18238496107E+02  0.32475348017E+02 -0.37348842951E+02  0.52955802692E+02  0.47000000000E+01 0.  1.
         13    1    6    6    0    0  0.61338810763E+02  0.17616654482E+00  0.85121824413E+02  0.10491999682E+03  0.00000000000E+00 0. -1.
        -14    1    6    6    0    0 -0.25947589169E+02 -0.32719453644E+01  0.30895715781E+02  0.40478738416E+02  0.00000000000E+00 0.  1.
</event>
<event>
12    1  0.1597826E-001  0.1930200E+03  0.7818608E-02  0.1157184E+00
         21   -1    0    0  503  502  0.00000000000E+00  0.00000000000E+00  0.87571474789E+03  0.87571474789E+03  0.00000000000E+00 0. -1.
         21   -1    0    0  501  503 -0.00000000000E+00 -0.00000000000E+00 -0.69914969754E+02  0.69914969754E+02  0.00000000000E+00 0. -1.
          6    2    1    2  501    0  0.63793916875E+02  0.64473228905E+02  0.10366997756E+03  0.21909856207E+03  0.17038267101E+03 0.  0.
         24    2    3    3    0    0 -0.11164430293E+02  0.74648799582E+02  0.90263217309E+02  0.14213020969E+03  0.79727412623E+02 0.  0.
         -6    2    1    2    0  502 -0.63793916875E+02 -0.64473228905E+02  0.70212980057E+03  0.72653115557E+03  0.16320172205E+03 0.  0.
        -24    2    5    5    0    0 -0.42441706222E+02 -0.60548096399E+02  0.69456328130E+03  0.70306488661E+03  0.80091901267E+02 0.  0.
          5    1    3    3  501    0  0.74958347169E+02 -0.10175570677E+02  0.13406760250E+02  0.76968352388E+02  0.47000000000E+01 0. -1.
        -13    1    4    4    0    0 -0.13233710656E+02  0.23183293649E+02 -0.10722541769E+02  0.28767500832E+02  0.00000000000E+00 0.  1.
         14    1    4    4    0    0  0.20692803629E+01  0.51465505933E+02  0.10098575908E+03  0.11336270885E+03  0.00000000000E+00 0. -1.
         -5    1    5    5    0  502 -0.21352210653E+02 -0.39251325060E+01  0.75665192769E+01  0.23466268961E+02  0.47000000000E+01 0.  1.
         13    1    6    6    0    0 -0.58636095407E+02 -0.43588720924E+02  0.34173004219E+03  0.34945327300E+03  0.00000000000E+00 0. -1.
        -14    1    6    6    0    0  0.16194389185E+02 -0.16959375474E+02  0.35283323911E+03  0.35361161360E+03  0.00000000000E+00 0.  1.
</event>
<event>
12    1  0.1597826E-001  0.1898499E+03  0.7818608E-02  0.1158676E+00
         21   -1    0    0  503  502  0.00000000000E+00  0.00000000000E+00  0.80765356680E+03  0.80765356680E+03  0.00000000000E+00 0.  1.
         21   -1    0    0  501  503 -0.00000000000E+00 -0.00000000000E+00 -0.58220568018E+02  0.58220568018E+02  0.00000000000E+00 0.  1.
          6    2    1    2  501    0 -0.64881452295E+02  0.46880357140E+02  0.16515279292E+03  0.25163157040E+03  0.17215002607E+03 0.  0.
         24    2    3    3    0    0  0.16739688216E+02  0.16891979263E+02  0.25438468616E+02  0.87000176674E+02  0.79726776749E+02 0.  0.
         -6    2    1    2    0  502  0.64881452295E+02 -0.46880357140E+02  0.58428020586E+03  0.61424256441E+03  0.17176495055E+03 0.  0.
        -24    2    5    5    0    0  0.42369197252E+01  0.20290317026E+02  0.15376774409E+03  0.17429628526E+03  0.79404203161E+02 0.  0.
          5    1    3    3  501    0 -0.81621140511E+02  0.29988377877E+02  0.13971432430E+03  0.16463139373E+03  0.47000000000E+01 0. -1.
        -13    1    4    4    0    0 -0.22962699059E+02  0.33124113496E+02  0.12490245510E+02  0.42195955681E+02  0.00000000000E+00 0.  1.
         14    1    4    4    0    0  0.39702387275E+02 -0.16232134233E+02  0.12948223106E+02  0.44804220992E+02  0.00000000000E+00 0. -1.
         -5    1    5    5    0  502  0.60644532570E+02 -0.67170674166E+02  0.43051246177E+03  0.43994627915E+03  0.47000000000E+01 0.  1.
         13    1    6    6    0    0  0.80651526515E+01  0.50198451030E+02  0.10959313470E+03  0.12081219453E+03  0.00000000000E+00 0. -1.
        -14    1    6    6    0    0 -0.38282329263E+01 -0.29908134003E+02  0.44174609384E+02  0.53484090729E+02  0.00000000000E+00 0.  1.
</event>
<event>
12    1  0.1597826E-001  0.1755350E+03  0.7818608E-02  0.1172623E+00
         21   -1    0    0  501  502  0.00000000000E+00  0.00000000000E+00  0.91249021326E+03  0.91249021326E+03  0.00000000000E+00 0. -1.
         21   -1    0    0  502  503 -0.00000000000E+00 -0.00000000000E+00 -0.50354158285E+02  0.50354158285E+02  0.00000000000E+00 0. -1.
         -6    2    1    2    0  503  0.19130218227E+02 -0.20362107644E+02  0.15345326135E+03  0.23315327115E+03  0.17329732759E+03 0.  0.
        -24    2    3    3    0    0 -0.42337782896E+02 -0.51279444398E+02  0.10762688776E+03  0.15035023140E+03  0.81237773460E+02 0.  0.
          6    2    1    2  501    0 -0.19130218227E+02  0.20362107644E+02  0.70868279362E+03  0.72969110040E+03  0.17157278148E+03 0.  0.
         24    2    5    5    0    0 -0.27026770834E+02  0.52584742744E+02  0.23643829595E+03  0.25625936368E+03  0.79184545004E+02 0.  0.
          5    1    5    5  501    0  0.78965526069E+01 -0.32222635100E+02  0.47224449767E+03  0.47343173672E+03  0.47000000000E+01 0. -1.
        -13    1    6    6    0    0  0.18553948337E+02  0.44337089721E+02  0.82247085687E+02  0.95260745472E+02  0.00000000000E+00 0.  1.
         14    1    6    6    0    0 -0.45580719171E+02  0.82476530234E+01  0.15419121027E+03  0.16099861821E+03  0.00000000000E+00 0. -1.
         -5    1    3    3    0  503  0.61468001123E+02  0.30917336755E+02  0.45826373599E+02  0.82803039747E+02  0.47000000000E+01 0.  1.
         13    1    4    4    0    0 -0.23632764624E+02 -0.26350370111E+02 -0.28990866061E+01  0.35514141858E+02  0.00000000000E+00 0. -1.
        -14    1    4    4    0    0 -0.18705018271E+02 -0.24929074288E+02  0.11052597436E+03  0.11483608955E+03  0.00000000000E+00 0.  1.
</event>
<event>
12    1  0.1597826E-001  0.2479346E+03  0.7818608E-02  0.1114709E+00
         21   -1    0    0  503  502  0.00000000000E+00  0.00000000000E+00  0.19598089434E+03  0.19598089434E+03  0.00000000000E+00 0.  1.
         21   -1    0    0  501  503 -0.00000000000E+00 -0.00000000000E+00 -0.50888534096E+03  0.50888534096E+03  0.00000000000E+00 0. -1.
          6    2    1    2  501    0  0.15854624391E+03  0.80351691153E+02 -0.37525970350E+03  0.44976818254E+03  0.17285331129E+03 0.  0.
         24    2    3    3    0    0  0.10392988529E+03  0.40737666210E+02 -0.10911840510E+03  0.17516756652E+03  0.79472457663E+02 0.  0.
         -6    2    1    2    0  502 -0.15854624391E+03 -0.80351691153E+02  0.62355256875E+02  0.25509805276E+03  0.17202770920E+03 0.  0.
        -24    2    5    5    0    0 -0.30590180351E+02 -0.58668825364E+02 -0.99506120385E+01  0.10646047491E+03  0.82807172602E+02 0.  0.
          5    1    3    3  501    0  0.54616358629E+02  0.39614024943E+02 -0.26614129840E+03  0.27460061602E+03  0.47000000000E+01 0. -1.
        -11    1    4    4    0    0  0.36767029211E+02 -0.23411576576E+02 -0.27605360550E+02  0.51594304782E+02  0.00000000000E+00 0.  1.
         12    1    4    4    0    0  0.67162856074E+02  0.64149242786E+02 -0.81513044546E+02  0.12357326174E+03  0.00000000000E+00 0. -1.
         -5    1    5    5    0  502 -0.12795606356E+03 -0.21682865789E+02  0.72305868913E+02  0.14863757786E+03  0.47000000000E+01 0.  1.
         13    1    6    6    0    0 -0.20973677858E+02  0.13623850916E+02 -0.21052082695E+02  0.32690895713E+02  0.00000000000E+00 0. -1.
        -14    1    6    6    0    0 -0.96165024926E+01 -0.72292676281E+02  0.11101470656E+02  0.73769579196E+02  0.00000000000E+00 0.  1.
</event>
<event>
12    1  0.1597826E-001  0.1742748E+03  0.7818608E-02  0.1173496E+00
         21   -1    0    0  503  502  0.00000000000E+00  0.00000000000E+00  0.91962674470E+03  0.91962674470E+03  0.00000000000E+00 0.  1.
         21   -1    0    0  501  503 -0.00000000000E+00 -0.00000000000E+00 -0.45321103849E+02  0.45321103849E+02  0.00000000000E+00 0.  1.
          6    2    1    2  501    0 -0.81689033324E+01 -0.10154499183E+02  0.68883304499E+03  0.71053689088E+03  0.17378683666E+03 0.  0.
         24    2    3    3    0    0  0.40167092405E+02 -0.19627509895E+02  0.23848689473E+03  0.25748076690E+03  0.86149358159E+02 0.  0.
         -6    2    1    2    0  502  0.81689033324E+01  0.10154499183E+02  0.18547259586E+03  0.25441095767E+03  0.17365197014E+03 0.  0.
        -24    2    5    5    0    0  0.24535440020E+02  0.44800692302E+02  0.36374069700E+02  0.10039575477E+03  0.78403729386E+02 0.  0.
          5    1    3    3  501    0 -0.48335995738E+02  0.94730107126E+01  0.45034615026E+03  0.45305612397E+03  0.47000000000E+01 0. -1.
        -11    1    4    4    0    0  0.86262144611E+01  0.18449050010E+01  0.20918674163E+03  0.20937265371E+03  0.00000000000E+00 0.  1.
         12    1    4    4    0    0  0.31540877944E+02 -0.21472414896E+02  0.29300153100E+02  0.48108113189E+02  0.00000000000E+00 0. -1.
         -5    1    5    5    0  502 -0.16366536687E+02 -0.34646193120E+02  0.14909852616E+03  0.15401520290E+03  0.47000000000E+01 0.  1.
         13    1    6    6    0    0 -0.51032398727E+00  0.31419362237E+02  0.57144110705E+02  0.65214155995E+02  0.00000000000E+00 0. -1.
        -14    1    6    6    0    0  0.25045764007E+02  0.13381330065E+02 -0.20770041005E+02  0.35181598775E+02  0.00000000000E+00 0.  1.
</event>
<event>
12    1  0.1597826E-001  0.2039321E+03  0.7818608E-02  0.1146603E+00
         21   -1    0    0  503  502  0.00000000000E+00  0.00000000000E+00  0.44946826374E+02  0.44946826374E+02  0.00000000000E+00 0.  1.
         21   -1    0    0  501  503 -0.00000000000E+00 -0.00000000000E+00 -0.92986386470E+03  0.92986386470E+03  0.00000000000E+00 0. -1.
          6    2    1    2  501    0 -0.10722654600E+03 -0.95038298247E+01 -0.39895068361E+03  0.44805129506E+03  0.17320640896E+03 0.  0.
         24    2    3    3    0    0 -0.96059127607E+02  0.27044384166E+02 -0.15368231717E+03  0.19977897531E+03  0.79590386686E+02 0.  0.
         -6    2    1    2    0  502  0.10722654600E+03  0.95038298247E+01 -0.48596635472E+03  0.52675939602E+03  0.17240739086E+03 0.  0.
        -24    2    5    5    0    0  0.37297090581E+02 -0.37103645850E+02 -0.13143465518E+03  0.16237333494E+03  0.79512752549E+02 0.  0.
          5    1    3    3  501    0 -0.11167418389E+02 -0.36548213991E+02 -0.24526836644E+03  0.24827231975E+03  0.47000000000E+01 0. -1.
        -11    1    4    4    0    0 -0.95381573822E+02 -0.40227180153E+01 -0.10394642327E+03  0.14113357431E+03  0.00000000000E+00 0.  1.
         12    1    4    4    0    0 -0.67755378500E+00  0.31067102181E+02 -0.49735893892E+02  0.58645400999E+02  0.00000000000E+00 0. -1.
         -5    1    5    5    0  502  0.69929455415E+02  0.46607475675E+02 -0.35453169954E+03  0.36438606107E+03  0.47000000000E+01 0.  1.
         11    1    6    6    0    0  0.56109759487E+02 -0.22514342400E+02 -0.12310793597E+03  0.13715234092E+03  0.00000000000E+00 0. -1.
        -12    1    6    6    0    0 -0.18812668905E+02 -0.14589303450E+02 -0.83267192126E+01  0.25220994020E+02  0.00000000000E+00 0.  1.
</event>
<event>
12    1  0.1597826E-001  0.4452042E+03  0.7818608E-02  0.1029167E+00
         21   -1    0    0  501  502  0.00000000000E+00  0.00000000000E+00  0.20372813585E+03  0.20372813585E+03  0.00000000000E+00 0.  1.
         21   -1    0    0  502  503 -0.00000000000E+00 -0.00000000000E+00 -0.12605222341E+04  0.12605222341E+04  0.00000000000E+00 0. -1.
         -6    2    1    2    0  503 -0.18927991943E+03 -0.36416461107E+03 -0.87817343979E+03  0.98455031239E+03  0.17236001689E+03 0.  0.
        -24    2    3    3    0    0 -0.20482825845E+03 -0.34211326604E+03 -0.86086173120E+03  0.95214972723E+03  0.80685070329E+02 0.  0.
          6    2    1    2  501    0  0.18927991943E+03  0.36416461107E+03 -0.17862065848E+03  0.47970005759E+03  0.17252261811E+03 0.  0.
         24    2    5    5    0    0  0.13329328689E+03  0.35533268086E+03 -0.16419129938E+03  0.42102465884E+03  0.79212159047E+02 0.  0.
          5    1    5    5  501    0  0.55986632542E+02  0.88319302122E+01 -0.14429359095E+02  0.58675398751E+02  0.47000000000E+01 0. -1.
        -13    1    6    6    0    0  0.13778581765E+03  0.28651426392E+03 -0.12433808983E+03  0.34137269305E+03  0.00000000000E+00 0.  1.
         14    1    6    6    0    0 -0.44925307667E+01  0.68818416935E+02 -0.39853209547E+02  0.79651965785E+02  0.00000000000E+00 0. -1.
         -5    1    3    3    0  503  0.15548339025E+02 -0.22051345034E+02 -0.17311708599E+02  0.32400585162E+02  0.47000000000E+01 0.  1.
         13    1    4    4    0    0 -0.16763580086E+03 -0.21753816829E+03 -0.62863861213E+03  0.68601102108E+03  0.00000000000E+00 0. -1.
        -14    1    4    4    0    0 -0.37192457597E+02 -0.12457509775E+03 -0.23222311907E+03  0.26613870615E+03  0.00000000000E+00 0.  1.
</event>
<event>
12    1  0.1597826E-001  0.2196326E+03  0.7818608E-02  0.1134920E+00
         21   -1    0    0  503  502  0.00000000000E+00  0.00000000000E+00  0.37783122210E+03  0.37783122210E+03  0.00000000000E+00 0. -1.
         21   -1    0    0  501  503 -0.00000000000E+00 -0.00000000000E+00 -0.30681244525E+03  0.30681244525E+03  0.00000000000E+00 0. -1.
          6    2    1    2  501    0 -0.74673766216E+02 -0.11938888282E+03 -0.22762779998E+03  0.31631137049E+03  0.16854848287E+03 0.  0.
         24    2    3    3    0    0 -0.99642956471E+02 -0.70840652669E+02 -0.21541979615E+03  0.26017300152E+03  0.79606440081E+02 0.  0.
         -6    2    1    2    0  502  0.74673766216E+02  0.11938888282E+03  0.29864657683E+03  0.36833229686E+03  0.16324529504E+03 0.  0.
        -24    2    5    5    0    0  0.10658779201E+03  0.12617369158E+03  0.26570108142E+03  0.32172720765E+03  0.75037148284E+02 0.  0.
          5    1    3    3  501    0  0.24969190255E+02 -0.48548230156E+02 -0.12208003822E+02  0.56138368970E+02  0.47000000000E+01 0. -1.
        -11    1    4    4    0    0  0.52786092107E+01 -0.32544550294E+02 -0.64268687476E+02  0.72232095767E+02  0.00000000000E+00 0.  1.
         12    1    4    4    0    0 -0.10492156568E+03 -0.38296102374E+02 -0.15115110868E+03  0.18794090576E+03  0.00000000000E+00 0. -1.
         -5    1    5    5    0  502 -0.31914025793E+02 -0.67848087508E+01  0.32945495410E+02  0.46605089206E+02  0.47000000000E+01 0.  1.
         13    1    6    6    0    0  0.21001160002E+02  0.19375303914E+02  0.11350132670E+03  0.11704273701E+03  0.00000000000E+00 0. -1.
        -14    1    6    6    0    0  0.85586632007E+02  0.10679838766E+03  0.15219975472E+03  0.20468447064E+03  0.00000000000E+00 0.  1.
</event>
<event>
12    1  0.1597826E-001  0.2527423E+03  0.7818608E-02  0.1111914E+00
         21   -1    0    0  501  502  0.00000000000E+00  0.00000000000E+00  0.17537780321E+03  0.17537780321E+03  0.00000000000E+00 0. -1.
         21   -1    0    0  502  503 -0.00000000000E+00 -0.00000000000E+00 -0.55976923399E+03  0.55976923399E+03  0.00000000000E+00 0. -1.
         -6    2    1    2    0  503  0.14615054128E+03  0.11393123329E+03 -0.41060046614E+03  0.48104943457E+03  0.16874687869E+03 0.  0.
        -24    2    3    3    0    0  0.62154947673E+01  0.27214132098E+02 -0.15536433902E+03  0.17729090634E+03  0.80713978168E+02 0.  0.
          6    2    1    2  501    0 -0.14615054128E+03 -0.11393123329E+03  0.26209035366E+02  0.25409760262E+03  0.17186730780E+03 0.  0.
         24    2    5    5    0    0 -0.13923822634E+03 -0.32825305290E+02  0.43510429498E+02  0.17074665846E+03  0.82440763937E+02 0.  0.
          5    1    5    5  501    0 -0.69123149388E+01 -0.81105927995E+02 -0.17301394132E+02  0.83350944162E+02  0.47000000000E+01 0. -1.
        -13    1    6    6    0    0 -0.30450104406E+02  0.16087126125E+02 -0.15387104543E+02  0.37719590023E+02  0.00000000000E+00 0.  1.
         14    1    6    6    0    0 -0.10878812194E+03 -0.48912431415E+02  0.58897534041E+02  0.13302706844E+03  0.00000000000E+00 0. -1.
         -5    1    3    3    0  503  0.13993504651E+03  0.86717101187E+02 -0.25523612713E+03  0.30375852823E+03  0.47000000000E+01 0.  1.
         13    1    4    4    0    0  0.15187337630E+02 -0.11118769282E+02 -0.19701141353E+01  0.18925210814E+02  0.00000000000E+00 0. -1.
        -14    1    4    4    0    0 -0.89718428629E+01  0.38332901380E+02 -0.15339422488E+03  0.15836569553E+03  0.00000000000E+00 0.  1.
</event>
<event>
12    1  0.1597826E-001  0.2288993E+03  0.7818608E-02  0.1127422E+00
         21   -1    0    0  501  502  0.00000000000E+00  0.00000000000E+00  0.80803373199E+02  0.80803373199E+02  0.00000000000E+00 0.  1.
         21   -1    0    0  502  503 -0.00000000000E+00 -0.00000000000E+00 -0.69909260145E+03  0.69909260145E+03  0.00000000000E+00 0. -1.
         -6    2    1    2    0  503  0.13914217377E+03  0.59541117814E+02 -0.20409764007E+03  0.30667690646E+03  0.17172416558E+03 0.  0.
        -24    2    3    3    0    0  0.75344415756E+02  0.67581754712E+02 -0.20492496108E+03  0.24219760568E+03  0.80133426027E+02 0.  0.
          6    2    1    2  501    0 -0.13914217377E+03 -0.59541117814E+02 -0.41419158818E+03  0.47321906819E+03  0.17168554261E+03 0.  0.
         24    2    5    5    0    0 -0.31885705630E+02 -0.84554274928E+02 -0.21712700329E+03  0.24741794196E+03  0.76846462592E+02 0.  0.
          5    1    5    5  501    0 -0.10725646814E+03  0.25013157114E+02 -0.19706458490E+03  0.22580112623E+03  0.47000000000E+01 0. -1.
        -13    1    6    6    0    0  0.80710668610E+01 -0.30596848642E+01 -0.94302615578E+02  0.94696816719E+02  0.00000000000E+00 0.  1.
         14    1    6    6    0    0 -0.39956772491E+02 -0.81494590064E+02 -0.12282438771E+03  0.15272112524E+03  0.00000000000E+00 0. -1.
         -5    1    3    3    0  503  0.63797758016E+02 -0.80406368974E+01  0.82732101262E+00  0.64479300784E+02  0.47000000000E+01 0.  1.
         11    1    4    4    0    0  0.92087692693E+02  0.57468962002E+02 -0.18337370422E+03  0.21309326629E+03  0.00000000000E+00 0. -1.
        -12    1    4    4    0    0 -0.16743276936E+02  0.10112792710E+02 -0.21551256866E+02  0.29104339392E+02  0.00000000000E+00 0.  1.
</event>
<event>
12    1  0.1597826E-001  0.2348785E+03  0.7818608E-02  0.1124560E+00
         21   -1    0    0  501  502  0.00000000000E+00  0.00000000000E+00  0.21694299611E+03  0.21694299611E+03  0.00000000000E+00 0. -1.
         21   -1    0    0  502  503 -0.00000000000E+00 -0.00000000000E+00 -0.26342916424E+03  0.26342916424E+03  0.00000000000E+00 0. -1.
         -6    2    1    2    0  503 -0.14578883073E+03  0.29932525837E+02  0.37751239783E+02  0.23789297344E+03  0.18170737860E+03 0.  0.
        -24    2    3    3    0    0 -0.38416663292E+02 -0.45784564997E+02  0.23156516956E+02  0.10561691317E+03  0.83944277111E+02 0.  0.
          6    2    1    2  501    0  0.14578883073E+03 -0.29932525837E+02 -0.84237407917E+02  0.24247918691E+03  0.17190077348E+03 0.  0.
         24    2    5    5    0    0  0.13576486372E+03 -0.79425380149E+02 -0.59304128768E+02  0.18596564029E+03  0.79534586486E+02 0.  0.
          5    1    5    5  501    0  0.10023967013E+02  0.49492854312E+02 -0.24933279150E+02  0.56513546622E+02  0.47000000000E+01 0. -1.
        -11    1    6    6    0    0  0.22807395202E+02 -0.13121501950E+02  0.19819927078E+02  0.32942079453E+02  0.00000000000E+00 0.  1.
         12    1    6    6    0    0  0.11295746852E+03 -0.66303878199E+02 -0.79124055846E+02  0.15302356084E+03  0.00000000000E+00 0. -1.
         -5    1    3    3    0  503 -0.10737216744E+03  0.75717090835E+02  0.14594722827E+02  0.13227606027E+03  0.47000000000E+01 0.  1.
         13    1    4    4    0    0 -0.53726822730E+02 -0.38256733824E+02 -0.11535462013E+02  0.66956822262E+02  0.00000000000E+00 0. -1.
        -14    1    4    4    0    0  0.15310159439E+02 -0.75278311731E+01  0.34691978969E+02  0.38660090908E+02  0.00000000000E+00 0.  1.
</event>
<event>
12    1  0.1597826E-001  0.1811700E+03  0.7818608E-02  0.1166967E+00
         21   -1    0    0  503  502  0.00000000000E+00  0.00000000000E+00  0.23248224936E+03  0.23248224936E+03  0.00000000000E+00 0. -1.
         21   -1    0    0  501  503 -0.00000000000E+00 -0.00000000000E+00 -0.17773325428E+03  0.17773325428E+03  0.00000000000E+00 0. -1.
          6    2    1    2  501    0 -0.47790963673E+02 -0.26842489128E+02 -0.66900229851E+02  0.19199290936E+03  0.17140927938E+03 0.  0.
         24    2    3    3    0    0 -0.47219859043E+02 -0.53812337905E+02 -0.10190300751E+03  0.14755212463E+03  0.79132317956E+02 0.  0.
         -6    2    1    2    0  502  0.47790963673E+02  0.26842489128E+02  0.12164922492E+03  0.21822259428E+03  0.17267909919E+03 0.  0.
        -24    2    5    5    0    0 -0.14262526492E+02 -0.38450759900E+02  0.44330179876E+02  0.99419527242E+02  0.78975926398E+02 0.  0.
          5    1    3    3  501    0 -0.57110462919E+00  0.26969848777E+02  0.35002777658E+02  0.44440784728E+02  0.47000000000E+01 0. -1.
        -11    1    4    4    0    0 -0.65266316111E+01 -0.51300219846E+02 -0.18868944401E+02  0.55048583444E+02  0.00000000000E+00 0.  1.
         12    1    4    4    0    0 -0.40693227432E+02 -0.25121180590E+01 -0.83034063108E+02  0.92503541187E+02  0.00000000000E+00 0. -1.
         -5    1    5    5    0  502  0.62053490164E+02  0.65293249028E+02  0.77319045047E+02  0.11880306704E+03  0.47000000000E+01 0.  1.
         13    1    6    6    0    0  0.20556081441E+02 -0.12734329444E+02 -0.13101771172E+02  0.27502218791E+02  0.00000000000E+00 0. -1.
        -14    1    6    6    0    0 -0.34818607932E+02 -0.25716430456E+02  0.57431951048E+02  0.71917308452E+02  0.00000000000E+00 0.  1.
</event>
<event>
12    1  0.1597826E-001  0.2234764E+03  0.7818608E-02  0.1133139E+00
         21   -1    0    0  501  502  0.00000000000E+00  0.00000000000E+00  0.65333205060E+02  0.65333205060E+02  0.00000000000E+00 0. -1.
         21   -1    0    0  502  503 -0.00000000000E+00 -0.00000000000E+00 -0.17397280807E+04  0.17397280807E+04  0.00000000000E+00 0. -1.
         -6    2    1    2    0  503 -0.12300076845E+03 -0.37222198619E+02 -0.15320460648E+04  0.15482592965E+04  0.18283058674E+03 0.  0.
        -24    2    3    3    0    0 -0.23826448415E+02 -0.35530585840E+02 -0.11533941962E+04  0.11568033796E+04  0.77754517508E+02 0.  0.
          6    2    1    2  501    0  0.12300076845E+03  0.37222198619E+02 -0.14234881080E+03  0.25680198921E+03  0.17079050506E+03 0.  0.
         24    2    5    5    0    0  0.15656653768E+03  0.22713894443E+02 -0.11564059353E+03  0.21127649499E+03  0.78968403437E+02 0.  0.
          5    1    5    5  501    0 -0.33565769234E+02  0.14508304175E+02 -0.26708217273E+02  0.45525494223E+02  0.47000000000E+01 0. -1.
        -11    1    6    6    0    0  0.30068658520E+02 -0.17886899593E+02 -0.55122424479E+02  0.65288184863E+02  0.00000000000E+00 0.  1.
         12    1    6    6    0    0  0.12649787916E+03  0.40600794036E+02 -0.60518169049E+02  0.14598831013E+03  0.00000000000E+00 0. -1.
         -5    1    3    3    0  503 -0.99174320032E+02 -0.16916127789E+01 -0.37865186857E+03  0.39145591691E+03  0.47000000000E+01 0.  1.
         11    1    4    4    0    0 -0.39158497462E+02 -0.47688679762E+02 -0.10319195917E+04  0.10337628557E+04  0.00000000000E+00 0. -1.
        -12    1    4    4    0    0  0.15332049047E+02  0.12158093922E+02 -0.12147460456E+03  0.12304052393E+03  0.00000000000E+00 0.  1.
</event>
<event>
12    1  0.1597826E-001  0.1912183E+03  0.7818608E-02  0.1157584E+00
         21   -1    0    0  501  502  0.00000000000E+00  0.00000000000E+00  0.13638427589E+04  0.13638427589E+04  0.00000000000E+00 0. -1.
         21   -1    0    0  502  503 -0.00000000000E+00 -0.00000000000E+00 -0.30669895616E+02  0.30669895616E+02  0.00000000000E+00 0. -1.
         -6    2    1    2    0  503 -0.71961987137E+02 -0.36574911550E+02  0.41639840691E+03  0.45820528489E+03  0.17334416080E+03 0.  0.
        -24    2    3    3    0    0  0.86687833004E+01  0.12187814612E+02  0.28662298021E+03  0.29775941870E+03  0.79273249026E+02 0.  0.
          6    2    1    2  501    0  0.71961987137E+02  0.36574911550E+02  0.91677445638E+03  0.93630736963E+03  0.17227836428E+03 0.  0.
         24    2    5    5    0    0  0.10718089750E+03  0.36282628188E+02  0.52693739836E+03  0.54485433428E+03  0.79994061635E+02 0.  0.
          5    1    5    5  501    0 -0.35218910358E+02  0.29228336229E+00  0.38983705802E+03  0.39145303534E+03  0.47000000000E+01 0. -1.
        -13    1    6    6    0    0  0.30138246576E+02  0.33367599163E+02  0.84192087814E+02  0.95446415496E+02  0.00000000000E+00 0.  1.
         14    1    6    6    0    0  0.77042650919E+02  0.29150290250E+01  0.44274531055E+03  0.44940791878E+03  0.00000000000E+00 0. -1.
         -5    1    3    3    0  503 -0.80630770437E+02 -0.48762726162E+02  0.12977542670E+03  0.16044586619E+03  0.47000000000E+01 0.  1.
         11    1    4    4    0    0  0.29865698546E+02  0.31210180573E+02  0.99375571730E+02  0.10835838490E+03  0.00000000000E+00 0. -1.
        -12    1    4    4    0    0 -0.21196915246E+02 -0.19022365961E+02  0.18724740848E+03  0.18940103380E+03  0.00000000000E+00 0.  1.
</event>
<event>
12    1  0.1597826E-001  0.2142018E+03  0.7818608E-02  0.1138437E+00
         21   -1    0    0  501  502  0.00000000000E+00  0.00000000000E+00  0.27698854280E+03  0.27698854280E+03  0.00000000000E+00 0.  1.
         21   -1    0    0  502  503 -0.00000000000E+00 -0.00000000000E+00 -0.16529732708E+03  0.16529732708E+03  0.00000000000E+00 0. -1.
         -6    2    1    2    0  503 -0.11595285043E+02 -0.12628944254E+03  0.46747018129E+02  0.21845523157E+03  0.17162147467E+03 0.  0.
        -24    2    3    3    0    0  0.67566871630E+01 -0.15823211036E+03  0.40842296378E+02  0.18085091466E+03  0.77174520353E+02 0.  0.
          6    2    1    2  501    0  0.11595285043E+02  0.12628944254E+03  0.64944197594E+02  0.22383063831E+03  0.17262367136E+03 0.  0.
         24    2    5    5    0    0  0.41324270728E+02  0.11246115590E+02  0.10990809934E+01  0.88860017140E+02  0.77850653176E+02 0.  0.
          5    1    5    5  501    0 -0.29728985685E+02  0.11504332695E+03  0.63845116601E+02  0.13497062117E+03  0.47000000000E+01 0. -1.
        -11    1    6    6    0    0  0.94378858339E+01  0.35589409577E+02  0.22742871688E+02  0.43277222366E+02  0.00000000000E+00 0.  1.
         12    1    6    6    0    0  0.31886384894E+02 -0.24343293987E+02 -0.21643790695E+02  0.45582794774E+02  0.00000000000E+00 0. -1.
         -5    1    3    3    0  503 -0.18351972206E+02  0.31942667821E+02  0.59047217506E+01  0.37604316911E+02  0.47000000000E+01 0.  1.
         13    1    4    4    0    0  0.19136252520E+02 -0.11962362128E+03  0.60928631397E+02  0.13560348466E+03  0.00000000000E+00 0. -1.
        -14    1    4    4    0    0 -0.12379565357E+02 -0.38608489076E+02 -0.20086335018E+02  0.45247430001E+02  0.00000000000E+00 0.  1.
</event>
<event>
12    1  0.1597826E-001  0.2180701E+03  0.7818608E-02  0.1136442E+00
         21   -1    0    0  503  502  0.00000000000E+00  0.00000000000E+00  0.29362791780E+04  0.29362791780E+04  0.00000000000E+00 0. -1.
         21   -1    0    0  501  503 -0.00000000000E+00 -0.00000000000E+00 -0.10215587142E+03  0.10215587142E+03  0.00000000000E+00 0. -1.
          6    2    1    2  501    0 -0.95053720279E+02  0.80214105539E+02  0.22966011541E+02  0.21927606176E+03  0.17912297762E+03 0.  0.
         24    2    3    3    0    0 -0.25704783158E+02  0.42563404659E+02  0.78724367976E+02  0.12253964324E+03  0.79662153865E+02 0.  0.
         -6    2    1    2    0  502  0.95053720279E+02 -0.80214105539E+02  0.28111572950E+04  0.28191589876E+04  0.17199577833E+03 0.  0.
        -24    2    5    5    0    0  0.12440424059E+03 -0.63501491657E+02  0.17367090421E+04  0.17441697306E+04  0.80379709947E+02 0.  0.
          5    1    3    3  501    0 -0.69348937121E+02  0.37650700880E+02 -0.55758356435E+02  0.96736418524E+02  0.47000000000E+01 0. -1.
        -13    1    4    4    0    0  0.97937353022E+01  0.55054527762E+02  0.52223410478E+02  0.76512762858E+02  0.00000000000E+00 0.  1.
         14    1    4    4    0    0 -0.35498518461E+02 -0.12491123103E+02  0.26500957498E+02  0.46026880381E+02  0.00000000000E+00 0. -1.
         -5    1    5    5    0  502 -0.29350520310E+02 -0.16712613882E+02  0.10744482529E+04  0.10749892570E+04  0.47000000000E+01 0.  1.
         13    1    6    6    0    0  0.86935644402E+02 -0.76382828839E+02  0.14681385331E+04  0.14726923967E+04  0.00000000000E+00 0. -1.
        -14    1    6    6    0    0  0.37468596187E+02  0.12881337182E+02  0.26857050901E+03  0.27147733397E+03  0.00000000000E+00 0.  1.
</event>
<event>
12    1  0.1597826E-001  0.1778936E+03  0.7818608E-02  0.1170174E+00
         21   -1    0    0  503  502  0.00000000000E+00  0.00000000000E+00  0.10228780791E+03  0.10228780791E+03  0.00000000000E+00 0. -1.
         21   -1    0    0  501  503 -0.00000000000E+00 -0.00000000000E+00 -0.31948656618E+03  0.31948656618E+03  0.00000000000E+00 0. -1.
          6    2    1    2  501    0 -0.35241118777E+02  0.15526957493E+02 -0.15041289535E+03  0.23295957369E+03  0.17367527465E+03 0.  0.
         24    2    3    3    0    0  0.14118817815E+02  0.18174307341E+02 -0.16185625213E+03  0.18200417932E+03  0.79990177331E+02 0.  0.
         -6    2    1    2    0  502  0.35241118777E+02 -0.15526957493E+02 -0.66785862914E+02  0.18881480040E+03  0.17235908593E+03 0.  0.
        -24    2    5    5    0    0 -0.44566398775E+01  0.21772025532E+02  0.21136720907E+02  0.85279314101E+02  0.79573347976E+02 0.  0.
          5    1    3    3  501    0 -0.49359936592E+02 -0.26473498484E+01  0.11443356782E+02  0.50955394376E+02  0.47000000000E+01 0. -1.
        -11    1    4    4    0    0  0.37528974931E+02  0.34501484484E+02 -0.75879008610E+02  0.91413348799E+02  0.00000000000E+00 0.  1.
         12    1    4    4    0    0 -0.23410157116E+02 -0.16327177143E+02 -0.85977243524E+02  0.90590830516E+02  0.00000000000E+00 0. -1.
         -5    1    5    5    0  502  0.39697758655E+02 -0.37298983025E+02 -0.87922583821E+02  0.10353548630E+03  0.47000000000E+01 0.  1.
         13    1    6    6    0    0  0.29438860168E+02  0.31585887267E+02 -0.17610250613E+01  0.43213608640E+02  0.00000000000E+00 0. -1.
        -14    1    6    6    0    0 -0.33895500046E+02 -0.98138617354E+01  0.22897745968E+02  0.42065705461E+02  0.00000000000E+00 0.  1.
</event>
<event>
12    1  0.1597826E-001  0.2065467E+03  0.7818608E-02  0.1144364E+00
         21   -1    0    0  501  502  0.00000000000E+00  0.00000000000E+00  0.93067613210E+02  0.93067613210E+02  0.00000000000E+00 0.  1.
         21   -1    0    0  502  503 -0.00000000000E+00 -0.00000000000E+00 -0.47284740925E+03  0.47284740925E+03  0.00000000000E+00 0.  1.
         -6    2    1    2    0  503 -0.82480101347E+02 -0.78848939426E+02 -0.24006948951E+03  0.31669367927E+03  0.17216679218E+03 0.  0.
        -24    2    3    3    0    0 -0.99948204634E+02 -0.11138193047E+03 -0.19186889059E+03  0.25579279360E+03  0.78871439952E+02 0.  0.
          6    2    1    2  501    0  0.82480101347E+02  0.78848939426E+02 -0.13971030653E+03  0.24922134319E+03  0.17196565292E+03 0.  0.
         24    2    5    5    0    0  0.94728933503E+02  0.90828224527E+01 -0.50350429728E+02  0.13509587474E+03  0.81606746608E+02 0.  0.
          5    1    5    5  501    0 -0.12248832156E+02  0.69766116974E+02 -0.89359876805E+02  0.11412546845E+03  0.47000000000E+01 0. -1.
        -11    1    6    6    0    0  0.77212463598E+02  0.39253630165E+02 -0.20097639735E+02  0.88918654617E+02  0.00000000000E+00 0.  1.
         12    1    6    6    0    0  0.17516469905E+02 -0.30170807713E+02 -0.30252789994E+02  0.46177220124E+02  0.00000000000E+00 0. -1.
         -5    1    3    3    0  503  0.17468103287E+02  0.32532991041E+02 -0.48200598918E+02  0.60900885663E+02  0.47000000000E+01 0.  1.
         13    1    4    4    0    0 -0.14126070537E+02 -0.12758235746E+02  0.48036972989E+01  0.19631453229E+02  0.00000000000E+00 0. -1.
        -14    1    4    4    0    0 -0.85822134097E+02 -0.98623694722E+02 -0.19667258789E+03  0.23616134037E+03  0.00000000000E+00 0.  1.
</event>
<event>
12    1  0.1597826E-001  0.2968704E+03  0.7818608E-02  0.1087417E+00
         21   -1    0    0  501  502  0.00000000000E+00  0.00000000000E+00  0.10193832742E+04  0.10193832742E+04  0.00000000000E+00 0.  1.
         21   -1    0    0  502  503 -0.00000000000E+00 -0.00000000000E+00 -0.85434726256E+02  0.85434726256E+02  0.00000000000E+00 0.  1.
         -6    2    1    2    0  503  0.23318813072E+03 -0.32141731368E+02  0.43564663946E+03  0.52718119993E+03  0.18089286302E+03 0.  0.
        -24    2    3    3    0    0  0.18975663014E+03 -0.51947885874E+02  0.21902338720E+03  0.30531118750E+03  0.80854904253E+02 0.  0.
          6    2    1    2  501    0 -0.23318813072E+03  0.32141731368E+02  0.49830190852E+03  0.57763680055E+03  0.17305977615E+03 0.  0.
         24    2    5    5    0    0 -0.21254308268E+03 -0.48742333329E+01  0.48041856292E+03  0.53139500451E+03  0.79876999689E+02 0.  0.
          5    1    5    5  501    0 -0.20645048040E+02  0.37015964701E+02  0.17883345597E+02  0.46241796041E+02  0.47000000000E+01 0. -1.
        -13    1    6    6    0    0 -0.18890334153E+03 -0.12787809922E+02  0.34349314310E+03  0.39221873984E+03  0.00000000000E+00 0.  1.
         14    1    6    6    0    0 -0.23639741145E+02  0.79135765894E+01  0.13692541982E+03  0.13917626467E+03  0.00000000000E+00 0. -1.
         -5    1    3    3    0  503  0.43431500572E+02  0.19806154506E+02  0.21662325226E+03  0.22187001244E+03  0.47000000000E+01 0.  1.
         13    1    4    4    0    0  0.54880558495E+02 -0.48940678508E+02  0.10766200317E+03  0.13037704031E+03  0.00000000000E+00 0. -1.
        -14    1    4    4    0    0  0.13487607165E+03 -0.30072073658E+01  0.11136138402E+03  0.17493414719E+03  0.00000000000E+00 0.  1.
</event>
<event>
12    1  0.1597826E-001  0.1809777E+03  0.7818608E-02  0.1167622E+00
         21   -1    0    0  501  502  0.00000000000E+00  0.00000000000E+00  0.32887251892E+03  0.32887251892E+03  0.00000000000E+00 0. -1.
         21   -1    0    0  502  503 -0.00000000000E+00 -0.00000000000E+00 -0.12681397718E+03  0.12681397718E+03  0.00000000000E+00 0.  1.
         -6    2    1    2    0  503  0.44590455102E+02  0.37821635310E+02 -0.71343385794E+01  0.18111827252E+03  0.17127213746E+03 0.  0.
        -24    2    3    3    0    0  0.74394088211E+02 -0.22605736652E+02 -0.18273374798E+02  0.11266469733E+03  0.79460166792E+02 0.  0.
          6    2    1    2  501    0 -0.44590455102E+02 -0.37821635310E+02  0.20919288033E+03  0.27456822358E+03  0.16795018141E+03 0.  0.
         24    2    5    5    0    0 -0.13763738731E+02 -0.77712123261E+02  0.87192344836E+02  0.14247826132E+03  0.80429691929E+02 0.  0.
          5    1    5    5  501    0 -0.30826716372E+02  0.39890487951E+02  0.12200053549E+03  0.13208996227E+03  0.47000000000E+01 0. -1.
        -13    1    6    6    0    0 -0.41996469718E+02 -0.72584023885E+02  0.67906265157E+02  0.10790460991E+03  0.00000000000E+00 0.  1.
         14    1    6    6    0    0  0.28232730987E+02 -0.51280993764E+01  0.19286079680E+02  0.34573651407E+02  0.00000000000E+00 0. -1.
         -5    1    3    3    0  503 -0.29803633108E+02  0.60427371962E+02  0.11139036219E+02  0.68453575192E+02  0.47000000000E+01 0.  1.
         11    1    4    4    0    0  0.53904687871E+02  0.70204049894E+01 -0.42714661787E+02  0.69134244714E+02  0.00000000000E+00 0. -1.
        -12    1    4    4    0    0  0.20489400340E+02 -0.29626141642E+02  0.24441286989E+02  0.43530452611E+02  0.00000000000E+00 0.  1.
</event>
<event>
12    1  0.1597826E-001  0.1776614E+03  0.7818608E-02  0.1170094E+00
         21   -1    0    0  501  502  0.00000000000E+00  0.00000000000E+00  0.84692377028E+03  0.84692377028E+03  0.00000000000E+00 0. -1.
         21   -1    0    0  502  503 -0.00000000000E+00 -0.00000000000E+00 -0.11243236667E+03  0.11243236667E+03  0.00000000000E+00 0. -1.
         -6    2    1    2    0  503 -0.41246755484E+02  0.49460205813E+01 -0.24983732515E+02  0.17937790673E+03  0.17270347007E+03 0.  0.
        -24    2    3    3    0    0  0.21416418067E+02 -0.41863712631E+02 -0.38738184329E+02  0.99822269669E+02  0.79073416510E+02 0.  0.
          6    2    1    2  501    0  0.41246755484E+02 -0.49460205813E+01  0.75947513613E+03  0.77997823022E+03  0.17273621295E+03 0.  0.
         24    2    5    5    0    0  0.55267993024E+02  0.13779783743E+02  0.23336824127E+03  0.25333052476E+03  0.80443677495E+02 0.  0.
          5    1    5    5  501    0 -0.14021237540E+02 -0.18725804324E+02  0.52610689486E+03  0.52664770546E+03  0.47000000000E+01 0. -1.
        -13    1    6    6    0    0  0.10509292432E+02  0.34589002717E+02  0.40683965001E+02  0.54424528887E+02  0.00000000000E+00 0.  1.
         14    1    6    6    0    0  0.44758700592E+02 -0.20809218974E+02  0.19268427627E+03  0.19890599587E+03  0.00000000000E+00 0. -1.
         -5    1    3    3    0  503 -0.62663173551E+02  0.46809733213E+02  0.13754451814E+02  0.79555637058E+02  0.47000000000E+01 0.  1.
         13    1    4    4    0    0 -0.28015082293E+02 -0.30154324928E+02 -0.18802123437E+02  0.45250944670E+02  0.00000000000E+00 0. -1.
        -14    1    4    4    0    0  0.49431500361E+02 -0.11709387703E+02 -0.19936060892E+02  0.54571324999E+02  0.00000000000E+00 0.  1.
</event>
<event>
12    1  0.1597826E-001  0.2011614E+03  0.7818608E-02  0.1150880E+00
         21   -1    0    0  503  502  0.00000000000E+00  0.00000000000E+00  0.36081376411E+02  0.36081376411E+02  0.00000000000E+00 0. -1.
         21   -1    0    0  501  503 -0.00000000000E+00 -0.00000000000E+00 -0.10767847011E+04  0.10767847011E+04  0.00000000000E+00 0. -1.
          6    2    1    2  501    0 -0.69856539323E+02  0.44024062009E+02 -0.58548039950E+03  0.61907448524E+03  0.18343354642E+03 0.  0.
         24    2    3    3    0    0 -0.27702421271E+02 -0.49661809238E+02 -0.29213037423E+03  0.30822027589E+03  0.80161483793E+02 0.  0.
         -6    2    1    2    0  502  0.69856539323E+02 -0.44024062009E+02 -0.45522292514E+03  0.49379159222E+03  0.17258091104E+03 0.  0.
        -24    2    5    5    0    0  0.27725385215E+01 -0.80222800936E+02 -0.23235155348E+03  0.25819797990E+03  0.78965610608E+02 0.  0.
          5    1    3    3  501    0 -0.42154118052E+02  0.93685871247E+02 -0.29335002527E+03  0.31085420934E+03  0.47000000000E+01 0. -1.
        -11    1    4    4    0    0 -0.20892488244E+02 -0.52863762745E+02 -0.93329495964E+02  0.10927702546E+03  0.00000000000E+00 0.  1.
         12    1    4    4    0    0 -0.68099330266E+01  0.32019535071E+01 -0.19880087826E+03  0.19894325043E+03  0.00000000000E+00 0. -1.
         -5    1    5    5    0  502  0.67084000801E+02  0.36198738927E+02 -0.22287137166E+03  0.23559361232E+03  0.47000000000E+01 0.  1.
         13    1    6    6    0    0 -0.24069093950E+02 -0.17143545940E+02 -0.14056151431E+03  0.14363412463E+03  0.00000000000E+00 0. -1.
        -14    1    6    6    0    0  0.26841632471E+02 -0.63079254995E+02 -0.91790039170E+02  0.11456385527E+03  0.00000000000E+00 0.  1.
</event>
<event>
12    1  0.1597826E-001  0.2265373E+03  0.7818608E-02  0.1129242E+00
         21   -1    0    0  503  502  0.00000000000E+00  0.00000000000E+00  0.43143874524E+03  0.43143874524E+03  0.00000000000E+00 0. -1.
         21   -1    0    0  501  503 -0.00000000000E+00 -0.00000000000E+00 -0.14583038062E+03  0.14583038062E+03  0.00000000000E+00 0.  1.
          6    2    1    2  501    0 -0.12621757553E+03 -0.72145237689E+02  0.18137794995E+02  0.22726223967E+03  0.17373351513E+03 0.  0.
         24    2    3    3    0    0 -0.40637577116E+02  0.95758374912E+01  0.53792905013E+02  0.10358666760E+03  0.78060308333E+02 0.  0.
         -6    2    1    2    0  502  0.12621757553E+03  0.72145237689E+02  0.26747056962E+03  0.35000688618E+03  0.17270930220E+03 0.  0.
        -24    2    5    5    0    0  0.10052420264E+03  0.11609742576E+03  0.22046904361E+03  0.28055778472E+03  0.80761028928E+02 0.  0.
          5    1    3    3  501    0 -0.85579998416E+02 -0.81721075181E+02 -0.35655110018E+02  0.12367557207E+03  0.47000000000E+01 0. -1.
        -13    1    4    4    0    0 -0.63334675201E+02  0.13236346763E+02  0.45694895509E+02  0.79211775855E+02  0.00000000000E+00 0.  1.
         14    1    4    4    0    0  0.22697098085E+02 -0.36605092720E+01  0.80980095032E+01  0.24374891744E+02  0.00000000000E+00 0. -1.
         -5    1    5    5    0  502  0.25693372889E+02 -0.43952188068E+02  0.47001526016E+02  0.69449101464E+02  0.47000000000E+01 0.  1.
         13    1    6    6    0    0  0.69422410017E+02  0.43910345497E+02  0.59519714817E+02  0.10144055356E+03  0.00000000000E+00 0. -1.
        -14    1    6    6    0    0  0.31101792625E+02  0.72187080261E+02  0.16094932879E+03  0.17911723116E+03  0.00000000000E+00 0.  1.
</event>
<event>
12    1  0.1597826E-001  0.2132708E+03  0.7818608E-02  0.1139137E+00
         21   -1    0    0  501  502  0.00000000000E+00  0.00000000000E+00  0.83283197714E+03  0.83283197714E+03  0.00000000000E+00 0.  1.
         21   -1    0    0  502  503 -0.00000000000E+00 -0.00000000000E+00 -0.13116829068E+03  0.13116829068E+03  0.00000000000E+00 0. -1.
         -6    2    1    2    0  503  0.27454295104E+02 -0.12406846529E+03 -0.18062565151E+02  0.21334034025E+03  0.17041455958E+03 0.  0.
        -24    2    3    3    0    0  0.25278493229E+02 -0.14955445677E+03 -0.43603207846E+02  0.17688921811E+03  0.79893791939E+02 0.  0.
          6    2    1    2  501    0 -0.27454295104E+02  0.12406846529E+03  0.71972625160E+03  0.75065992757E+03  0.17128259462E+03 0.  0.
         24    2    5    5    0    0 -0.71486627752E+02  0.10497336084E+03  0.40156727182E+03  0.42886698833E+03  0.80875678960E+02 0.  0.
          5    1    5    5  501    0  0.44032332648E+02  0.19095104449E+02  0.31815897978E+03  0.32179293924E+03  0.47000000000E+01 0. -1.
        -13    1    6    6    0    0 -0.52712977124E+02  0.20333242306E+02  0.22741319110E+03  0.23432639243E+03  0.00000000000E+00 0.  1.
         14    1    6    6    0    0 -0.18773650628E+02  0.84640118535E+02  0.17415408072E+03  0.19454059590E+03  0.00000000000E+00 0. -1.
         -5    1    3    3    0  503  0.21758018756E+01  0.25485991479E+02  0.25540642695E+02  0.36451122133E+02  0.47000000000E+01 0.  1.
         11    1    4    4    0    0  0.16570254522E+02 -0.81061649265E+02  0.17639602387E+02  0.84597398831E+02  0.00000000000E+00 0. -1.
        -12    1    4    4    0    0  0.87082387065E+01 -0.68492807504E+02 -0.61242810232E+02  0.92291819282E+02  0.00000000000E+00 0.  1.
</event>
<event>
12    1  0.1597826E-001  0.2211103E+03  0.7818608E-02  0.1134889E+00
         21   -1    0    0  503  502  0.00000000000E+00  0.00000000000E+00  0.81530597800E+02  0.81530597800E+02  0.00000000000E+00 0.  1.
         21   -1    0    0  501  503 -0.00000000000E+00 -0.00000000000E+00 -0.67386645501E+03  0.67386645501E+03  0.00000000000E+00 0. -1.
          6    2    1    2  501    0  0.36615460407E+02 -0.13287837028E+03 -0.15624551673E+03  0.27074421706E+03  0.17289423455E+03 0.  0.
         24    2    3    3    0    0  0.18571709250E+01 -0.95001675977E+02 -0.31798393108E+02  0.13601500999E+03  0.91979223824E+02 0.  0.
         -6    2    1    2    0  502 -0.36615460407E+02  0.13287837028E+03 -0.43609034048E+03  0.48465283576E+03  0.16036281651E+03 0.  0.
        -24    2    5    5    0    0 -0.51636284936E+02  0.60602519997E+02 -0.36733173508E+03  0.38366145236E+03  0.76971001547E+02 0.  0.
          5    1    3    3  501    0  0.34758289482E+02 -0.37876694303E+02 -0.12444712363E+03  0.13472920707E+03  0.47000000000E+01 0. -1.
        -11    1    4    4    0    0  0.17545193517E+02 -0.96619039380E+02  0.25357708251E+01  0.98231882401E+02  0.00000000000E+00 0.  1.
         12    1    4    4    0    0 -0.15688022592E+02  0.16173634032E+01 -0.34334163933E+02  0.37783127587E+02  0.00000000000E+00 0. -1.
         -5    1    5    5    0  502  0.15020824529E+02  0.72275850283E+02 -0.68758605400E+02  0.10099138340E+03  0.47000000000E+01 0.  1.
         11    1    6    6    0    0  0.19557245708E+02  0.16010962981E+02 -0.11386564509E+03  0.11663713786E+03  0.00000000000E+00 0. -1.
        -12    1    6    6    0    0 -0.71193530644E+02  0.44591557016E+02 -0.25346608999E+03  0.26702431450E+03  0.00000000000E+00 0.  1.
</event>
<event>
12    1  0.1597826E-001  0.1876453E+03  0.7818608E-02  0.1160867E+00
         21   -1    0    0  501  502  0.00000000000E+00  0.00000000000E+00  0.28292927947E+03  0.28292927947E+03  0.00000000000E+00 0. -1.
         21   -1    0    0  502  503 -0.00000000000E+00 -0.00000000000E+00 -0.19954568560E+03  0.19954568560E+03  0.00000000000E+00 0. -1.
         -6    2    1    2    0  503  0.71843723194E+02  0.16309197979E+02 -0.10696718753E+03  0.21599245500E+03  0.17257824575E+03 0.  0.
        -24    2    3    3    0    0  0.36146706809E+02  0.66088036835E+02 -0.24446333818E+02  0.11311392918E+03  0.80764625375E+02 0.  0.
          6    2    1    2  501    0 -0.71843723194E+02 -0.16309197979E+02  0.19035078140E+03  0.26648251007E+03  0.17132424724E+03 0.  0.
         24    2    5    5    0    0 -0.67587211362E+02  0.23290028118E+02  0.46458040190E+02  0.11710571276E+03  0.80280395579E+02 0.  0.
          5    1    5    5  501    0 -0.42565118323E+01 -0.39599226097E+02  0.14389274121E+03  0.14937679731E+03  0.47000000000E+01 0. -1.
        -11    1    6    6    0    0 -0.53489861186E+02  0.52035737791E+02  0.39128455764E+02  0.84261018909E+02  0.00000000000E+00 0.  1.
         12    1    6    6    0    0 -0.14097350176E+02 -0.28745709673E+02  0.73295844259E+01  0.32844693855E+02  0.00000000000E+00 0. -1.
         -5    1    3    3    0  503  0.35697016385E+02 -0.49778838856E+02 -0.82520853715E+02  0.10287852582E+03  0.47000000000E+01 0.  1.
         11    1    4    4    0    0  0.59813241833E+02  0.42094474474E+02 -0.29821034583E+02  0.78986472155E+02  0.00000000000E+00 0. -1.
        -12    1    4    4    0    0 -0.23666535024E+02  0.23993562362E+02  0.53747007653E+01  0.34127457027E+02  0.00000000000E+00 0.  1.
</event>
<event>
12    1  0.1597826E-001  0.1763296E+03  0.7818608E-02  0.1171535E+00
         21   -1    0    0  503  502  0.00000000000E+00  0.00000000000E+00  0.41442781121E+03  0.41442781121E+03  0.00000000000E+00 0.  1.
         21   -1    0    0  501  503 -0.00000000000E+00 -0.00000000000E+00 -0.12973586681E+03  0.12973586681E+03  0.00000000000E+00 0.  1.
          6    2    1    2  501    0 -0.36851390505E+02 -0.18616633035E+02 -0.34582846448E+02  0.17968892499E+03  0.17142792214E+03 0.  0.
         24    2    3    3    0    0 -0.46217419864E+02 -0.52501992917E+02  0.26513790253E+02  0.10904312443E+03  0.79340486218E+02 0.  0.
         -6    2    1    2    0  502  0.36851390505E+02  0.18616633035E+02  0.31927479086E+03  0.36447475303E+03  0.17088256058E+03 0.  0.
        -24    2    5    5    0    0  0.51157551588E+00 -0.51972760631E+02  0.15124940418E+03  0.17857675622E+03  0.79447127313E+02 0.  0.
          5    1    3    3  501    0  0.93660293586E+01  0.33885359882E+02 -0.61096636701E+02  0.70645800558E+02  0.47000000000E+01 0. -1.
        -13    1    4    4    0    0  0.17926998869E+02 -0.59715127582E+01  0.22938180257E+02  0.29718619863E+02  0.00000000000E+00 0.  1.
         14    1    4    4    0    0 -0.64144418733E+02 -0.46530480159E+02  0.35756099961E+01  0.79324504570E+02  0.00000000000E+00 0. -1.
         -5    1    5    5    0  502  0.36339814990E+02  0.70589393667E+02  0.16802538668E+03  0.18589799681E+03  0.47000000000E+01 0.  1.
         13    1    6    6    0    0 -0.86847336665E+01  0.82620559488E+01  0.94670715134E+02  0.95426571097E+02  0.00000000000E+00 0. -1.
        -14    1    6    6    0    0  0.91963091824E+01 -0.60234816580E+02  0.56578689047E+02  0.83150185119E+02  0.00000000000E+00 0.  1.
</event>
<event>
12    1  0.1597826E-001  0.1774121E+03  0.7818608E-02  0.1170788E+00
         21   -1    0    0  503  502  0.00000000000E+00  0.00000000000E+00  0.13408864835E+03  0.13408864835E+03  0.00000000000E+00 0. -1.
         21   -1    0    0  501  503 -0.00000000000E+00 -0.00000000000E+00 -0.63287035569E+03  0.63287035569E+03  0.00000000000E+00 0. -1.
          6    2    1    2  501    0  0.32329630614E+02 -0.15317567776E+02 -0.55495268804E+03  0.58262125871E+03  0.17376769619E+03 0.  0.
         24    2    3    3    0    0  0.46956451330E+02 -0.37716734292E+02 -0.54417739801E+03  0.55340031724E+03  0.80594108053E+02 0.  0.
         -6    2    1    2    0  502 -0.32329630614E+02  0.15317567776E+02  0.56170980699E+02  0.18433774534E+03  0.17188773193E+03 0.  0.
        -24    2    5    5    0    0  0.31524589393E+02 -0.27891368264E+02  0.41185789431E+02  0.10565471335E+03  0.87720699047E+02 0.  0.
          5    1    3    3  501    0 -0.14626820716E+02  0.22399166517E+02 -0.10775290030E+02  0.29220941466E+02  0.47000000000E+01 0. -1.
        -11    1    4    4    0    0  0.14736427476E+02 -0.25182235779E+02 -0.49083244664E+02  0.57100544659E+02  0.00000000000E+00 0.  1.
         12    1    4    4    0    0  0.32220023854E+02 -0.12534498514E+02 -0.49509415334E+03  0.49629977258E+03  0.00000000000E+00 0. -1.
         -5    1    5    5    0  502 -0.63854220007E+02  0.43208936040E+02  0.14985191268E+02  0.78683031994E+02  0.47000000000E+01 0.  1.
         11    1    6    6    0    0 -0.27646137034E+02 -0.26138641993E+02  0.17828809783E+02  0.42016710443E+02  0.00000000000E+00 0. -1.
        -12    1    6    6    0    0  0.59170726428E+02 -0.17527262713E+01  0.23356979648E+02  0.63638002904E+02  0.00000000000E+00 0.  1.
</event>
<event>
12    1  0.1597826E-001  0.2875946E+03  0.7818608E-02  0.1091634E+00
         21   -1    0    0  503  502  0.00000000000E+00  0.00000000000E+00  0.10070573251E+04  0.10070573251E+04  0.00000000000E+00 0. -1.
         21   -1    0    0  501  503 -0.00000000000E+00 -0.00000000000E+00 -0.17519324317E+03  0.17519324317E+03  0.00000000000E+00 0. -1.
          6    2    1    2  501    0 -0.14163008191E+03  0.18188830362E+03 -0.14954892597E+02  0.28798313440E+03  0.17195406885E+03 0.  0.
         24    2    3    3    0    0 -0.36348976249E+02  0.13251630805E+03  0.30683576047E+02  0.16297647468E+03  0.82085501082E+02 0.  0.
         -6    2    1    2    0  502  0.14163008191E+03 -0.18188830362E+03  0.84681897449E+03  0.89426743383E+03  0.17166663204E+03 0.  0.
        -24    2    5    5    0    0  0.48836840725E+02 -0.13333889784E+03  0.66345684709E+03  0.68305334771E+03  0.78883389754E+02 0.  0.
          5    1    3    3  501    0 -0.10528110566E+03  0.49371995571E+02 -0.45638468644E+02  0.12500665972E+03  0.47000000000E+01 0. -1.
        -11    1    4    4    0    0  0.17430206770E+02  0.19250504216E+02  0.27109310782E+02  0.37540761203E+02  0.00000000000E+00 0.  1.
         12    1    4    4    0    0 -0.53779183019E+02  0.11326580383E+03  0.35742652646E+01  0.12543571348E+03  0.00000000000E+00 0. -1.
         -5    1    5    5    0  502  0.92793241181E+02 -0.48549405774E+02  0.18336212740E+03  0.21121408612E+03  0.47000000000E+01 0.  1.
         11    1    6    6    0    0  0.30198863157E+02 -0.11859806320E+03  0.39445293950E+03  0.41300192906E+03  0.00000000000E+00 0. -1.
        -12    1    6    6    0    0  0.18637977568E+02 -0.14740834638E+02  0.26900390760E+03  0.27005141865E+03  0.00000000000E+00 0.  1.
</event>
<event>
12    1  0.1597826E-001  0.2294581E+03  0.7818608E-02  0.1127068E+00
         21   -1    0    0  501  502  0.00000000000E+00  0.00000000000E+00  0.57346735616E+03  0.57346735616E+03  0.00000000000E+00 0.  1.
         21   -1    0    0  502  503 -0.00000000000E+00 -0.00000000000E+00 -0.96973271004E+02  0.96973271004E+02  0.00000000000E+00 0.  1.
         -6    2    1    2    0  503 -0.12072667851E+03 -0.91269239383E+02  0.16026296797E+03  0.27988431492E+03  0.17247030433E+03 0.  0.
        -24    2    3    3    0    0 -0.11905029008E+03 -0.11343348629E+03  0.17463449808E+03  0.25300132780E+03  0.80450833226E+02 0.  0.
          6    2    1    2  501    0  0.12072667851E+03  0.91269239383E+02  0.31623111719E+03  0.39055631224E+03  0.17212527005E+03 0.  0.
         24    2    5    5    0    0  0.11709487418E+03  0.11976097837E+03  0.20523095813E+03  0.27580399416E+03  0.76773664255E+02 0.  0.
          5    1    5    5  501    0  0.36318043335E+01 -0.28491738984E+02  0.11100015905E+03  0.11475231807E+03  0.47000000000E+01 0. -1.
        -13    1    6    6    0    0  0.10795637240E+03  0.11500188450E+03  0.21142560900E+03  0.26378172780E+03  0.00000000000E+00 0.  1.
         14    1    6    6    0    0  0.91385017741E+01  0.47590938678E+01 -0.61946508682E+01  0.12022266363E+02  0.00000000000E+00 0. -1.
         -5    1    3    3    0  503 -0.16763884289E+01  0.22164246903E+02 -0.14371530117E+02  0.26882987126E+02  0.47000000000E+01 0.  1.
         13    1    4    4    0    0 -0.65864914975E+01 -0.62090890054E+01  0.58022647801E+02  0.58724460954E+02  0.00000000000E+00 0. -1.
        -14    1    4    4    0    0 -0.11246379858E+03 -0.10722439728E+03  0.11661185028E+03  0.19427686684E+03  0.00000000000E+00 0.  1.
</event>
<event>
12    1  0.1597826E-001  0.1828798E+03  0.7818608E-02  0.1165689E+00
         21   -1    0    0  503  502  0.00000000000E+00  0.00000000000E+00  0.11945012041E+04  0.11945012041E+04  0.00000000000E+00 0. -1.
         21   -1    0    0  501  503 -0.00000000000E+00 -0.00000000000E+00 -0.11632373262E+03  0.11632373262E+03  0.00000000000E+00 0. -1.
          6    2    1    2  501    0 -0.11728336350E+02  0.63263778703E+02 -0.34296893657E+02  0.18341895523E+03  0.16830441662E+03 0.  0.
         24    2    3    3    0    0 -0.52349381956E+02  0.12431584523E+02  0.20079267811E+02  0.98490525082E+02  0.80013776628E+02 0.  0.
         -6    2    1    2    0  502  0.11728336350E+02 -0.63263778703E+02  0.11124743651E+04  0.11274059815E+04  0.17118754171E+03 0.  0.
        -24    2    5    5    0    0  0.11169883393E+02 -0.10870494852E+03  0.71517611416E+03  0.72748948769E+03  0.76305624305E+02 0.  0.
          5    1    3    3  501    0  0.40621045606E+02  0.50832194180E+02 -0.54376161468E+02  0.84928430148E+02  0.47000000000E+01 0. -1.
        -13    1    4    4    0    0 -0.70875484945E+02  0.19568283571E+02  0.52576720219E+01  0.73714959155E+02  0.00000000000E+00 0.  1.
         14    1    4    4    0    0  0.18526102989E+02 -0.71366990480E+01  0.14821595790E+02  0.24775565927E+02  0.00000000000E+00 0. -1.
         -5    1    5    5    0  502  0.55845295712E+00  0.45441169821E+02  0.39729825099E+03  0.39991649381E+03  0.47000000000E+01 0.  1.
         11    1    6    6    0    0 -0.32637568598E+02 -0.37993321969E+02  0.27374670008E+03  0.27829114108E+03  0.00000000000E+00 0. -1.
        -12    1    6    6    0    0  0.43807451991E+02 -0.70711626555E+02  0.44142941408E+03  0.44919834661E+03  0.00000000000E+00 0.  1.
</event>
<event>
12    1  0.1597826E-001  0.1910257E+03  0.7818608E-02  0.1159344E+00
         21   -1    0    0  501  502  0.00000000000E+00  0.00000000000E+00  0.97075536275E+03  0.97075536275E+03  0.00000000000E+00 0.  1.
         21   -1    0    0  502  503 -0.00000000000E+00 -0.00000000000E+00 -0.66924002808E+02  0.66924002808E+02  0.00000000000E+00 0.  1.
         -6    2    1    2    0  503  0.72714545329E+02 -0.40453038833E+02  0.10471397309E+03  0.21784363131E+03  0.17195051058E+03 0.  0.
        -24    2    3    3    0    0 -0.11693429561E+02 -0.90315824391E+01  0.98258086965E+02  0.12742359696E+03  0.79773527130E+02 0.  0.
          6    2    1    2  501    0 -0.72714545329E+02  0.40453038833E+02  0.79911738685E+03  0.81983573425E+03  0.16315078833E+03 0.  0.
         24    2    5    5    0    0 -0.54691291266E+02 -0.36523455087E+02  0.47292330688E+03  0.48416493405E+03  0.80213022976E+02 0.  0.
          5    1    5    5  501    0 -0.18023254063E+02  0.76976493920E+02  0.32619407997E+03  0.33567080020E+03  0.47000000000E+01 0. -1.
        -13    1    6    6    0    0 -0.36227489552E+02  0.21358876774E+02  0.16263643231E+03  0.16798583789E+03  0.00000000000E+00 0.  1.
         14    1    6    6    0    0 -0.18463801714E+02 -0.57882331861E+02  0.31028687457E+03  0.31617909615E+03  0.00000000000E+00 0. -1.
         -5    1    3    3    0  503  0.84407974889E+02 -0.31421456394E+02  0.64558861275E+01  0.90420034353E+02  0.47000000000E+01 0.  1.
         13    1    4    4    0    0 -0.45710406118E+02 -0.20417386103E+01  0.63707322634E+02  0.78436170745E+02  0.00000000000E+00 0. -1.
        -14    1    4    4    0    0  0.34016976557E+02 -0.69898438289E+01  0.34550764332E+02  0.48987426211E+02  0.00000000000E+00 0.  1.
</event>
<event>
12    1  0.1597826E-001  0.2295648E+03  0.7818608E-02  0.1126967E+00
         21   -1    0    0  503  502  0.00000000000E+00  0.00000000000E+00  0.23942273933E+03  0.23942273933E+03  0.00000000000E+00 0. -1.
         21   -1    0    0  501  503 -0.00000000000E+00 -0.00000000000E+00 -0.25779386442E+03  0.25779386442E+03  0.00000000000E+00 0. -1.
          6    2    1    2  501    0  0.14636882379E+03  0.42588320793E+02 -0.10437041952E+03  0.25207199950E+03  0.17149201385E+03 0.  0.
         24    2    3    3    0    0  0.69125765700E+02  0.38390582489E+01 -0.12502106296E+03  0.16309709042E+03  0.78595705156E+02 0.  0.
         -6    2    1    2    0  502 -0.14636882379E+03 -0.42588320793E+02  0.85999294425E+02  0.24514460425E+03  0.17164614969E+03 0.  0.
        -24    2    5    5    0    0 -0.11303440073E+03 -0.92638273536E+02  0.78526528414E+02  0.18436538278E+03  0.80408663902E+02 0.  0.
          5    1    3    3  501    0  0.77243058088E+02  0.38749262544E+02  0.20650643443E+02  0.88974909076E+02  0.47000000000E+01 0. -1.
        -11    1    4    4    0    0  0.63395394775E+02 -0.30154930641E+02 -0.81136319418E+02  0.10729118440E+03  0.00000000000E+00 0.  1.
         12    1    4    4    0    0  0.57303709257E+01  0.33993988890E+02 -0.43884743541E+02  0.55805906026E+02  0.00000000000E+00 0. -1.
         -5    1    5    5    0  502 -0.33334423056E+02  0.50049952743E+02  0.74727660105E+01  0.60779221465E+02  0.47000000000E+01 0.  1.
         13    1    6    6    0    0 -0.26446628693E+02 -0.21207413121E+02  0.62332540822E+02  0.70954381019E+02  0.00000000000E+00 0. -1.
        -14    1    6    6    0    0 -0.86587772040E+02 -0.71430860415E+02  0.16193987592E+02  0.11341100176E+03  0.00000000000E+00 0.  1.
</event>
<event>
12    1  0.1597826E-001  0.1942746E+03  0.7818608E-02  0.1154869E+00
         21   -1    0    0  501  502  0.00000000000E+00  0.00000000000E+00  0.72772956170E+02  0.72772956170E+02  0.00000000000E+00 0.  1.
         21   -1    0    0  502  503 -0.00000000000E+00 -0.00000000000E+00 -0.55605810695E+03  0.55605810695E+03  0.00000000000E+00 0.  1.
         -6    2    1    2    0  503 -0.88345497330E+02 -0.62706927321E+01 -0.32645109163E+03  0.37988543662E+03  0.17291148383E+03 0.  0.
        -24    2    3    3    0    0 -0.10139141350E+03  0.21173305049E+02 -0.14761019365E+03  0.19842049308E+03  0.82785235546E+02 0.  0.
          6    2    1    2  501    0  0.88345497330E+02  0.62706927321E+01 -0.15683405915E+03  0.24894562650E+03  0.17185096555E+03 0.  0.
         24    2    5    5    0    0  0.93360858658E+02  0.47894958880E+02 -0.62741509333E+02  0.14582806586E+03  0.79493086397E+02 0.  0.
          5    1    5    5  501    0 -0.50153613280E+01 -0.41624266148E+02 -0.94092549813E+02  0.10311756064E+03  0.47000000000E+01 0. -1.
        -11    1    6    6    0    0  0.46633574296E+02  0.20477318686E+02 -0.74638585584E+02  0.90359998285E+02  0.00000000000E+00 0.  1.
         12    1    6    6    0    0  0.46727284362E+02  0.27417640194E+02  0.11897076251E+02  0.55468067579E+02  0.00000000000E+00 0. -1.
         -5    1    3    3    0  503  0.13045916174E+02 -0.27443997781E+02 -0.17884089798E+03  0.18146494354E+03  0.47000000000E+01 0.  1.
         11    1    4    4    0    0 -0.29961427095E+02  0.47256799343E+02 -0.53362202828E+02  0.77320223023E+02  0.00000000000E+00 0. -1.
        -12    1    4    4    0    0 -0.71429986410E+02 -0.26083494294E+02 -0.94247990826E+02  0.12110027006E+03  0.00000000000E+00 0.  1.
</event>
<event>
12    1  0.1597826E-001  0.2815104E+03  0.7818608E-02  0.1095007E+00
         21   -1    0    0  501  502  0.00000000000E+00  0.00000000000E+00  0.84939639419E+03  0.84939639419E+03  0.00000000000E+00 0.  1.
         21   -1    0    0  502  503 -0.00000000000E+00 -0.00000000000E+00 -0.28141134864E+03  0.28141134864E+03  0.00000000000E+00 0. -1.
         -6    2    1    2    0  503 -0.17212575492E+03 -0.13968323422E+03 -0.17886772801E+03  0.33266167144E+03  0.17184714745E+03 0.  0.
        -24    2    3    3    0    0 -0.12444670556E+02 -0.78448839753E+02 -0.67726394362E+02  0.12864651069E+03  0.75192884867E+02 0.  0.
          6    2    1    2  501    0  0.17212575492E+03  0.13968323422E+03  0.74685277356E+03  0.79814607139E+03  0.17352061687E+03 0.  0.
         24    2    5    5    0    0  0.68050809563E+02  0.24417523724E+02  0.17680042774E+03  0.20729960636E+03  0.80545685179E+02 0.  0.
          5    1    5    5  501    0  0.10407494536E+03  0.11526571050E+03  0.57005234582E+03  0.59084646504E+03  0.47000000000E+01 0. -1.
        -11    1    6    6    0    0  0.24171630905E+01 -0.12980123487E+02  0.95162644455E+02  0.96074217055E+02  0.00000000000E+00 0.  1.
         12    1    6    6    0    0  0.65633646472E+02  0.37397647211E+02  0.81637783281E+02  0.11122538930E+03  0.00000000000E+00 0. -1.
         -5    1    3    3    0  503 -0.15968108437E+03 -0.61234394469E+02 -0.11114133365E+03  0.20401516075E+03  0.47000000000E+01 0.  1.
         13    1    4    4    0    0 -0.35327830029E+02 -0.96498950659E+01 -0.26876752707E+02  0.45426158603E+02  0.00000000000E+00 0. -1.
        -14    1    4    4    0    0  0.22883159473E+02 -0.68798944687E+02 -0.40849641655E+02  0.83220352083E+02  0.00000000000E+00 0.  1.
</event>
<event>
12    1  0.1597826E-001  0.2240772E+03  0.7818608E-02  0.1131210E+00
         21   -1    0    0  501  502  0.00000000000E+00  0.00000000000E+00  0.46635259485E+03  0.46635259485E+03  0.00000000000E+00 0.  1.
         21   -1    0    0  502  503 -0.00000000000E+00 -0.00000000000E+00 -0.12856598478E+03  0.12856598478E+03  0.00000000000E+00 0.  1.
         -6    2    1    2    0  503 -0.23814178727E+01  0.14142414825E+03  0.47069558676E+02  0.22896750080E+03  0.17379330312E+03 0.  0.
        -24    2    3    3    0    0 -0.49658072131E+02  0.35173424488E+02  0.48856838471E+02  0.11256482597E+03  0.81121855642E+02 0.  0.
          6    2    1    2  501    0  0.23814178727E+01 -0.14142414825E+03  0.29071705140E+03  0.36595107884E+03  0.17145648798E+03 0.  0.
         24    2    5    5    0    0  0.45566549983E+02 -0.45604555542E+02  0.17947581537E+03  0.21283983636E+03  0.94515298627E+02 0.  0.
          5    1    5    5  501    0 -0.43185132110E+02 -0.95819592704E+02  0.11124123603E+03  0.15311124248E+03  0.47000000000E+01 0. -1.
        -11    1    6    6    0    0 -0.86909585943E+01 -0.56932329801E+02  0.10794401579E+03  0.12234677553E+03  0.00000000000E+00 0.  1.
         12    1    6    6    0    0  0.54257508577E+02  0.11327774259E+02  0.71531799579E+02  0.90493060826E+02  0.00000000000E+00 0. -1.
         -5    1    3    3    0  503  0.47276654258E+02  0.10625072376E+03 -0.17872797951E+01  0.11640267482E+03  0.47000000000E+01 0.  1.
         13    1    4    4    0    0 -0.45866929394E+02  0.60283992814E+02  0.40056050659E+02  0.85687934950E+02  0.00000000000E+00 0. -1.
        -14    1    4    4    0    0 -0.37911427372E+01 -0.25110568326E+02  0.88007878117E+01  0.26876891022E+02  0.00000000000E+00 0.  1.
</event>
<event>
12    1  0.1597826E-001  0.1988015E+03  0.7818608E-02  0.1151246E+00
         21   -1    0    0  503  502  0.00000000000E+00  0.00000000000E+00  0.51308901622E+03  0.51308901622E+03  0.00000000000E+00 0.  1.
         21   -1    0    0  501  503 -0.00000000000E+00 -0.00000000000E+00 -0.17055545997E+03  0.17055545997E+03  0.00000000000E+00 0.  1.
          6    2    1    2  501    0  0.45455069878E+02 -0.84250975020E+02 -0.82612438875E+02  0.21528316666E+03  0.17423443007E+03 0.  0.
         24    2    3    3    0    0  0.94119378991E+02 -0.76723062082E+02 -0.79687609593E+02  0.16572987130E+03  0.79820983221E+02 0.  0.
         -6    2    1    2    0  502 -0.45455069878E+02  0.84250975020E+02  0.42514599513E+03  0.46836130952E+03  0.17160655266E+03 0.  0.
        -24    2    5    5    0    0  0.14299210138E+02 -0.10200062635E+02  0.17357710835E+03  0.19304228132E+03  0.82630509781E+02 0.  0.
          5    1    3    3  501    0 -0.48664309113E+02 -0.75279129388E+01 -0.29248292820E+01  0.49553295360E+02  0.47000000000E+01 0. -1.
        -11    1    4    4    0    0  0.49000730080E+02 -0.64515864592E+02 -0.86478211368E+02  0.11849830958E+03  0.00000000000E+00 0.  1.
         12    1    4    4    0    0  0.45118648911E+02 -0.12207197490E+02  0.67906017744E+01  0.47231561721E+02  0.00000000000E+00 0. -1.
         -5    1    5    5    0  502 -0.59754280016E+02  0.94451037655E+02  0.25156888678E+03  0.27531902820E+03  0.47000000000E+01 0.  1.
         11    1    6    6    0    0 -0.14673422575E+02  0.17406532432E+01 -0.18017807392E+01  0.14885752169E+02  0.00000000000E+00 0. -1.
        -12    1    6    6    0    0  0.28972632714E+02 -0.11940715878E+02  0.17537888909E+03  0.17815652915E+03  0.00000000000E+00 0.  1.
</event>
<event>
12    1  0.1597826E-001  0.1839661E+03  0.7818608E-02  0.1164473E+00
         21   -1    0    0  503  502  0.00000000000E+00  0.00000000000E+00  0.59407631680E+03  0.59407631680E+03  0.00000000000E+00 0. -1.
         21   -1    0    0  501  503 -0.00000000000E+00 -0.00000000000E+00 -0.61361509942E+02  0.61361509942E+02  0.00000000000E+00 0. -1.
          6    2    1    2  501    0 -0.59709005074E+02 -0.15421029767E+02  0.17165036654E+03  0.25020818597E+03  0.17128138997E+03 0.  0.
         24    2    3    3    0    0 -0.59995533806E+02 -0.65136129468E+02  0.14962593522E+03  0.19562944641E+03  0.89670398543E+02 0.  0.
         -6    2    1    2    0  502  0.59709005074E+02  0.15421029767E+02  0.36106444032E+03  0.40522964076E+03  0.17332212279E+03 0.  0.
        -24    2    5    5    0    0  0.95364021327E+02  0.42387340915E+02  0.21229964839E+03  0.24982206232E+03  0.80305285522E+02 0.  0.
          5    1    3    3  501    0  0.28652873159E+00  0.49715099702E+02  0.22024431320E+02  0.54578739561E+02  0.47000000000E+01 0. -1.
        -13    1    4    4    0    0  0.36660409497E+01 -0.21096097832E+02 -0.56346203508E+01  0.22141231820E+02  0.00000000000E+00 0.  1.
         14    1    4    4    0    0 -0.63661574756E+02 -0.44040031636E+02  0.15526055557E+03  0.17348821459E+03  0.00000000000E+00 0. -1.
         -5    1    5    5    0  502 -0.35655016252E+02 -0.26966311148E+02  0.14876479193E+03  0.15540757845E+03  0.47000000000E+01 0.  1.
         11    1    6    6    0    0  0.25004077197E+02 -0.22635398156E+02  0.37105320376E+02  0.50143493361E+02  0.00000000000E+00 0. -1.
        -12    1    6    6    0    0  0.70359944129E+02  0.65022739071E+02  0.17519432801E+03  0.19967856896E+03  0.00000000000E+00 0.  1.
</event>
<event>
12    1  0.1597826E-001  0.1762348E+03  0.7818608E-02  0.1171919E+00
         21   -1    0    0  503  502  0.00000000000E+00  0.00000000000E+00  0.44953224616E+03  0.44953224616E+03  0.00000000000E+00 0.  1.
         21   -1    0    0  501  503 -0.00000000000E+00 -0.00000000000E+00 -0.82385148213E+02  0.82385148213E+02  0.00000000000E+00 0.  1.
          6    2    1    2  501    0  0.39421456667E+02  0.11343544741E+02  0.29375974703E+03  0.34256894495E+03  0.17139418256E+03 0.  0.
         24    2    3    3    0    0  0.38434989695E+02 -0.59795531184E+02  0.16580042890E+03  0.19608543619E+03  0.76856763407E+02 0.  0.
         -6    2    1    2    0  502 -0.39421456667E+02 -0.11343544741E+02  0.73387350911E+02  0.18934844942E+03  0.16965967338E+03 0.  0.
        -24    2    5    5    0    0 -0.10141146370E+02  0.86627107740E+01 -0.34119094395E+02  0.76046584417E+02  0.66641466007E+02 0.  0.
          5    1    3    3  501    0  0.98646697156E+00  0.71139075925E+02  0.12795931813E+03  0.14648350876E+03  0.47000000000E+01 0. -1.
        -13    1    4    4    0    0  0.20126654243E+02 -0.35642841779E+01  0.11880160072E+03  0.12054711388E+03  0.00000000000E+00 0.  1.
         14    1    4    4    0    0  0.18308335452E+02 -0.56231247006E+02  0.46998828182E+02  0.75538322310E+02  0.00000000000E+00 0. -1.
         -5    1    5    5    0  502 -0.29280310297E+02 -0.20006255515E+02  0.10750644531E+03  0.11330186500E+03  0.47000000000E+01 0.  1.
         11    1    6    6    0    0  0.17962392855E+00  0.68052834492E+01  0.19893163698E+02  0.21025748726E+02  0.00000000000E+00 0. -1.
        -12    1    6    6    0    0 -0.10320770298E+02  0.18574273248E+01 -0.54012258093E+02  0.55020835691E+02  0.00000000000E+00 0.  1.
</event>
<event>
12    1  0.1597826E-001  0.1909977E+03  0.7818608E-02  0.1158256E+00
         21   -1    0    0  503  502  0.00000000000E+00  0.00000000000E+00  0.16495935028E+03  0.16495935028E+03  0.00000000000E+00 0.  1.
         21   -1    0    0  501  503 -0.00000000000E+00 -0.00000000000E+00 -0.75386823374E+03  0.75386823374E+03  0.00000000000E+00 0. -1.
          6    2    1    2  501    0 -0.74355400821E+02 -0.20847422680E+02 -0.68261023085E+03  0.70882778625E+03  0.17469047666E+03 0.  0.
         24    2    3    3    0    0  0.77773492334E+01  0.34563465279E+02 -0.40449413480E+03  0.41355366274E+03  0.78460222915E+02 0.  0.
         -6    2    1    2    0  502  0.74355400821E+02  0.20847422680E+02  0.93701347383E+02  0.20999979778E+03  0.17133777138E+03 0.  0.
        -24    2    5    5    0    0  0.44413144740E+02 -0.54241580700E+02  0.62155298608E+02  0.12309674650E+03  0.79842666239E+02 0.  0.
          5    1    3    3  501    0 -0.82132750054E+02 -0.55410887959E+02 -0.27811609604E+03  0.29527412351E+03  0.47000000000E+01 0. -1.
        -13    1    4    4    0    0  0.89710246944E+01  0.29707679649E+02 -0.48844703969E+02  0.57869081727E+02  0.00000000000E+00 0.  1.
         14    1    4    4    0    0 -0.11936754609E+01  0.48557856300E+01 -0.35564943083E+03  0.35568458101E+03  0.00000000000E+00 0. -1.
         -5    1    5    5    0  502  0.29942256081E+02  0.75089003381E+02  0.31546048774E+02  0.86903051277E+02  0.47000000000E+01 0.  1.
         11    1    6    6    0    0  0.33980118359E+02 -0.29680472446E+02 -0.99590448043E+01  0.46203478892E+02  0.00000000000E+00 0. -1.
        -12    1    6    6    0    0  0.10433026381E+02 -0.24561108254E+02  0.72114343413E+02  0.76893267612E+02  0.00000000000E+00 0.  1.
</event>
<event>
12    1  0.1597826E-001  0.2434933E+03  0.7818608E-02  0.1117574E+00
         21   -1    0    0  501  502  0.00000000000E+00  0.00000000000E+00  0.87153049699E+02  0.87153049699E+02  0.00000000000E+00 0.  1.
         21   -1    0    0  502  503 -0.00000000000E+00 -0.00000000000E+00 -0.97560112334E+03  0.97560112334E+03  0.00000000000E+00 0. -1.
         -6    2    1    2    0  503  0.12758705421E+03 -0.11566396643E+03 -0.73697349393E+03  0.77599024733E+03  0.17138939192E+03 0.  0.
        -24    2    3    3    0    0  0.15470478400E+03 -0.10197647838E+03 -0.53646165486E+03  0.57313609725E+03  0.79756545191E+02 0.  0.
          6    2    1    2  501    0 -0.12758705421E+03  0.11566396643E+03 -0.15147457971E+03  0.28676392571E+03  0.17214061478E+03 0.  0.
         24    2    5    5    0    0 -0.15369649575E+03  0.86686669751E+02 -0.76534060183E+02  0.20214975357E+03  0.62208270986E+02 0.  0.
          5    1    5    5  501    0  0.26109441542E+02  0.28977296680E+02 -0.74940519529E+02  0.84614172145E+02  0.47000000000E+01 0. -1.
        -11    1    6    6    0    0 -0.10054135287E+03  0.84164605261E+02 -0.69712359121E+02  0.14849935162E+03  0.00000000000E+00 0.  1.
         12    1    6    6    0    0 -0.53155142880E+02  0.25220644902E+01 -0.68217010621E+01  0.53650401949E+02  0.00000000000E+00 0. -1.
         -5    1    3    3    0  503 -0.27117729787E+02 -0.13687488055E+02 -0.20051183907E+03  0.20285415008E+03  0.47000000000E+01 0.  1.
         11    1    4    4    0    0  0.22814165450E+02 -0.55655337882E+02 -0.12828922540E+03  0.14169025419E+03  0.00000000000E+00 0. -1.
        -12    1    4    4    0    0  0.13189061855E+03 -0.46321140493E+02 -0.40817242946E+03  0.43144584305E+03  0.00000000000E+00 0.  1.
</event>
<event>
12    1  0.1597826E-001  0.1839070E+03  0.7818608E-02  0.1164696E+00
         21   -1    0    0  503  502  0.00000000000E+00  0.00000000000E+00  0.71737906287E+03  0.71737906287E+03  0.00000000000E+00 0. -1.
         21   -1    0    0  501  503 -0.00000000000E+00 -0.00000000000E+00 -0.12154465692E+03  0.12154465692E+03  0.00000000000E+00 0. -1.
          6    2    1    2  501    0 -0.38969543214E+02  0.51870561719E+02 -0.30911055763E+02  0.18648663604E+03  0.17208309499E+03 0.  0.
         24    2    3    3    0    0  0.19608650725E+02 -0.10897323061E+02 -0.36182726214E+01  0.96274673546E+02  0.93554636638E+02 0.  0.
         -6    2    1    2    0  502  0.38969543214E+02 -0.51870561719E+02  0.62674546171E+03  0.65243708376E+03  0.16927815576E+03 0.  0.
        -24    2    5    5    0    0  0.61458848801E+02 -0.69213455106E+02  0.28941476765E+03  0.31388039431E+03  0.78691179509E+02 0.  0.
          5    1    3    3  501    0 -0.58578193940E+02  0.62767884780E+02 -0.27292783141E+02  0.90211962492E+02  0.47000000000E+01 0. -1.
        -11    1    4    4    0    0 -0.32778228190E+02 -0.39031440161E+01  0.19772127484E+02  0.38478354977E+02  0.00000000000E+00 0.  1.
         12    1    4    4    0    0  0.52386878916E+02 -0.69941790448E+01 -0.23390400105E+02  0.57796318569E+02  0.00000000000E+00 0. -1.
         -5    1    5    5    0  502 -0.22489305587E+02  0.17342893387E+02  0.33733069406E+03  0.33855668945E+03  0.47000000000E+01 0.  1.
         13    1    6    6    0    0  0.11065038381E+02 -0.10590305385E+02  0.17576146442E+03  0.17642755459E+03  0.00000000000E+00 0. -1.
        -14    1    6    6    0    0  0.50393810420E+02 -0.58623149720E+02  0.11365330323E+03  0.13745283972E+03  0.00000000000E+00 0.  1.
</event>
<event>
12    1  0.1597826E-001  0.2678706E+03  0.7818608E-02  0.1103052E+00
         21   -1    0    0  503  502  0.00000000000E+00  0.00000000000E+00  0.10106421916E+04  0.10106421916E+04  0.00000000000E+00 0.  1.
         21   -1    0    0  501  503 -0.00000000000E+00 -0.00000000000E+00 -0.15074649880E+03  0.15074649880E+03  0.00000000000E+00 0.  1.
          6    2    1    2  501    0  0.49220930876E+02  0.19506760858E+03  0.35651297364E+01  0.26413918725E+03  0.17112196860E+03 0.  0.
         24    2    3    3    0    0  0.48244816290E+02  0.14974454639E+03  0.64720940475E+02  0.18786824945E+03  0.79716294076E+02 0.  0.
         -6    2    1    2    0  502 -0.49220930876E+02 -0.19506760858E+03  0.85633056309E+03  0.89724950319E+03  0.17686312712E+03 0.  0.
        -24    2    5    5    0    0 -0.34589014915E+00 -0.19972908870E+03  0.74484481903E+03  0.77534109441E+03  0.80424994413E+02 0.  0.
          5    1    3    3  501    0  0.97611458510E+00  0.45323062184E+02 -0.61155810739E+02  0.76270937797E+02  0.47000000000E+01 0. -1.
        -13    1    4    4    0    0  0.66040374605E+02  0.79066831173E+02  0.31155197509E+02  0.10762686097E+03  0.00000000000E+00 0.  1.
         14    1    4    4    0    0 -0.17795558315E+02  0.70677715221E+02  0.33565742966E+02  0.80241388482E+02  0.00000000000E+00 0. -1.
         -5    1    5    5    0  502 -0.48875040726E+02  0.46614801228E+01  0.11148574406E+03  0.12190840878E+03  0.47000000000E+01 0.  1.
         11    1    6    6    0    0  0.31864100616E+02 -0.12682772115E+03  0.53820746694E+03  0.55386629184E+03  0.00000000000E+00 0. -1.
        -12    1    6    6    0    0 -0.32209990765E+02 -0.72901367547E+02  0.20663735209E+03  0.22147480257E+03  0.00000000000E+00 0.  1.
</event>
<event>
12    1  0.1597826E-001  0.1731535E+03  0.7818608E-02  0.1175083E+00
         21   -1    0    0  501  502  0.00000000000E+00  0.00000000000E+00  0.71869206537E+02  0.71869206537E+02  0.00000000000E+00 0.  1.
         21   -1    0    0  502  503 -0.00000000000E+00 -0.00000000000E+00 -0.53328271967E+03  0.53328271967E+03  0.00000000000E+00 0.  1.
         -6    2    1    2    0  503  0.14995260864E+02  0.27272465431E+02 -0.37560668257E+03  0.41359704992E+03  0.17033348024E+03 0.  0.
        -24    2    3    3    0    0 -0.19921607043E+02 -0.41488591250E+02 -0.16379958478E+03  0.18813839017E+03  0.80296801006E+02 0.  0.
          6    2    1    2  501    0 -0.14995260864E+02 -0.27272465431E+02 -0.85806830571E+02  0.19155487629E+03  0.16840965899E+03 0.  0.
         24    2    5    5    0    0 -0.36476470979E+02  0.34723323671E+02 -0.14667650899E+02  0.94664251677E+02  0.78803162506E+02 0.  0.
          5    1    5    5  501    0  0.21481210115E+02 -0.61995789102E+02 -0.71139179672E+02  0.96890624618E+02  0.47000000000E+01 0. -1.
        -11    1    6    6    0    0 -0.11557126894E+02 -0.99544844945E+01  0.25437645988E+02  0.29660289564E+02  0.00000000000E+00 0.  1.
         12    1    6    6    0    0 -0.24919344086E+02  0.44677808165E+02 -0.40105296887E+02  0.65003962114E+02  0.00000000000E+00 0. -1.
         -5    1    3    3    0  503  0.34916867907E+02  0.68761056681E+02 -0.21180709779E+03  0.22545865974E+03  0.47000000000E+01 0.  1.
         13    1    4    4    0    0 -0.39208336685E+02  0.47458953311E+01 -0.49370354476E+02  0.63223801604E+02  0.00000000000E+00 0. -1.
        -14    1    4    4    0    0  0.19286729642E+02 -0.46234486581E+02 -0.11442923030E+03  0.12491458857E+03  0.00000000000E+00 0.  1.
</event>
<event>
12    1  0.1597826E-001  0.1935667E+03  0.7818608E-02  0.1156262E+00
         21   -1    0    0  501  502  0.00000000000E+00  0.00000000000E+00  0.29233449980E+03  0.29233449980E+03  0.00000000000E+00 0.  1.
         21   -1    0    0  502  503 -0.00000000000E+00 -0.00000000000E+00 -0.16566630548E+03  0.16566630548E+03  0.00000000000E+00 0.  1.
         -6    2    1    2    0  503  0.28543383978E+02 -0.77406260775E+02 -0.49183133895E+02  0.19971742883E+03  0.17510458801E+03 0.  0.
        -24    2    3    3    0    0 -0.16644677747E+02 -0.46182227741E+02  0.33957336207E+02  0.99961081013E+02  0.80182751128E+02 0.  0.
          6    2    1    2  501    0 -0.28543383978E+02  0.77406260775E+02  0.17585132821E+03  0.25828337645E+03  0.17023559833E+03 0.  0.
         24    2    5    5    0    0  0.22238180053E+02  0.15129745655E+02  0.77794480278E+02  0.13141980008E+03  0.10244870344E+03 0.  0.
          5    1    5    5  501    0 -0.50781564031E+02  0.62276515121E+02  0.98056847932E+02  0.12686357636E+03  0.47000000000E+01 0. -1.
        -13    1    6    6    0    0 -0.18149109737E+02  0.30129596984E+01  0.86440612694E+02  0.88376736946E+02  0.00000000000E+00 0.  1.
         14    1    6    6    0    0  0.40387289790E+02  0.12116785956E+02 -0.86461324156E+01  0.43043063137E+02  0.00000000000E+00 0. -1.
         -5    1    3    3    0  503  0.45188061725E+02 -0.31224033034E+02 -0.83140470103E+02  0.99756347819E+02  0.47000000000E+01 0.  1.
         13    1    4    4    0    0 -0.25446962307E+02  0.12003629855E+02 -0.60791799530E+01  0.28785264446E+02  0.00000000000E+00 0. -1.
        -14    1    4    4    0    0  0.88022845603E+01 -0.58185857596E+02  0.40036516160E+02  0.71175816567E+02  0.00000000000E+00 0.  1.
</event>
<event>
12    1  0.1597826E-001  0.1950951E+03  0.7818608E-02  0.1155013E+00
         21   -1    0    0  503  502  0.00000000000E+00  0.00000000000E+00  0.17236343303E+03  0.17236343303E+03  0.00000000000E+00 0.  1.
         21   -1    0    0  501  503 -0.00000000000E+00 -0.00000000000E+00 -0.59005664645E+03  0.59005664645E+03  0.00000000000E+00 0.  1.
          6    2    1    2  501    0  0.15257005016E+02  0.83313716953E+02 -0.51165045915E+03  0.54587890599E+03  0.17036324730E+03 0.  0.
         24    2    3    3    0    0 -0.26765306772E+02  0.11031898980E+03 -0.40785352306E+03  0.43059207505E+03  0.78602656833E+02 0.  0.
         -6    2    1    2    0  502 -0.15257005016E+02 -0.83313716953E+02  0.93957245726E+02  0.21654117349E+03  0.17575028922E+03 0.  0.
        -24    2    5    5    0    0 -0.41337629635E+01 -0.63522847383E+02 -0.14656447032E+02  0.10548069769E+03  0.82819840672E+02 0.  0.
          5    1    3    3  501    0  0.42022311788E+02 -0.27005272847E+02 -0.10379693609E+03  0.11528683095E+03  0.47000000000E+01 0. -1.
        -11    1    4    4    0    0 -0.52727629222E+02  0.71190439908E+02 -0.22519270515E+03  0.24199180992E+03  0.00000000000E+00 0.  1.
         12    1    4    4    0    0  0.25962322450E+02  0.39128549892E+02 -0.18266081791E+03  0.18860026512E+03  0.00000000000E+00 0. -1.
         -5    1    5    5    0  502 -0.11123242053E+02 -0.19790869570E+02  0.10861369276E+03  0.11106047581E+03  0.47000000000E+01 0.  1.
         11    1    6    6    0    0  0.34401822055E+02 -0.19175692768E+02 -0.23807231657E+02  0.46021482299E+02  0.00000000000E+00 0. -1.
        -12    1    6    6    0    0 -0.38535585019E+02 -0.44347154616E+02  0.91507846252E+01  0.59459215388E+02  0.00000000000E+00 0.  1.
</event>
<event>
12    1  0.1597826E-001  0.1931243E+03  0.7818608E-02  0.1155769E+00
         21   -1    0    0  501  502  0.00000000000E+00  0.00000000000E+00  0.81227373875E+02  0.81227373875E+02  0.00000000000E+00 0. -1.
         21   -1    0    0  502  503 -0.00000000000E+00 -0.00000000000E+00 -0.48713663210E+03  0.48713663210E+03  0.00000000000E+00 0. -1.
         -6    2    1    2    0  503 -0.87383989567E+02  0.11397287647E+02 -0.27250156759E+03  0.33399713810E+03  0.17184622232E+03 0.  0.
        -24    2    3    3    0    0 -0.50384177745E+02  0.67931465039E+02 -0.11073809419E+03  0.15862721305E+03  0.75805131133E+02 0.  0.
          6    2    1    2  501    0  0.87383989567E+02 -0.11397287647E+02 -0.13340769064E+03  0.23436686787E+03  0.17136031348E+03 0.  0.
         24    2    5    5    0    0  0.36734702218E+02  0.31919229352E+02 -0.23811892550E+02  0.10601189168E+03  0.91122112582E+02 0.  0.
          5    1    5    5  501    0  0.50649287348E+02 -0.43316516999E+02 -0.10959579808E+03  0.12835497619E+03  0.47000000000E+01 0. -1.
        -11    1    6    6    0    0  0.57243604073E+02  0.47120889522E+01  0.96669054500E+01  0.58245025973E+02  0.00000000000E+00 0.  1.
         12    1    6    6    0    0 -0.20508901855E+02  0.27207140400E+02 -0.33478798000E+02  0.47766865708E+02  0.00000000000E+00 0. -1.
         -5    1    3    3    0  503 -0.36999811822E+02 -0.56534177392E+02 -0.16176347339E+03  0.17536992505E+03  0.47000000000E+01 0.  1.
         13    1    4    4    0    0 -0.47243832180E+01  0.39576356424E+02 -0.52053101249E+01  0.40195808713E+02  0.00000000000E+00 0. -1.
        -14    1    4    4    0    0 -0.45659794527E+02  0.28355108615E+02 -0.10553278407E+03  0.11843140434E+03  0.00000000000E+00 0.  1.
</event>
<event>
12    1  0.1597826E-001  0.2212726E+03  0.7818608E-02  0.1133007E+00
         21   -1    0    0  501  502  0.00000000000E+00  0.00000000000E+00  0.34505860496E+02  0.34505860496E+02  0.00000000000E+00 0.  1.
         21   -1    0    0  502  503 -0.00000000000E+00 -0.00000000000E+00 -0.26894518138E+04  0.26894518138E+04  0.00000000000E+00 0. -1.
         -6    2    1    2    0  503  0.10423685461E+03 -0.91932902642E+02 -0.22650685458E+04  0.22758508481E+04  0.17217603032E+03 0.  0.
        -24    2    3    3    0    0  0.55979372539E+02 -0.42206038286E+02 -0.61376351483E+03  0.62308590996E+03  0.81334858674E+02 0.  0.
          6    2    1    2  501    0 -0.10423685461E+03  0.91932902642E+02 -0.38987740750E+03  0.44810682614E+03  0.17169261576E+03 0.  0.
         24    2    5    5    0    0 -0.91902470384E+02  0.10187974051E+03 -0.19680465263E+03  0.25432794367E+03  0.84410224765E+02 0.  0.
          5    1    5    5  501    0 -0.12334384228E+02 -0.99468378703E+01 -0.19307275487E+03  0.19377888247E+03  0.47000000000E+01 0. -1.
        -11    1    6    6    0    0 -0.50050246770E+02  0.20579616570E-01 -0.74506280374E+02  0.89756411695E+02  0.00000000000E+00 0.  1.
         12    1    6    6    0    0 -0.41852223614E+02  0.10185916090E+03 -0.12229837225E+03  0.16457153197E+03  0.00000000000E+00 0. -1.
         -5    1    3    3    0  503  0.48257482073E+02 -0.49726864357E+02 -0.16513050309E+04  0.16527649382E+04  0.47000000000E+01 0.  1.
         13    1    4    4    0    0  0.28704814246E+02 -0.24054524259E+02 -0.55113129957E+03  0.55240229531E+03  0.00000000000E+00 0. -1.
        -14    1    4    4    0    0  0.27274558293E+02 -0.18151514027E+02 -0.62632215264E+02  0.70683614653E+02  0.00000000000E+00 0.  1.
</event>
<event>
12    1  0.1597826E-001  0.2415917E+03  0.7818608E-02  0.1118957E+00
         21   -1    0    0  501  502  0.00000000000E+00  0.00000000000E+00  0.28585936013E+03  0.28585936013E+03  0.00000000000E+00 0. -1.
         21   -1    0    0  502  503 -0.00000000000E+00 -0.00000000000E+00 -0.25056667839E+03  0.25056667839E+03  0.00000000000E+00 0.  1.
         -6    2    1    2    0  503 -0.12956053786E+03  0.10881947773E+03 -0.99184333836E+02  0.25992902290E+03  0.17058122161E+03 0.  0.
        -24    2    3    3    0    0 -0.10931498227E+03  0.34219701664E+02 -0.11474922702E+03  0.18093937161E+03  0.80317605598E+02 0.  0.
          6    2    1    2  501    0  0.12956053786E+03 -0.10881947773E+03  0.13447701558E+03  0.27649701562E+03  0.17244976145E+03 0.  0.
         24    2    5    5    0    0  0.70177535209E+02 -0.59943572569E+02  0.64160092576E+00  0.12206514286E+03  0.79883472067E+02 0.  0.
          5    1    5    5  501    0  0.59383002646E+02 -0.48875905166E+02  0.13383541465E+03  0.15443187276E+03  0.47000000000E+01 0. -1.
        -13    1    6    6    0    0  0.40050549555E+02 -0.61211421851E+02 -0.30011430914E+02  0.79066874670E+02  0.00000000000E+00 0.  1.
         14    1    6    6    0    0  0.30126985654E+02  0.12678492819E+01  0.30653031839E+02  0.42998268190E+02  0.00000000000E+00 0. -1.
         -5    1    3    3    0  503 -0.20245555588E+02  0.74599776071E+02  0.15564893181E+02  0.78989651288E+02  0.47000000000E+01 0.  1.
         11    1    4    4    0    0 -0.10219719815E+03  0.32601862192E+02 -0.54634375331E+02  0.12038298757E+03  0.00000000000E+00 0. -1.
        -12    1    4    4    0    0 -0.71177841151E+01  0.16178394713E+01 -0.60114851685E+02  0.60556384043E+02  0.00000000000E+00 0.  1.
</event>
<event>
12    1  0.1597826E-001  0.2608807E+03  0.7818608E-02  0.1107456E+00
         21   -1    0    0  501  502  0.00000000000E+00  0.00000000000E+00  0.78421727404E+02  0.78421727404E+02  0.00000000000E+00 0.  1.
         21   -1    0    0  502  503 -0.00000000000E+00 -0.00000000000E+00 -0.14635708041E+04  0.14635708041E+04  0.00000000000E+00 0.  1.
         -6    2    1    2    0  503  0.18651127689E+03 -0.25857619533E+02 -0.11876509478E+04  0.12147858133E+04  0.17243759870E+03 0.  0.
        -24    2    3    3    0    0  0.15048449652E+03 -0.74487366340E+02 -0.10111696662E+04  0.10281564642E+04  0.80297382399E+02 0.  0.
          6    2    1    2  501    0 -0.18651127689E+03  0.25857619533E+02 -0.19749812890E+03  0.32720671822E+03  0.18056481562E+03 0.  0.
         24    2    5    5    0    0 -0.18242454027E+03  0.79022236118E+01 -0.89138297399E+02  0.21719289754E+03  0.76720014664E+02 0.  0.
          5    1    5    5  501    0 -0.40867366227E+01  0.17955395922E+02 -0.10835983150E+03  0.11001382068E+03  0.47000000000E+01 0. -1.
        -13    1    6    6    0    0 -0.14282732242E+03  0.28747299185E+02 -0.92074583443E+02  0.17234784639E+03  0.00000000000E+00 0.  1.
         14    1    6    6    0    0 -0.39597217849E+02 -0.20845075574E+02  0.29362860432E+01  0.44845051151E+02  0.00000000000E+00 0. -1.
         -5    1    3    3    0  503  0.36026780373E+02  0.48629746806E+02 -0.17648128155E+03  0.18662934902E+03  0.47000000000E+01 0.  1.
         11    1    4    4    0    0  0.12618084048E+03 -0.67552745279E+02 -0.62577806680E+03  0.64193704269E+03  0.00000000000E+00 0. -1.
        -12    1    4    4    0    0  0.24303656037E+02 -0.69346210614E+01 -0.38539159944E+03  0.38621942156E+03  0.00000000000E+00 0.  1.
</event>
<event>
12    1  0.1597826E-001  0.2038265E+03  0.7818608E-02  0.1147059E+00
         21   -1    0    0  503  502  0.00000000000E+00  0.00000000000E+00  0.10672098265E+03  0.10672098265E+03  0.00000000000E+00 0. -1.
         21   -1    0    0  501  503 -0.00000000000E+00 -0.00000000000E+00 -0.39857252637E+03  0.39857252637E+03  0.00000000000E+00 0. -1.
          6    2    1    2  501    0 -0.71246641216E+02  0.81975801632E+02 -0.97778978589E+02  0.22385184575E+03  0.16956651867E+03 0.  0.
         24    2    3    3    0    0 -0.84396500766E+02  0.13992822349E+02 -0.99129176407E+02  0.15443630489E+03  0.81886569321E+02 0.  0.
         -6    2    1    2    0  502  0.71246641216E+02 -0.81975801632E+02 -0.19407256514E+03  0.28144166327E+03  0.17247937079E+03 0.  0.
        -24    2    5    5    0    0  0.11158680438E+03 -0.46974356047E+02 -0.16894302219E+03  0.22223006064E+03  0.78652718134E+02 0.  0.
          5    1    3    3  501    0  0.13149859550E+02  0.67982979283E+02  0.13501978173E+01  0.69415540857E+02  0.47000000000E+01 0. -1.
        -11    1    4    4    0    0 -0.84301456530E+01  0.20958786727E+02 -0.68678100507E+02  0.72298129893E+02  0.00000000000E+00 0.  1.
         12    1    4    4    0    0 -0.75966355113E+02 -0.69659643781E+01 -0.30451075900E+02  0.82138175000E+02  0.00000000000E+00 0. -1.
         -5    1    5    5    0  502 -0.40340163160E+02 -0.35001445585E+02 -0.25129542950E+02  0.59211602627E+02  0.47000000000E+01 0.  1.
         11    1    6    6    0    0 -0.92845466110E+01 -0.19066508759E+01 -0.35031706996E+02  0.36291302242E+02  0.00000000000E+00 0. -1.
        -12    1    6    6    0    0  0.12087135099E+03 -0.45067705171E+02 -0.13391131519E+03  0.18593875840E+03  0.00000000000E+00 0.  1.
</event>
<event>
12    1  0.1597826E-001  0.2500912E+03  0.7818608E-02  0.1113618E+00
         21   -1    0    0  501  502  0.00000000000E+00  0.00000000000E+00  0.34420862758E+03  0.34420862758E+03  0.00000000000E+00 0. -1.
         21   -1    0    0  502  503 -0.00000000000E+00 -0.00000000000E+00 -0.32644550059E+03  0.32644550059E+03  0.00000000000E+00 0. -1.
         -6    2    1    2    0  503  0.13453340932E+03 -0.12039626231E+03 -0.21572449841E+03  0.32851074839E+03  0.16966954469E+03 0.  0.
        -24    2    3    3    0    0  0.16094261385E+03 -0.97552450264E+02 -0.20856822370E+03  0.29255816712E+03  0.81673567988E+02 0.  0.
          6    2    1    2  501    0 -0.13453340932E+03  0.12039626231E+03  0.23348762540E+03  0.34214337978E+03  0.17306392725E+03 0.  0.
         24    2    5    5    0    0 -0.82248480368E+02  0.27521070658E+01  0.14860114823E+03  0.18786549717E+03  0.80241866596E+02 0.  0.
          5    1    5    5  501    0 -0.52284928952E+02  0.11764415524E+03  0.84886477165E+02  0.15427788261E+03  0.47000000000E+01 0. -1.
        -11    1    6    6    0    0  0.71988011422E+01 -0.57637087484E+01 -0.45647498977E+01  0.10289801653E+02  0.00000000000E+00 0.  1.
         12    1    6    6    0    0 -0.89447281511E+02  0.85158158142E+01  0.15316589813E+03  0.17757569552E+03  0.00000000000E+00 0. -1.
         -5    1    3    3    0  503 -0.26409204525E+02 -0.22843812043E+02 -0.71562747041E+01  0.35952581270E+02  0.47000000000E+01 0.  1.
         11    1    4    4    0    0  0.32621097782E+02 -0.64476654689E+02 -0.82247929667E+02  0.10948103468E+03  0.00000000000E+00 0. -1.
        -12    1    4    4    0    0  0.12832151606E+03 -0.33075795575E+02 -0.12632029404E+03  0.18307713244E+03  0.00000000000E+00 0.  1.
</event>
<event>
12    1  0.1597826E-001  0.1850420E+03  0.7818608E-02  0.1163398E+00
         21   -1    0    0  503  502  0.00000000000E+00  0.00000000000E+00  0.60189577375E+03  0.60189577375E+03  0.00000000000E+00 0.  1.
         21   -1    0    0  501  503 -0.00000000000E+00 -0.00000000000E+00 -0.20769258769E+03  0.20769258769E+03  0.00000000000E+00 0.  1.
          6    2    1    2  501    0  0.43218743851E+02 -0.50159822394E+02 -0.14816709046E+03  0.23705279990E+03  0.17279084362E+03 0.  0.
         24    2    3    3    0    0  0.93881507745E+02 -0.50744699007E+02 -0.11152270548E+03  0.17434746777E+03  0.81061481030E+02 0.  0.
         -6    2    1    2    0  502 -0.43218743851E+02  0.50159822394E+02  0.54237027653E+03  0.57253556154E+03  0.17101925262E+03 0.  0.
        -24    2    5    5    0    0  0.29651600737E+02 -0.60820444734E+00  0.35677167614E+03  0.36672883149E+03  0.79526219642E+02 0.  0.
          5    1    3    3  501    0 -0.50662763894E+02  0.58487661344E+00 -0.36644384982E+02  0.62705332124E+02  0.47000000000E+01 0. -1.
        -11    1    4    4    0    0 -0.49822425355E+01 -0.96567116708E+01 -0.49371497811E+02  0.50553136570E+02  0.00000000000E+00 0.  1.
         12    1    4    4    0    0  0.98863750281E+02 -0.41087987336E+02 -0.62151207670E+02  0.12379433120E+03  0.00000000000E+00 0. -1.
         -5    1    5    5    0  502 -0.72870344588E+02  0.50768026841E+02  0.18559860039E+03  0.20580673005E+03  0.47000000000E+01 0.  1.
         11    1    6    6    0    0  0.22748140078E+01 -0.24603958516E+02  0.34655951049E+02  0.42562477566E+02  0.00000000000E+00 0. -1.
        -12    1    6    6    0    0  0.27376786729E+02  0.23995754069E+02  0.32211572509E+03  0.32416635392E+03  0.00000000000E+00 0.  1.
</event>
<event>
12    1  0.1597826E-001  0.1768099E+03  0.7818608E-02  0.1172010E+00
         21   -1    0    0  503  502  0.00000000000E+00  0.00000000000E+00  0.14972278091E+04  0.14972278091E+04  0.00000000000E+00 0.  1.
         21   -1    0    0  501  503 -0.00000000000E+00 -0.00000000000E+00 -0.20379627424E+02  0.20379627424E+02  0.00000000000E+00 0.  1.
          6    2    1    2  501    0  0.30372568550E+02 -0.81920040121E+01  0.73394216668E+03  0.75493897269E+03  0.17398892668E+03 0.  0.
         24    2    3    3    0    0  0.82785129121E+01 -0.72714405038E+02  0.46622895786E+03  0.47863526351E+03  0.79789447016E+02 0.  0.
         -6    2    1    2    0  502 -0.30372568550E+02  0.81920040121E+01  0.74290601495E+03  0.76266846379E+03  0.16960022629E+03 0.  0.
        -24    2    5    5    0    0 -0.23702947521E+02 -0.25500412200E+02  0.18924846976E+03  0.20792669495E+03  0.78780875980E+02 0.  0.
          5    1    3    3  501    0  0.22094055638E+02  0.64522401025E+02  0.26771320882E+03  0.27630370918E+03  0.47000000000E+01 0. -1.
        -13    1    4    4    0    0 -0.19685619749E+02  0.91870641097E+01  0.94633055500E+02  0.97094495030E+02  0.00000000000E+00 0.  1.
         14    1    4    4    0    0  0.27964132661E+02 -0.81901469147E+02  0.37159590236E+03  0.38154076848E+03  0.00000000000E+00 0. -1.
         -5    1    5    5    0  502 -0.66696210286E+01  0.33692416212E+02  0.55365754518E+03  0.55474176884E+03  0.47000000000E+01 0.  1.
         13    1    6    6    0    0 -0.32485408294E+02  0.10774030065E+02  0.14964075678E+03  0.15350484541E+03  0.00000000000E+00 0. -1.
        -14    1    6    6    0    0  0.87824607727E+01 -0.36274442265E+02  0.39607712984E+02  0.54421849534E+02  0.00000000000E+00 0.  1.
</event>
<event>
12    1  0.1597826E-001  0.2826222E+03  0.7818608E-02  0.1094363E+00
         21   -1    0    0  503  502  0.00000000000E+00  0.00000000000E+00  0.93572268766E+02  0.93572268766E+02  0.00000000000E+00 0.  1.
         21   -1    0    0  501  503 -0.00000000000E+00 -0.00000000000E+00 -0.98400891154E+03  0.98400891154E+03  0.00000000000E+00 0.  1.
          6    2    1    2  501    0  0.20743780564E+03  0.81332162201E+02 -0.64347581657E+03  0.70280613217E+03  0.17386767694E+03 0.  0.
         24    2    3    3    0    0  0.57887954292E+02 -0.10963261722E+02 -0.31823498683E+03  0.33309368898E+03  0.78782551609E+02 0.  0.
         -6    2    1    2    0  502 -0.20743780564E+03 -0.81332162201E+02 -0.24696082620E+03  0.37477504813E+03  0.17268851500E+03 0.  0.
        -24    2    5    5    0    0 -0.86911125616E+02 -0.35803583670E+02 -0.37789929787E+02  0.12906366060E+03  0.79961924278E+02 0.  0.
          5    1    3    3  501    0  0.14954985134E+03  0.92295423923E+02 -0.32524082974E+03  0.36971244318E+03  0.47000000000E+01 0. -1.
        -11    1    4    4    0    0  0.76319646367E+02 -0.17425554113E+02 -0.23935913436E+03  0.25183552879E+03  0.00000000000E+00 0.  1.
         12    1    4    4    0    0 -0.18431692074E+02  0.64622923904E+01 -0.78875852473E+02  0.81258160199E+02  0.00000000000E+00 0. -1.
         -5    1    5    5    0  502 -0.12052668002E+03 -0.45528578531E+02 -0.20917089641E+03  0.24571138754E+03  0.47000000000E+01 0.  1.
         11    1    6    6    0    0 -0.44469227941E+01 -0.36030572564E+02  0.41614586905E+01  0.36541688796E+02  0.00000000000E+00 0. -1.
        -12    1    6    6    0    0 -0.82464202822E+02  0.22698889425E+00 -0.41951388478E+02  0.92521971803E+02  0.00000000000E+00 0.  1.
</event>
<event>
12    1  0.1597826E-001  0.1776253E+03  0.7818608E-02  0.1170149E+00
         21   -1    0    0  503  502  0.00000000000E+00  0.00000000000E+00  0.14810727254E+03  0.14810727254E+03  0.00000000000E+00 0.  1.
         21   -1    0    0  501  503 -0.00000000000E+00 -0.00000000000E+00 -0.20886251119E+04  0.20886251119E+04  0.00000000000E+00 0.  1.
          6    2    1    2  501    0 -0.24326968424E+02  0.39241948309E+02 -0.20300653778E+04  0.20378115422E+04  0.17140219218E+03 0.  0.
         24    2    3    3    0    0 -0.23215539941E+02  0.52975316431E+02 -0.20128082203E+04  0.20152341164E+04  0.80163997310E+02 0.  0.
         -6    2    1    2    0  502  0.24326968424E+02 -0.39241948309E+02  0.89547538411E+02  0.19892084227E+03  0.17151970136E+03 0.  0.
        -24    2    5    5    0    0  0.30382369691E+02 -0.46383518329E+02 -0.11137060542E+02  0.97692642779E+02  0.79657386192E+02 0.  0.
          5    1    3    3  501    0 -0.11114284831E+01 -0.13733368122E+02 -0.17257157427E+02  0.22577425799E+02  0.47000000000E+01 0. -1.
        -11    1    4    4    0    0  0.25881576874E+02  0.32617267525E+02 -0.11779724593E+04  0.11787081305E+04  0.00000000000E+00 0.  1.
         12    1    4    4    0    0 -0.49097116815E+02  0.20358048906E+02 -0.83483576104E+03  0.83652598581E+03  0.00000000000E+00 0. -1.
         -5    1    5    5    0  502 -0.60554012667E+01  0.71415700192E+01  0.10068459895E+03  0.10122819950E+03  0.47000000000E+01 0.  1.
         11    1    6    6    0    0 -0.11191336391E+02 -0.72125781275E+01 -0.33732927355E+02  0.36265378550E+02  0.00000000000E+00 0. -1.
        -12    1    6    6    0    0  0.41573706082E+02 -0.39170940201E+02  0.22595866813E+02  0.61427264229E+02  0.00000000000E+00 0.  1.
</event>
<event>
12    1  0.1597826E-001  0.1932573E+03  0.7818608E-02  0.1156249E+00
         21   -1    0    0  501  502  0.00000000000E+00  0.00000000000E+00  0.49120866439E+02  0.49120866439E+02  0.00000000000E+00 0.  1.
         21   -1    0    0  502  503 -0.00000000000E+00 -0.00000000000E+00 -0.85204359411E+03  0.85204359411E+03  0.00000000000E+00 0.  1.
         -6    2    1    2    0  503 -0.38832358224E+02 -0.71896610101E+02 -0.24697171839E+03  0.31359753579E+03  0.17513226480E+03 0.  0.
        -24    2    3    3    0    0 -0.39795608202E+02 -0.40608350366E+02 -0.42029987936E+02  0.10622568155E+03  0.79275765416E+02 0.  0.
          6    2    1    2  501    0  0.38832358224E+02  0.71896610101E+02 -0.55595100928E+03  0.58756692476E+03  0.17168660917E+03 0.  0.
         24    2    5    5    0    0 -0.11516352879E+02  0.84834613111E+01 -0.43010316062E+03  0.43784721610E+03  0.80727073375E+02 0.  0.
          5    1    5    5  501    0  0.50348711104E+02  0.63413148789E+02 -0.12584784866E+03  0.14971970866E+03  0.47000000000E+01 0. -1.
        -11    1    6    6    0    0  0.17529548198E+02  0.16883350828E+01 -0.19950565788E+02  0.26611287279E+02  0.00000000000E+00 0.  1.
         12    1    6    6    0    0 -0.29045901077E+02  0.67951262283E+01 -0.41015259483E+03  0.41123592882E+03  0.00000000000E+00 0. -1.
         -5    1    3    3    0  503  0.96324997733E+00 -0.31288259734E+02 -0.20494173046E+03  0.20737185424E+03  0.47000000000E+01 0.  1.
         11    1    4    4    0    0  0.20796912114E+02 -0.18767859832E+02 -0.29364857521E+02  0.40583727938E+02  0.00000000000E+00 0. -1.
        -12    1    4    4    0    0 -0.60592520316E+02 -0.21840490535E+02 -0.12665130415E+02  0.65641953608E+02  0.00000000000E+00 0.  1.
</event>
<event>
12    1  0.1597826E-001  0.3071464E+03  0.7818608E-02  0.1081786E+00
         21   -1    0    0  501  502  0.00000000000E+00  0.00000000000E+00  0.91391568362E+03  0.91391568362E+03  0.00000000000E+00 0. -1.
         21   -1    0    0  502  503 -0.00000000000E+00 -0.00000000000E+00 -0.10307517146E+03  0.10307517146E+03  0.00000000000E+00 0. -1.
         -6    2    1    2    0  503  0.24963022063E+03 -0.46859371661E+02  0.41396212173E+03  0.51546442097E+03  0.17270750792E+03 0.  0.
        -24    2    3    3    0    0  0.19552300436E+03  0.61345324794E+01  0.21134560893E+03  0.29910479907E+03  0.80807404912E+02 0.  0.
          6    2    1    2  501    0 -0.24963022063E+03  0.46859371661E+02  0.39687839043E+03  0.50152643411E+03  0.17177095086E+03 0.  0.
         24    2    5    5    0    0 -0.76216405782E+02 -0.18241883119E+02  0.92622303500E+02  0.14529002246E+03  0.79928672641E+02 0.  0.
          5    1    5    5  501    0 -0.17341381484E+03  0.65101254780E+02  0.30425608693E+03  0.35623641165E+03  0.47000000000E+01 0. -1.
        -13    1    6    6    0    0  0.13372856158E+02 -0.16800163669E+02  0.11190327106E+02  0.24213677991E+02  0.00000000000E+00 0.  1.
         14    1    6    6    0    0 -0.89589261940E+02 -0.14417194504E+01  0.81431976394E+02  0.12107634447E+03  0.00000000000E+00 0. -1.
         -5    1    3    3    0  503  0.54107216264E+02 -0.52993904140E+02  0.20261651280E+03  0.21635962190E+03  0.47000000000E+01 0.  1.
         13    1    4    4    0    0  0.34133770605E+02  0.49304592478E+01  0.92367777004E+02  0.98596297866E+02  0.00000000000E+00 0. -1.
        -14    1    4    4    0    0  0.16138923376E+03  0.12040732316E+01  0.11897783193E+03  0.20050850120E+03  0.00000000000E+00 0.  1.
</event>
<event>
12    1  0.1597826E-001  0.1721664E+03  0.7818608E-02  0.1176111E+00
         21   -1    0    0  501  502  0.00000000000E+00  0.00000000000E+00  0.11383703730E+03  0.11383703730E+03  0.00000000000E+00 0.  1.
         21   -1    0    0  502  503 -0.00000000000E+00 -0.00000000000E+00 -0.29655628918E+03  0.29655628918E+03  0.00000000000E+00 0.  1.
         -6    2    1    2    0  503 -0.58052195627E+01 -0.92010722847E+01 -0.16543281027E+03  0.23736128756E+03  0.16986466912E+03 0.  0.
        -24    2    3    3    0    0 -0.28929420364E+02  0.49582523428E+02 -0.61356221150E+02  0.11552423987E+03  0.79283832725E+02 0.  0.
          6    2    1    2  501    0  0.58052195627E+01  0.92010722847E+01 -0.17286441611E+02  0.17303203892E+03  0.17182230683E+03 0.  0.
         24    2    5    5    0    0  0.20028226770E+01  0.33183243923E+02 -0.72269778032E+02  0.11274223827E+03  0.79892130383E+02 0.  0.
          5    1    5    5  501    0  0.38023968857E+01 -0.23982171639E+02  0.54983336421E+02  0.60289800651E+02  0.47000000000E+01 0. -1.
        -13    1    6    6    0    0 -0.28443553940E+02  0.34558466090E+02 -0.13853474578E+02  0.46853410731E+02  0.00000000000E+00 0.  1.
         14    1    6    6    0    0  0.30446376617E+02 -0.13752221666E+01 -0.58416303454E+02  0.65888827538E+02  0.00000000000E+00 0. -1.
         -5    1    3    3    0  503  0.23124200802E+02 -0.58783595713E+02 -0.10407658912E+03  0.12183704770E+03  0.47000000000E+01 0.  1.
         11    1    4    4    0    0 -0.47789031618E+02  0.86874368653E+01 -0.48615973645E+02  0.68722456270E+02  0.00000000000E+00 0. -1.
        -12    1    4    4    0    0  0.18859611254E+02  0.40895086563E+02 -0.12740247505E+02  0.46801783600E+02  0.00000000000E+00 0.  1.
</event>
<event>
12    1  0.1597826E-001  0.1810155E+03  0.7818608E-02  0.1167450E+00
         21   -1    0    0  503  502  0.00000000000E+00  0.00000000000E+00  0.18008565003E+03  0.18008565003E+03  0.00000000000E+00 0.  1.
         21   -1    0    0  501  503 -0.00000000000E+00 -0.00000000000E+00 -0.18391271075E+03  0.18391271075E+03  0.00000000000E+00 0.  1.
          6    2    1    2  501    0 -0.14653543675E+02  0.44150053844E+02  0.26734145307E+02  0.18042114017E+03  0.17225887408E+03 0.  0.
         24    2    3    3    0    0 -0.24599947693E+02  0.11368274947E+02 -0.48519167367E+02  0.97603708136E+02  0.80237018502E+02 0.  0.
         -6    2    1    2    0  502  0.14653543675E+02 -0.44150053844E+02 -0.30561206024E+02  0.18357722062E+03  0.17493614555E+03 0.  0.
        -24    2    5    5    0    0  0.66699040872E+02 -0.12995392890E+01  0.79405871552E+01  0.10579947024E+03  0.81731414537E+02 0.  0.
          5    1    3    3  501    0  0.99464040175E+01  0.32781778897E+02  0.75253312674E+02  0.82817432035E+02  0.47000000000E+01 0. -1.
        -13    1    4    4    0    0  0.25161521356E+02 -0.14032312155E+02 -0.15778384376E+02  0.32847608054E+02  0.00000000000E+00 0.  1.
         14    1    4    4    0    0 -0.49761469048E+02  0.25400587102E+02 -0.32740782990E+02  0.64756100082E+02  0.00000000000E+00 0. -1.
         -5    1    5    5    0  502 -0.52045497197E+02 -0.42850514555E+02 -0.38501793179E+02  0.77777750379E+02  0.47000000000E+01 0.  1.
         11    1    6    6    0    0  0.25130402591E+02  0.24055267000E+02  0.35621239824E+02  0.49790217226E+02  0.00000000000E+00 0. -1.
        -12    1    6    6    0    0  0.41568638281E+02 -0.25354806289E+02 -0.27680652669E+02  0.56009253009E+02  0.00000000000E+00 0.  1.
</event>
<event>
12    1  0.1597826E-001  0.2447556E+03  0.7818608E-02  0.1116718E+00
         21   -1    0    0  503  502  0.00000000000E+00  0.00000000000E+00  0.18794560143E+03  0.18794560143E+03  0.00000000000E+00 0. -1.
         21   -1    0    0  501  503 -0.00000000000E+00 -0.00000000000E+00 -0.40949683578E+03  0.40949683578E+03  0.00000000000E+00 0. -1.
          6    2    1    2  501    0  0.16896431605E+03 -0.39327692473E+02 -0.25179813518E+03  0.35115183905E+03  0.17265487452E+03 0.  0.
         24    2    3    3    0    0  0.75249846143E+02  0.42409021998E+02 -0.96900833762E+02  0.15245972459E+03  0.79957060646E+02 0.  0.
         -6    2    1    2    0  502 -0.16896431605E+03  0.39327692473E+02  0.30246900831E+02  0.24629059815E+03  0.17218761929E+03 0.  0.
        -24    2    5    5    0    0 -0.47543903260E+02  0.11256025561E+02  0.66803011308E+02  0.11633147251E+03  0.81751136554E+02 0.  0.
          5    1    3    3  501    0  0.93714469907E+02 -0.81736714471E+02 -0.15489730142E+03  0.19869211446E+03  0.47000000000E+01 0. -1.
        -11    1    4    4    0    0  0.79705877953E+01  0.43896876007E+01 -0.70066319891E+02  0.70654715414E+02  0.00000000000E+00 0.  1.
         12    1    4    4    0    0  0.67279258348E+02  0.38019334397E+02 -0.26834513871E+02  0.81805009177E+02  0.00000000000E+00 0. -1.
         -5    1    5    5    0  502 -0.12142041279E+03  0.28071666912E+02 -0.36556110477E+02  0.12995912565E+03  0.47000000000E+01 0.  1.
         11    1    6    6    0    0 -0.32852857453E+02  0.28468343582E+02 -0.23850405025E+01  0.43536711490E+02  0.00000000000E+00 0. -1.
        -12    1    6    6    0    0 -0.14691045807E+02 -0.17212318022E+02  0.69188051810E+02  0.72794761019E+02  0.00000000000E+00 0.  1.
</event>
<event>
12    1  0.1597826E-001  0.1777568E+03  0.7818608E-02  0.1170024E+00
         21   -1    0    0  503  502  0.00000000000E+00  0.00000000000E+00  0.43080820835E+03  0.43080820835E+03  0.00000000000E+00 0.  1.
         21   -1    0    0  501  503 -0.00000000000E+00 -0.00000000000E+00 -0.74870908491E+02  0.74870908491E+02  0.00000000000E+00 0.  1.
          6    2    1    2  501    0 -0.26194444798E+02 -0.33277612327E+02  0.14116779565E+03  0.22688993507E+03  0.17250260197E+03 0.  0.
         24    2    3    3    0    0 -0.47388924521E+02 -0.82400673836E+02  0.10777725431E+03  0.16364992089E+03  0.78292904174E+02 0.  0.
         -6    2    1    2    0  502  0.26194444798E+02  0.33277612327E+02  0.21476950421E+03  0.27878918177E+03  0.17263811721E+03 0.  0.
        -24    2    5    5    0    0 -0.27400368029E+02 -0.12310691770E+02  0.47978621106E+02  0.97703604987E+02  0.79634873293E+02 0.  0.
          5    1    3    3  501    0  0.21194479724E+02  0.49123061509E+02  0.33390541334E+02  0.63240014179E+02  0.47000000000E+01 0. -1.
        -11    1    4    4    0    0 -0.16808584760E+02  0.81997384021E+01 -0.11114401808E+01  0.18734981473E+02  0.00000000000E+00 0.  1.
         12    1    4    4    0    0 -0.30580339761E+02 -0.90600412238E+02  0.10888869450E+03  0.14491493942E+03  0.00000000000E+00 0. -1.
         -5    1    5    5    0  502  0.53594812826E+02  0.45588304097E+02  0.16679088310E+03  0.18108557678E+03  0.47000000000E+01 0.  1.
         13    1    6    6    0    0 -0.24000163654E+02  0.30290875472E+02  0.37171071554E+02  0.53621204320E+02  0.00000000000E+00 0. -1.
        -14    1    6    6    0    0 -0.34002043749E+01 -0.42601567242E+02  0.10807549552E+02  0.44082400667E+02  0.00000000000E+00 0.  1.
</event>
<event>
12    1  0.1597826E-001  0.2097004E+03  0.7818608E-02  0.1142356E+00
         21   -1    0    0  501  502  0.00000000000E+00  0.00000000000E+00  0.14560026080E+04  0.14560026080E+04  0.00000000000E+00 0. -1.
         21   -1    0    0  502  503 -0.00000000000E+00 -0.00000000000E+00 -0.57892561575E+02  0.57892561575E+02  0.00000000000E+00 0. -1.
         -6    2    1    2    0  503  0.11240813248E+03 -0.23644643011E+02  0.16943010552E+03  0.26744876570E+03  0.17212676789E+03 0.  0.
        -24    2    3    3    0    0  0.14839800137E+03 -0.15911094529E+02  0.13088517918E+03  0.21394288021E+03  0.79784059347E+02 0.  0.
          6    2    1    2  501    0 -0.11240813248E+03  0.23644643011E+02  0.12286799410E+04  0.12464464039E+04  0.17544111027E+03 0.  0.
         24    2    5    5    0    0 -0.97725257240E+02  0.49871192103E+02  0.53554347256E+03  0.55264263302E+03  0.81053729897E+02 0.  0.
          5    1    5    5  501    0 -0.14682875243E+02 -0.26226549092E+02  0.69313646840E+03  0.69380377091E+03  0.47000000000E+01 0. -1.
        -13    1    6    6    0    0  0.54366895157E+01  0.22106960426E+01  0.75937106860E+00  0.59178893452E+01  0.00000000000E+00 0.  1.
         14    1    6    6    0    0 -0.10316194676E+03  0.47660496060E+02  0.53478410149E+03  0.54672474368E+03  0.00000000000E+00 0. -1.
         -5    1    3    3    0  503 -0.35989868886E+02 -0.77335484820E+01  0.38544926344E+02  0.53505885484E+02  0.47000000000E+01 0.  1.
         11    1    4    4    0    0  0.75573299463E+02 -0.27905544826E+02  0.11163521413E+03  0.13766794855E+03  0.00000000000E+00 0. -1.
        -12    1    4    4    0    0  0.72824701905E+02  0.11994450297E+02  0.19249965042E+02  0.76274931660E+02  0.00000000000E+00 0.  1.
</event>
<event>
12    1  0.1597826E-001  0.2007238E+03  0.7818608E-02  0.1150054E+00
         21   -1    0    0  501  502  0.00000000000E+00  0.00000000000E+00  0.14744240182E+03  0.14744240182E+03  0.00000000000E+00 0. -1.
         21   -1    0    0  502  503 -0.00000000000E+00 -0.00000000000E+00 -0.31730073483E+03  0.31730073483E+03  0.00000000000E+00 0. -1.
         -6    2    1    2    0  503  0.80050724529E+02 -0.66126156106E+02 -0.17631927122E+03  0.26391540885E+03  0.16667954464E+03 0.  0.
        -24    2    3    3    0    0  0.14881038713E+02  0.47087165412E+01 -0.28770387819E+02  0.87684225094E+02  0.81345994311E+02 0.  0.
          6    2    1    2  501    0 -0.80050724529E+02  0.66126156106E+02  0.64609382133E+01  0.20082772780E+03  0.17178255299E+03 0.  0.
         24    2    5    5    0    0  0.23429195616E+02  0.55059134602E+02 -0.31449516702E+01  0.96209679839E+02  0.75272679396E+02 0.  0.
          5    1    5    5  501    0 -0.10347992015E+03  0.11067021504E+02  0.96058898835E+01  0.10461804796E+03  0.47000000000E+01 0. -1.
        -11    1    6    6    0    0  0.34425898389E+02  0.87570157472E+01 -0.25403925436E+02  0.43671354825E+02  0.00000000000E+00 0.  1.
         12    1    6    6    0    0 -0.10996702773E+02  0.46302118854E+02  0.22258973765E+02  0.52538325015E+02  0.00000000000E+00 0. -1.
         -5    1    3    3    0  503  0.65169685816E+02 -0.70834872647E+02 -0.14754888340E+03  0.17623118375E+03  0.47000000000E+01 0.  1.
         13    1    4    4    0    0  0.32734276134E+02  0.19315829704E+02 -0.45427891829E+02  0.59231135961E+02  0.00000000000E+00 0. -1.
        -14    1    4    4    0    0 -0.17853237421E+02 -0.14607113163E+02  0.16657504010E+02  0.28453089133E+02  0.00000000000E+00 0.  1.
</event>
<event>
12    1  0.1597826E-001  0.2265514E+03  0.7818608E-02  0.1129736E+00
         21   -1    0    0  501  502  0.00000000000E+00  0.00000000000E+00  0.10592302329E+03  0.10592302329E+03  0.00000000000E+00 0.  1.
         21   -1    0    0  502  503 -0.00000000000E+00 -0.00000000000E+00 -0.48772659935E+03  0.48772659935E+03  0.00000000000E+00 0.  1.
         -6    2    1    2    0  503 -0.13991761459E+03 -0.21719915146E+02 -0.23352329081E+03  0.32288670340E+03  0.17226143589E+03 0.  0.
        -24    2    3    3    0    0 -0.60652037579E+02  0.90692054163E+01 -0.21127737991E+03  0.23486413700E+03  0.82232058456E+02 0.  0.
          6    2    1    2  501    0  0.13991761459E+03  0.21719915146E+02 -0.14828028525E+03  0.27076291924E+03  0.17685254270E+03 0.  0.
         24    2    5    5    0    0  0.91540673911E+02 -0.56070124784E+02 -0.73807804007E+02  0.15261107134E+03  0.79492095766E+02 0.  0.
          5    1    5    5  501    0  0.48376940677E+02  0.77790039929E+02 -0.74472481240E+02  0.11815184791E+03  0.47000000000E+01 0. -1.
        -13    1    6    6    0    0  0.78456928051E+02 -0.75947177807E+01 -0.63812050829E+02  0.10141571441E+03  0.00000000000E+00 0.  1.
         14    1    6    6    0    0  0.13083745860E+02 -0.48475407003E+02 -0.99957531784E+01  0.51195356933E+02  0.00000000000E+00 0. -1.
         -5    1    3    3    0  503 -0.79265577008E+02 -0.30789120562E+02 -0.22245910897E+02  0.88022566397E+02  0.47000000000E+01 0.  1.
         13    1    4    4    0    0 -0.30703087081E+01 -0.29485898182E+02 -0.37662500764E+02  0.47930250896E+02  0.00000000000E+00 0. -1.
        -14    1    4    4    0    0 -0.57581728871E+02  0.38555103598E+02 -0.17361487915E+03  0.18693388611E+03  0.00000000000E+00 0.  1.
</event>
<event>
12    1  0.1597826E-001  0.1875253E+03  0.7818608E-02  0.1161190E+00
         21   -1    0    0  503  502  0.00000000000E+00  0.00000000000E+00  0.71657032279E+03  0.71657032279E+03  0.00000000000E+00 0. -1.
         21   -1    0    0  501  503 -0.00000000000E+00 -0.00000000000E+00 -0.28453679592E+03  0.28453679592E+03  0.00000000000E+00 0. -1.
          6    2    1    2  501    0  0.20555247577E+02 -0.66645735060E+02 -0.24005415097E+03  0.30334814380E+03  0.17184274423E+03 0.  0.
         24    2    3    3    0    0  0.35467223302E+02 -0.10664044859E+03 -0.15524376957E+03  0.20828587514E+03  0.81561440557E+02 0.  0.
         -6    2    1    2    0  502 -0.20555247577E+02  0.66645735060E+02  0.67208767784E+03  0.69775897492E+03  0.17407345624E+03 0.  0.
        -24    2    5    5    0    0 -0.38193316927E+02  0.94686916170E+02  0.63250706700E+03  0.64593114376E+03  0.82082343494E+02 0.  0.
          5    1    3    3  501    0 -0.14911975725E+02  0.39994713534E+02 -0.84810381396E+02  0.95062268662E+02  0.47000000000E+01 0. -1.
        -11    1    4    4    0    0  0.14045753275E+02 -0.22925823808E+02  0.39270410806E+01  0.27171643932E+02  0.00000000000E+00 0.  1.
         12    1    4    4    0    0  0.21421470027E+02 -0.83714624786E+02 -0.15917081065E+03  0.18111423120E+03  0.00000000000E+00 0. -1.
         -5    1    5    5    0  502  0.17638069350E+02 -0.28041181110E+02  0.39580610837E+02  0.51827831159E+02  0.47000000000E+01 0.  1.
         11    1    6    6    0    0  0.21070578649E+02  0.14138086861E+02  0.22079722623E+03  0.22225046658E+03  0.00000000000E+00 0. -1.
        -12    1    6    6    0    0 -0.59263895577E+02  0.80548829309E+02  0.41170984078E+03  0.42368067718E+03  0.00000000000E+00 0.  1.
</event>
<event>
12    1  0.1597826E-001  0.2705086E+03  0.7818608E-02  0.1101106E+00
         21   -1    0    0  501  502  0.00000000000E+00  0.00000000000E+00  0.16718160772E+03  0.16718160772E+03  0.00000000000E+00 0. -1.
         21   -1    0    0  502  503 -0.00000000000E+00 -0.00000000000E+00 -0.10877362010E+04  0.10877362010E+04  0.00000000000E+00 0.  1.
         -6    2    1    2    0  503  0.42537029444E+02 -0.20451151631E+03 -0.94554885634E+03  0.98325699292E+03  0.17057935171E+03 0.  0.
        -24    2    3    3    0    0  0.82394519101E+01 -0.12611768289E+03 -0.33314089860E+03  0.36488209559E+03  0.78629045905E+02 0.  0.
          6    2    1    2  501    0 -0.42537029444E+02  0.20451151631E+03  0.24994263076E+02  0.27166081579E+03  0.17187357700E+03 0.  0.
         24    2    5    5    0    0  0.18804188803E+02  0.59752494999E+02 -0.26318060134E+02  0.10621304814E+03  0.81637081832E+02 0.  0.
          5    1    5    5  501    0 -0.61341218246E+02  0.14475902131E+03  0.51312323209E+02  0.16544776765E+03  0.47000000000E+01 0. -1.
        -11    1    6    6    0    0  0.50638931793E+02  0.44183191002E+02 -0.20787074601E+02  0.70345989585E+02  0.00000000000E+00 0.  1.
         12    1    6    6    0    0 -0.31834742990E+02  0.15569303998E+02 -0.55309855329E+01  0.35867058552E+02  0.00000000000E+00 0. -1.
         -5    1    3    3    0  503  0.34297577533E+02 -0.78393833423E+02 -0.61240795774E+03  0.61837489733E+03  0.47000000000E+01 0.  1.
         13    1    4    4    0    0 -0.96481420802E+01  0.86147328925E+01 -0.29068714579E+02  0.31816511997E+02  0.00000000000E+00 0. -1.
        -14    1    4    4    0    0  0.17887593990E+02 -0.13473241578E+03 -0.30407218402E+03  0.33306558360E+03  0.00000000000E+00 0.  1.
</event>
<event>
12    1  0.1597826E-001  0.3910682E+03  0.7818608E-02  0.1047004E+00
         21   -1    0    0  501  502  0.00000000000E+00  0.00000000000E+00  0.15811358431E+04  0.15811358431E+04  0.00000000000E+00 0.  1.
         21   -1    0    0  502  503 -0.00000000000E+00 -0.00000000000E+00 -0.37004797832E+03  0.37004797832E+03  0.00000000000E+00 0. -1.
         -6    2    1    2    0  503  0.34976147270E+03  0.26095791560E+02 -0.23307891288E+03  0.45525828165E+03  0.17297469544E+03 0.  0.
        -24    2    3    3    0    0  0.22704052099E+03 -0.50391940655E+02 -0.14173421659E+03  0.28415378520E+03  0.81043442887E+02 0.  0.
          6    2    1    2  501    0 -0.34976147270E+03 -0.26095791560E+02  0.14441667777E+04  0.14959255398E+04  0.17076727053E+03 0.  0.
         24    2    5    5    0    0 -0.32332947838E+03  0.95926102707E+01  0.11152481989E+04  0.11639890491E+04  0.80361630230E+02 0.  0.
          5    1    5    5  501    0 -0.26431994322E+02 -0.35688401830E+02  0.32891857879E+03  0.33193649064E+03  0.47000000000E+01 0. -1.
        -11    1    6    6    0    0 -0.72116230812E+02  0.36000450692E+02  0.28244881313E+03  0.29372455674E+03  0.00000000000E+00 0.  1.
         12    1    6    6    0    0 -0.25121324756E+03 -0.26407840421E+02  0.83279938575E+03  0.87026449237E+03  0.00000000000E+00 0. -1.
         -5    1    3    3    0  503  0.12272095171E+03  0.76487732214E+02 -0.91344696293E+02  0.17110449646E+03  0.47000000000E+01 0.  1.
         11    1    4    4    0    0  0.16179405155E+03  0.54501389117E+00 -0.10928639058E+03  0.19524632474E+03  0.00000000000E+00 0. -1.
        -12    1    4    4    0    0  0.65246469443E+02 -0.50936954546E+02 -0.32447826011E+02  0.88907460463E+02  0.00000000000E+00 0.  1.
</event>
<event>
12    1  0.1597826E-001  0.1863473E+03  0.7818608E-02  0.1164266E+00
         21   -1    0    0  501  502  0.00000000000E+00  0.00000000000E+00  0.15443426919E+03  0.15443426919E+03  0.00000000000E+00 0. -1.
         21   -1    0    0  502  503 -0.00000000000E+00 -0.00000000000E+00 -0.46548918298E+03  0.46548918298E+03  0.00000000000E+00 0. -1.
         -6    2    1    2    0  503  0.10600680573E+02 -0.31416424303E+02 -0.38600499546E+03  0.42863173456E+03  0.18337377460E+03 0.  0.
        -24    2    3    3    0    0  0.33644583093E+02 -0.88864107534E+02 -0.26202463652E+03  0.28997937377E+03  0.80014620456E+02 0.  0.
          6    2    1    2  501    0 -0.10600680573E+02  0.31416424303E+02  0.74950081673E+02  0.19129171761E+03  0.17284571253E+03 0.  0.
         24    2    5    5    0    0 -0.28067036406E+02  0.52505211247E+02 -0.12703660259E+02  0.99340214111E+02  0.78501843386E+02 0.  0.
          5    1    5    5  501    0  0.17466355833E+02 -0.21088786943E+02  0.87653741932E+02  0.91951503498E+02  0.47000000000E+01 0. -1.
        -11    1    6    6    0    0 -0.14826775571E+02  0.66128487876E+02 -0.29565831726E+02  0.73938816519E+02  0.00000000000E+00 0.  1.
         12    1    6    6    0    0 -0.13240260835E+02 -0.13623276629E+02  0.16862171467E+02  0.25401397592E+02  0.00000000000E+00 0. -1.
         -5    1    3    3    0  503 -0.23043902520E+02  0.57447683231E+02 -0.12398035893E+03  0.13865236079E+03  0.47000000000E+01 0.  1.
         11    1    4    4    0    0  0.78830157855E+01 -0.25615242336E+02 -0.18544158588E+03  0.18736825866E+03  0.00000000000E+00 0. -1.
        -12    1    4    4    0    0  0.25761567307E+02 -0.63248865198E+02 -0.76583050643E+02  0.10261111511E+03  0.00000000000E+00 0.  1.
</event>
<event>
12    1  0.1597826E-001  0.2025244E+03  0.7818608E-02  0.1148127E+00
         21   -1    0    0  501  502  0.00000000000E+00  0.00000000000E+00  0.14188972982E+04  0.14188972982E+04  0.00000000000E+00 0. -1.
         21   -1    0    0  502  503 -0.00000000000E+00 -0.00000000000E+00 -0.35290938318E+02  0.35290938318E+02  0.00000000000E+00 0.  1.
         -6    2    1    2    0  503  0.65507897364E+02  0.83921502073E+02  0.37107821128E+03  0.42160438961E+03  0.16946126201E+03 0.  0.
        -24    2    3    3    0    0  0.49726885085E+02  0.10555160410E+01  0.12927786658E+03  0.16546905685E+03  0.90517207053E+02 0.  0.
          6    2    1    2  501    0 -0.65507897364E+02 -0.83921502073E+02  0.10125281486E+04  0.10325838469E+04  0.17228478187E+03 0.  0.
         24    2    5    5    0    0  0.13166808266E+02 -0.28390762430E+02  0.70329152171E+03  0.70866602745E+03  0.81296824813E+02 0.  0.
          5    1    5    5  501    0 -0.78674705630E+02 -0.55530739643E+02  0.30923662687E+03  0.32391781944E+03  0.47000000000E+01 0. -1.
        -13    1    6    6    0    0  0.28349724605E+02  0.62108630335E+01  0.98276833302E+02  0.10247252153E+03  0.00000000000E+00 0.  1.
         14    1    6    6    0    0 -0.15182916339E+02 -0.34601625464E+02  0.60501468841E+03  0.60619350592E+03  0.00000000000E+00 0. -1.
         -5    1    3    3    0  503  0.15781012278E+02  0.82865986032E+02  0.24180034470E+03  0.25613533276E+03  0.47000000000E+01 0.  1.
         11    1    4    4    0    0 -0.14656208935E+02 -0.19454367450E+02  0.74819949755E+02  0.78684825440E+02  0.00000000000E+00 0. -1.
        -12    1    4    4    0    0  0.64383094020E+02  0.20509883491E+02  0.54457916828E+02  0.86784231411E+02  0.00000000000E+00 0.  1.
</event>
<event>
12    1  0.1597826E-001  0.1898348E+03  0.7818608E-02  0.1158999E+00
         21   -1    0    0  503  502  0.00000000000E+00  0.00000000000E+00  0.58943035102E+03  0.58943035102E+03  0.00000000000E+00 0. -1.
         21   -1    0    0  501  503 -0.00000000000E+00 -0.00000000000E+00 -0.66282965139E+02  0.66282965139E+02  0.00000000000E+00 0. -1.
          6    2    1    2  501    0 -0.65439326442E+02  0.41047566036E+02  0.16656404210E+03  0.25254869816E+03  0.17340719909E+03 0.  0.
         24    2    3    3    0    0 -0.66137196265E+02  0.69304646986E+02  0.18178732017E+03  0.22010200586E+03  0.78873318596E+02 0.  0.
         -6    2    1    2    0  502  0.65439326442E+02 -0.41047566036E+02  0.35658334377E+03  0.40316461800E+03  0.17153081364E+03 0.  0.
        -24    2    5    5    0    0  0.16065225562E+02 -0.43549374325E+02  0.33365277370E+03  0.34846578870E+03  0.89160490260E+02 0.  0.
          5    1    3    3  501    0  0.69786982283E+00 -0.28257080951E+02 -0.15223278062E+02  0.32446692298E+02  0.47000000000E+01 0. -1.
        -11    1    4    4    0    0 -0.94417994910E-01 -0.60560318542E+00  0.80237076535E+02  0.80239417501E+02  0.00000000000E+00 0.  1.
         12    1    4    4    0    0 -0.66042778270E+02  0.69910250172E+02  0.10155024363E+03  0.13986258836E+03  0.00000000000E+00 0. -1.
         -5    1    5    5    0  502  0.49374100881E+02  0.25018082889E+01  0.22930570077E+02  0.54698829298E+02  0.47000000000E+01 0.  1.
         11    1    6    6    0    0  0.28744162602E+02 -0.39990673585E+01  0.27538977307E+03  0.27691469180E+03  0.00000000000E+00 0. -1.
        -12    1    6    6    0    0 -0.12678937040E+02 -0.39550306966E+02  0.58263000623E+02  0.71551096897E+02  0.00000000000E+00 0.  1.
</event>
<event>
12    1  0.1597826E-001  0.3532914E+03  0.7818608E-02  0.1061277E+00
         21   -1    0    0  503  502  0.00000000000E+00  0.00000000000E+00  0.23524821098E+03  0.23524821098E+03  0.00000000000E+00 0.  1.
         21   -1    0    0  501  503 -0.00000000000E+00 -0.00000000000E+00 -0.57000943522E+03  0.57000943522E+03  0.00000000000E+00 0.  1.
          6    2    1    2  501    0 -0.28841309499E+03 -0.10957989227E+03 -0.61360573322E+02  0.35853322336E+03  0.17202059803E+03 0.  0.
         24    2    3    3    0    0 -0.19562543928E+03 -0.73326723341E+01 -0.11165853346E+02  0.21154464234E+03  0.79393821216E+02 0.  0.
         -6    2    1    2    0  502  0.28841309499E+03  0.10957989227E+03 -0.27340065091E+03  0.44672442284E+03  0.17211893530E+03 0.  0.
        -24    2    5    5    0    0  0.11035623451E+03  0.26789019217E+02 -0.47967831218E+02  0.14772505759E+03  0.81397971486E+02 0.  0.
          5    1    3    3  501    0 -0.92787655712E+02 -0.10224721993E+03 -0.50194719976E+02  0.14698858102E+03  0.47000000000E+01 0. -1.
        -11    1    4    4    0    0 -0.29455826149E+02  0.49357304247E+01 -0.31827869537E+02  0.43646539476E+02  0.00000000000E+00 0.  1.
         12    1    4    4    0    0 -0.16616961313E+03 -0.12268402759E+02  0.20662016191E+02  0.16789810287E+03  0.00000000000E+00 0. -1.
         -5    1    5    5    0  502  0.17805686048E+03  0.82790873050E+02 -0.22543281969E+03  0.29899936525E+03  0.47000000000E+01 0.  1.
         13    1    6    6    0    0  0.13044850847E+02  0.39016599418E+02 -0.19970743666E+02  0.45730665492E+02  0.00000000000E+00 0. -1.
        -14    1    6    6    0    0  0.97311383658E+02 -0.12227580201E+02 -0.27997087552E+02  0.10199439209E+03  0.00000000000E+00 0.  1.
</event>
<event>
12    1  0.1597826E-001  0.1757090E+03  0.7818608E-02  0.1172717E+00
         21   -1    0    0  503  502  0.00000000000E+00  0.00000000000E+00  0.57289085222E+03  0.57289085222E+03  0.00000000000E+00 0.  1.
         21   -1    0    0  501  503 -0.00000000000E+00 -0.00000000000E+00 -0.15780928304E+03  0.15780928304E+03  0.00000000000E+00 0.  1.
          6    2    1    2  501    0  0.14219742267E+02  0.16336771708E+02 -0.90685903064E+02  0.19528031264E+03  0.17158489535E+03 0.  0.
         24    2    3    3    0    0 -0.84387889665E+01  0.70135610279E+02 -0.88101229662E+02  0.13665869030E+03  0.76964628099E+02 0.  0.
         -6    2    1    2    0  502 -0.14219742267E+02 -0.16336771708E+02  0.50576747225E+03  0.53541982262E+03  0.17436903193E+03 0.  0.
        -24    2    5    5    0    0 -0.31864235450E+02  0.43129769636E+02  0.18682443657E+03  0.21046698345E+03  0.80730876955E+02 0.  0.
          5    1    3    3  501    0  0.22658531233E+02 -0.53798838571E+02 -0.25846734019E+01  0.58621622340E+02  0.47000000000E+01 0. -1.
        -11    1    4    4    0    0  0.15650216661E+02 -0.38868096194E+01 -0.44730717207E+02  0.47548644906E+02  0.00000000000E+00 0.  1.
         12    1    4    4    0    0 -0.24089005627E+02  0.74022419898E+02 -0.43370512455E+02  0.89110045395E+02  0.00000000000E+00 0. -1.
         -5    1    5    5    0  502  0.17644493183E+02 -0.59466541344E+02  0.31894303568E+03  0.32495283917E+03  0.47000000000E+01 0.  1.
         11    1    6    6    0    0  0.10851040132E+02  0.40389658033E+02  0.41295827353E+02  0.58774270772E+02  0.00000000000E+00 0. -1.
        -12    1    6    6    0    0 -0.42715275582E+02  0.27401116029E+01  0.14552860921E+03  0.15169271268E+03  0.00000000000E+00 0.  1.
</event>
<event>
12    1  0.1597826E-001  0.2514918E+03  0.7818608E-02  0.1112644E+00
         21   -1    0    0  503  502  0.00000000000E+00  0.00000000000E+00  0.24115575416E+03  0.24115575416E+03  0.00000000000E+00 0. -1.
         21   -1    0    0  501  503 -0.00000000000E+00 -0.00000000000E+00 -0.27262334831E+03  0.27262334831E+03  0.00000000000E+00 0. -1.
          6    2    1    2  501    0  0.11629144915E+01  0.18473193954E+03  0.38643542736E+02  0.25269730584E+03  0.16803381543E+03 0.  0.
         24    2    3    3    0    0 -0.97468044446E+01  0.99317606884E+02  0.86628946719E+02  0.15400931677E+03  0.79090505181E+02 0.  0.
         -6    2    1    2    0  502 -0.11629144915E+01 -0.18473193954E+03 -0.70111136885E+02  0.26108179663E+03  0.17064844318E+03 0.  0.
        -24    2    5    5    0    0  0.25599828550E+02 -0.47676834228E+02 -0.72723229663E+02  0.12133467023E+03  0.80653594613E+02 0.  0.
          5    1    3    3  501    0  0.10909718936E+02  0.85414332654E+02 -0.47985403983E+02  0.98687989064E+02  0.47000000000E+01 0. -1.
        -11    1    4    4    0    0 -0.42318617400E+02  0.36568658112E+02  0.46364906889E+02  0.72648721431E+02  0.00000000000E+00 0.  1.
         12    1    4    4    0    0  0.32571812956E+02  0.62748948772E+02  0.40264039830E+02  0.81360595344E+02  0.00000000000E+00 0. -1.
         -5    1    5    5    0  502 -0.26762743041E+02 -0.13705510531E+03  0.26120927778E+01  0.13974712639E+03  0.47000000000E+01 0.  1.
         13    1    6    6    0    0  0.26454927815E+02 -0.66235677993E+02 -0.35360479530E+02  0.79607736794E+02  0.00000000000E+00 0. -1.
        -14    1    6    6    0    0 -0.85509926507E+00  0.18558843765E+02 -0.37362750133E+02  0.41726933438E+02  0.00000000000E+00 0.  1.
</event>
<event>
12    1  0.1597826E-001  0.1790989E+03  0.7818608E-02  0.1168864E+00
         21   -1    0    0  503  502  0.00000000000E+00  0.00000000000E+00  0.58254674168E+03  0.58254674168E+03  0.00000000000E+00 0. -1.
         21   -1    0    0  501  503 -0.00000000000E+00 -0.00000000000E+00 -0.92902267548E+02  0.92902267548E+02  0.00000000000E+00 0. -1.
          6    2    1    2  501    0 -0.20105991358E+02  0.43739340748E+02  0.28926661131E+02  0.18141982209E+03  0.17250802678E+03 0.  0.
         24    2    3    3    0    0  0.49933668558E+02  0.20779012806E+02 -0.19662498725E+02  0.93013221224E+02  0.73073297705E+02 0.  0.
         -6    2    1    2    0  502  0.20105991358E+02 -0.43739340748E+02  0.46071781300E+03  0.49402918715E+03  0.17171649226E+03 0.  0.
        -24    2    5    5    0    0 -0.18292088403E+02 -0.87153856539E+02  0.29070579517E+03  0.31434777764E+03  0.79839030299E+02 0.  0.
          5    1    3    3  501    0 -0.70039659916E+02  0.22960327942E+02  0.48589159856E+02  0.88406600861E+02  0.47000000000E+01 0. -1.
        -11    1    4    4    0    0  0.25633509785E+02  0.14046433397E+02  0.27116577654E+02  0.39870890368E+02  0.00000000000E+00 0.  1.
         12    1    4    4    0    0  0.24300158773E+02  0.67325794085E+01 -0.46779076379E+02  0.53142330856E+02  0.00000000000E+00 0. -1.
         -5    1    5    5    0  502  0.38398079761E+02  0.43414515792E+02  0.17001201784E+03  0.17968140950E+03  0.47000000000E+01 0.  1.
         11    1    6    6    0    0  0.94782842489E+01 -0.76885628650E+02  0.26160051439E+03  0.27282973975E+03  0.00000000000E+00 0. -1.
        -12    1    6    6    0    0 -0.27770372652E+02 -0.10268227889E+02  0.29105280778E+02  0.41518037892E+02  0.00000000000E+00 0.  1.
</event>
<event>
12    1  0.1597826E-001  0.4414705E+03  0.7818608E-02  0.1030609E+00
         21   -1    0    0  501  502  0.00000000000E+00  0.00000000000E+00  0.41629776571E+03  0.41629776571E+03  0.00000000000E+00 0. -1.
         21   -1    0    0  502  503 -0.00000000000E+00 -0.00000000000E+00 -0.86404182884E+03  0.86404182884E+03  0.00000000000E+00 0.  1.
         -6    2    1    2    0  503  0.25419503361E+03 -0.31623231836E+03 -0.66009129134E+03  0.79411379571E+03  0.17400636006E+03 0.  0.
        -24    2    3    3    0    0  0.13776380815E+03 -0.15237814760E+03 -0.46230048754E+03  0.51207175698E+03  0.79358533403E+02 0.  0.
          6    2    1    2  501    0 -0.25419503361E+03  0.31623231836E+03  0.21234722821E+03  0.48622579884E+03  0.16342027978E+03 0.  0.
         24    2    5    5    0    0 -0.12976924305E+03  0.25716921689E+03  0.13992781098E+03  0.33054378542E+03  0.81873922801E+02 0.  0.
          5    1    5    5  501    0 -0.12442579056E+03  0.59063101462E+02  0.72419417229E+02  0.15568201342E+03  0.47000000000E+01 0. -1.
        -13    1    6    6    0    0 -0.42535661358E+02  0.12474939907E+03  0.23644551846E+02  0.13390578736E+03  0.00000000000E+00 0.  1.
         14    1    6    6    0    0 -0.87233581695E+02  0.13241981782E+03  0.11628325914E+03  0.19663799806E+03  0.00000000000E+00 0. -1.
         -5    1    3    3    0  503  0.11643122546E+03 -0.16385417076E+03 -0.19779080381E+03  0.28204203872E+03  0.47000000000E+01 0.  1.
         13    1    4    4    0    0  0.65016209055E+02 -0.27085322944E+02 -0.10417693450E+03  0.12575196158E+03  0.00000000000E+00 0. -1.
        -14    1    4    4    0    0  0.72747599097E+02 -0.12529282465E+03 -0.35812355304E+03  0.38631979541E+03  0.00000000000E+00 0.  1.
</event>
<event>
12    1  0.1597826E-001  0.2313891E+03  0.7818608E-02  0.1125934E+00
         21   -1    0    0  503  502  0.00000000000E+00  0.00000000000E+00  0.73152553791E+03  0.73152553791E+03  0.00000000000E+00 0. -1.
         21   -1    0    0  501  503 -0.00000000000E+00 -0.00000000000E+00 -0.17716537075E+03  0.17716537075E+03  0.00000000000E+00 0.  1.
          6    2    1    2  501    0  0.99968097734E+02 -0.11780990205E+03 -0.72071248493E+02  0.24089061751E+03  0.17017999636E+03 0.  0.
         24    2    3    3    0    0  0.11344192398E+03 -0.13589056584E+03 -0.28804503076E+02  0.19187474604E+03  0.68197527595E+02 0.  0.
         -6    2    1    2    0  502 -0.99968097734E+02  0.11780990205E+03  0.62643141566E+03  0.66780029115E+03  0.17224435188E+03 0.  0.
        -24    2    5    5    0    0 -0.86003119124E+02  0.68482077800E+02  0.22399402658E+03  0.26208339847E+03  0.80175135395E+02 0.  0.
          5    1    3    3  501    0 -0.13473826245E+02  0.18080663794E+02 -0.43266745417E+02  0.49015871469E+02  0.47000000000E+01 0. -1.
        -11    1    4    4    0    0  0.82803733748E+02 -0.11265674206E+03 -0.49363045844E+02  0.14827241871E+03  0.00000000000E+00 0.  1.
         12    1    4    4    0    0  0.30638190231E+02 -0.23233823779E+02  0.20558542768E+02  0.43602327333E+02  0.00000000000E+00 0. -1.
         -5    1    5    5    0  502 -0.13964978610E+02  0.49327824249E+02  0.40243738908E+03  0.40571689268E+03  0.47000000000E+01 0.  1.
         13    1    6    6    0    0 -0.96674472910E+01 -0.10417190109E+02  0.78724236876E+02  0.79996767801E+02  0.00000000000E+00 0. -1.
        -14    1    6    6    0    0 -0.76335671833E+02  0.78899267909E+02  0.14526978970E+03  0.18208663067E+03  0.00000000000E+00 0.  1.
</event>
<event>
12    1  0.1597826E-001  0.1905917E+03  0.7818608E-02  0.1158267E+00
         21   -1    0    0  503  502  0.00000000000E+00  0.00000000000E+00  0.78239640371E+03  0.78239640371E+03  0.00000000000E+00 0.  1.
         21   -1    0    0  501  503 -0.00000000000E+00 -0.00000000000E+00 -0.35092310980E+03  0.35092310980E+03  0.00000000000E+00 0.  1.
          6    2    1    2  501    0  0.32834706653E+01 -0.81857299301E+02 -0.31231191259E+03  0.36587420224E+03  0.17208661335E+03 0.  0.
         24    2    3    3    0    0 -0.18274997600E+02 -0.53504773326E+02 -0.68786823003E+02  0.11971329442E+03  0.80018182531E+02 0.  0.
         -6    2    1    2    0  502 -0.32834706653E+01  0.81857299301E+02  0.74378520650E+03  0.76744531126E+03  0.17042439306E+03 0.  0.
        -24    2    5    5    0    0 -0.59550535389E+02  0.64607245640E+02  0.60521549255E+03  0.61682259536E+03  0.80398751645E+02 0.  0.
          5    1    3    3  501    0  0.21558468265E+02 -0.28352525976E+02 -0.24352508959E+03  0.24616090782E+03  0.47000000000E+01 0. -1.
        -11    1    4    4    0    0 -0.23783842460E+02 -0.41109201862E+02 -0.85731626571E+02  0.98007904959E+02  0.00000000000E+00 0.  1.
         12    1    4    4    0    0  0.55088448598E+01 -0.12395571463E+02  0.16944803568E+02  0.21705389459E+02  0.00000000000E+00 0. -1.
         -5    1    5    5    0  502  0.56267064724E+02  0.17250053661E+02  0.13856971394E+03  0.15062271590E+03  0.47000000000E+01 0.  1.
         11    1    6    6    0    0  0.44614565214E+01 -0.10281398752E+02  0.17978409235E+03  0.18013309418E+03  0.00000000000E+00 0. -1.
        -12    1    6    6    0    0 -0.64011991911E+02  0.74888644392E+02  0.42543140020E+03  0.43668950119E+03  0.00000000000E+00 0.  1.
</event>
<event>
12    1  0.1597826E-001  0.2025918E+03  0.7818608E-02  0.1147702E+00
         21   -1    0    0  503  502  0.00000000000E+00  0.00000000000E+00  0.68664885172E+02  0.68664885172E+02  0.00000000000E+00 0.  1.
         21   -1    0    0  501  503 -0.00000000000E+00 -0.00000000000E+00 -0.10158927144E+04  0.10158927144E+04  0.00000000000E+00 0.  1.
          6    2    1    2  501    0  0.95644693600E+02  0.45272030816E+02 -0.82273626725E+03  0.84731244695E+03  0.17275981338E+03 0.  0.
         24    2    3    3    0    0  0.85484491464E+02  0.95538051474E+02 -0.62923526002E+03  0.64707600586E+03  0.79594141432E+02 0.  0.
         -6    2    1    2    0  502 -0.95644693600E+02 -0.45272030816E+02 -0.12449156194E+03  0.23724515258E+03  0.17201642143E+03 0.  0.
        -24    2    5    5    0    0 -0.12634914227E+03 -0.24931334248E+02 -0.13229421073E+03  0.19930469353E+03  0.75066140776E+02 0.  0.
          5    1    3    3  501    0  0.10160202136E+02 -0.50266020657E+02 -0.19350100723E+03  0.20023644109E+03  0.47000000000E+01 0. -1.
        -11    1    4    4    0    0  0.35551647447E+02  0.62328230435E+02 -0.49342726904E+03  0.49861728588E+03  0.00000000000E+00 0.  1.
         12    1    4    4    0    0  0.49932844017E+02  0.33209821039E+02 -0.13580799098E+03  0.14845871998E+03  0.00000000000E+00 0. -1.
         -5    1    5    5    0  502  0.30704448671E+02 -0.20340696568E+02  0.78026487900E+01  0.37940459053E+02  0.47000000000E+01 0.  1.
         13    1    6    6    0    0  0.99197278581E+01  0.93681011366E+00 -0.54978764378E+01  0.11380037754E+02  0.00000000000E+00 0. -1.
        -14    1    6    6    0    0 -0.13626887013E+03 -0.25868144362E+02 -0.12679633429E+03  0.18792465578E+03  0.00000000000E+00 0.  1.
</event>
<event>
12    1  0.1597826E-001  0.2117382E+03  0.7818608E-02  0.1140241E+00
         21   -1    0    0  503  502  0.00000000000E+00  0.00000000000E+00  0.21412689333E+03  0.21412689333E+03  0.00000000000E+00 0. -1.
         21   -1    0    0  501  503 -0.00000000000E+00 -0.00000000000E+00 -0.32792021101E+03  0.32792021101E+03  0.00000000000E+00 0. -1.
          6    2    1    2  501    0 -0.18006684515E+02 -0.12010628682E+03  0.10622941681E+03  0.23668984163E+03  0.17316937176E+03 0.  0.
         24    2    3    3    0    0 -0.27735559977E+02 -0.52573621881E+02  0.12998713815E+03  0.16428935009E+03  0.81000539889E+02 0.  0.
         -6    2    1    2    0  502  0.18006684515E+02  0.12010628682E+03 -0.22002273449E+03  0.30535726272E+03  0.17344536136E+03 0.  0.
        -24    2    5    5    0    0 -0.24523107292E+02  0.11279484347E+03 -0.22056670332E+03  0.26194497992E+03  0.81495045191E+02 0.  0.
          5    1    3    3  501    0  0.97288754626E+01 -0.67532664944E+02 -0.23757721344E+02  0.72400491543E+02  0.47000000000E+01 0. -1.
        -11    1    4    4    0    0 -0.13976562057E+02 -0.35663795608E+02  0.64506350926E+01  0.38844063861E+02  0.00000000000E+00 0.  1.
         12    1    4    4    0    0 -0.13758997920E+02 -0.16909826273E+02  0.12353650306E+03  0.12544528623E+03  0.00000000000E+00 0. -1.
         -5    1    5    5    0  502  0.42529791807E+02  0.73114433569E+01  0.54396882683E+00  0.43412282791E+02  0.47000000000E+01 0.  1.
         11    1    6    6    0    0  0.15074059331E+02  0.88322814478E+02 -0.10928669097E+03  0.14132136302E+03  0.00000000000E+00 0. -1.
        -12    1    6    6    0    0 -0.39597166623E+02  0.24472028990E+02 -0.11128001235E+03  0.12062361691E+03  0.00000000000E+00 0.  1.
</event>
<event>
12    1  0.1597826E-001  0.1802022E+03  0.7818608E-02  0.1170315E+00
         21   -1    0    0  501  502  0.00000000000E+00  0.00000000000E+00  0.36801140473E+03  0.36801140473E+03  0.00000000000E+00 0.  1.
         21   -1    0    0  502  503 -0.00000000000E+00 -0.00000000000E+00 -0.12917172682E+03  0.12917172682E+03  0.00000000000E+00 0.  1.
         -6    2    1    2    0  503 -0.25842344212E+02  0.34172355708E+02  0.26560191389E+03  0.31500453524E+03  0.16385329998E+03 0.  0.
        -24    2    3    3    0    0 -0.69887017197E+02  0.28503039020E+02  0.11382284993E+03  0.15679249833E+03  0.77017062779E+02 0.  0.
          6    2    1    2  501    0  0.25842344212E+02 -0.34172355708E+02 -0.26762235981E+02  0.18217859631E+03  0.17503498801E+03 0.  0.
         24    2    5    5    0    0  0.71032817491E+02 -0.48990664877E+02 -0.51291449388E+02  0.12846143450E+03  0.80160969108E+02 0.  0.
          5    1    5    5  501    0 -0.45190473279E+02  0.14818309169E+02  0.24529213407E+02  0.53717161803E+02  0.47000000000E+01 0. -1.
        -11    1    6    6    0    0  0.31528345685E+02 -0.67220239029E+02 -0.33559763633E+02  0.81479168208E+02  0.00000000000E+00 0.  1.
         12    1    6    6    0    0  0.39504471806E+02  0.18229574152E+02 -0.17731685755E+02  0.46982266294E+02  0.00000000000E+00 0. -1.
         -5    1    3    3    0  503  0.44044672984E+02  0.56693166884E+01  0.15177906395E+03  0.15821203692E+03  0.47000000000E+01 0.  1.
         13    1    4    4    0    0  0.14908073646E+02  0.57036320140E+01  0.36325568934E+02  0.39677815418E+02  0.00000000000E+00 0. -1.
        -14    1    4    4    0    0 -0.84795090843E+02  0.22799407006E+02  0.77497280998E+02  0.11711468291E+03  0.00000000000E+00 0.  1.
</event>
<event>
12    1  0.1597826E-001  0.1736234E+03  0.7818608E-02  0.1174293E+00
         21   -1    0    0  501  502  0.00000000000E+00  0.00000000000E+00  0.20250269055E+04  0.20250269055E+04  0.00000000000E+00 0.  1.
         21   -1    0    0  502  503 -0.00000000000E+00 -0.00000000000E+00 -0.81246008926E+02  0.81246008926E+02  0.00000000000E+00 0.  1.
         -6    2    1    2    0  503  0.22908638316E+02  0.47729638028E+01  0.19349576716E+02  0.17402525971E+03  0.17135576444E+03 0.  0.
        -24    2    3    3    0    0 -0.36841447614E+02  0.44806771794E+02  0.12549551624E+01  0.99713188822E+02  0.81093810193E+02 0.  0.
          6    2    1    2  501    0 -0.22908638316E+02 -0.47729638028E+01  0.19244313198E+04  0.19322476547E+04  0.17203926123E+03 0.  0.
         24    2    5    5    0    0 -0.14325082090E+02  0.16784358503E+02  0.18802836586E+04  0.18821527291E+04  0.80903250826E+02 0.  0.
          5    1    5    5  501    0 -0.85835562262E+01 -0.21557322305E+02  0.44147661211E+02  0.50094925620E+02  0.47000000000E+01 0. -1.
        -13    1    6    6    0    0 -0.34329186680E+02 -0.18777261764E+02  0.12068443177E+04  0.12074784825E+04  0.00000000000E+00 0.  1.
         14    1    6    6    0    0  0.20004104591E+02  0.35561620266E+02  0.67343934090E+03  0.67467424652E+03  0.00000000000E+00 0. -1.
         -5    1    3    3    0  503  0.59750085930E+02 -0.40033807991E+02  0.18094621553E+02  0.74312070891E+02  0.47000000000E+01 0.  1.
         13    1    4    4    0    0  0.37354262615E+01  0.42154262895E+02  0.28270463701E+02  0.50893559587E+02  0.00000000000E+00 0. -1.
        -14    1    4    4    0    0 -0.40576873876E+02  0.26525088992E+01 -0.27015508539E+02  0.48819629234E+02  0.00000000000E+00 0.  1.
</event>
<event>
12    1  0.1597826E-001  0.1758994E+03  0.7818608E-02  0.1172135E+00
         21   -1    0    0  503  502  0.00000000000E+00  0.00000000000E+00  0.82409950116E+03  0.82409950116E+03  0.00000000000E+00 0. -1.
         21   -1    0    0  501  503 -0.00000000000E+00 -0.00000000000E+00 -0.63891197107E+02  0.63891197107E+02  0.00000000000E+00 0. -1.
          6    2    1    2  501    0 -0.26423699548E+02  0.16345891052E+02  0.94362884002E+02  0.19961199696E+03  0.17313346124E+03 0.  0.
         24    2    3    3    0    0  0.23245186575E+02 -0.29791949646E+02  0.11079773799E+02  0.92123090375E+02  0.83282671848E+02 0.  0.
         -6    2    1    2    0  502  0.26423699548E+02 -0.16345891052E+02  0.66584542005E+03  0.68837870131E+03  0.17190029948E+03 0.  0.
        -24    2    5    5    0    0  0.62247711722E+02 -0.40631285989E+02  0.29628484975E+03  0.31626279816E+03  0.81925370265E+02 0.  0.
          5    1    3    3  501    0 -0.49668886123E+02  0.46137840699E+02  0.83283110203E+02  0.10748890658E+03  0.47000000000E+01 0. -1.
        -13    1    4    4    0    0  0.94975598092E+00 -0.20602009139E+02  0.45580838118E+02  0.50029567463E+02  0.00000000000E+00 0.  1.
         14    1    4    4    0    0  0.22295430594E+02 -0.91899405072E+01 -0.34501064319E+02  0.42093522911E+02  0.00000000000E+00 0. -1.
         -5    1    5    5    0  502 -0.35824012175E+02  0.24285394937E+02  0.36956057030E+03  0.37211590315E+03  0.47000000000E+01 0.  1.
         13    1    6    6    0    0  0.11493694209E+02  0.11346608680E+02  0.16848857453E+03  0.16926089413E+03  0.00000000000E+00 0. -1.
        -14    1    6    6    0    0  0.50754017513E+02 -0.51977894669E+02  0.12779627522E+03  0.14700190403E+03  0.00000000000E+00 0.  1.
</event>
<event>
12    1  0.1597826E-001  0.4341445E+03  0.7818608E-02  0.1032571E+00
         21   -1    0    0  501  502  0.00000000000E+00  0.00000000000E+00  0.29501433946E+03  0.29501433946E+03  0.00000000000E+00 0.  1.
         21   -1    0    0  502  503 -0.00000000000E+00 -0.00000000000E+00 -0.12851566743E+04  0.12851566743E+04  0.00000000000E+00 0. -1.
         -6    2    1    2    0  503 -0.39784806827E+03 -0.21359934551E+02 -0.10554020811E+04  0.11411490813E+04  0.17207074346E+03 0.  0.
        -24    2    3    3    0    0 -0.15821083219E+03  0.38934100796E+02 -0.35919492102E+03  0.40237450449E+03  0.79609791779E+02 0.  0.
          6    2    1    2  501    0  0.39784806827E+03  0.21359934551E+02  0.65259746262E+02  0.43902193245E+03  0.17245895296E+03 0.  0.
         24    2    5    5    0    0  0.24482811976E+03  0.80183258112E+02  0.47274464886E+02  0.27403451358E+03  0.80559769722E+02 0.  0.
          5    1    5    5  501    0  0.15301994851E+03 -0.58823323562E+02  0.17985281376E+02  0.16498741886E+03  0.47000000000E+01 0. -1.
        -11    1    6    6    0    0  0.79944971699E+02  0.49535703047E+01 -0.16736125384E+02  0.81828077404E+02  0.00000000000E+00 0.  1.
         12    1    6    6    0    0  0.16488314806E+03  0.75229687807E+02  0.64010590269E+02  0.19220643618E+03  0.00000000000E+00 0. -1.
         -5    1    3    3    0  503 -0.23963723608E+03 -0.60294035347E+02 -0.69620716005E+03  0.73877457680E+03  0.47000000000E+01 0.  1.
         11    1    4    4    0    0 -0.13404810648E+03  0.88838590448E+01 -0.21853968437E+03  0.25652955277E+03  0.00000000000E+00 0. -1.
        -12    1    4    4    0    0 -0.24162725715E+02  0.30050241751E+02 -0.14065523666E+03  0.14584495172E+03  0.00000000000E+00 0.  1.
</event>
<event>
12    1  0.1597826E-001  0.2113688E+03  0.7818608E-02  0.1140550E+00
         21   -1    0    0  503  502  0.00000000000E+00  0.00000000000E+00  0.41439632369E+02  0.41439632369E+02  0.00000000000E+00 0. -1.
         21   -1    0    0  501  503 -0.00000000000E+00 -0.00000000000E+00 -0.10898459183E+04  0.10898459183E+04  0.00000000000E+00 0.  1.
          6    2    1    2  501    0 -0.88207344992E+02 -0.85329802442E+02 -0.58645014239E+03  0.62326954242E+03  0.17169578358E+03 0.  0.
         24    2    3    3    0    0 -0.17809404495E+02  0.17192200473E+02 -0.21528914095E+03  0.23179896868E+03  0.82271507990E+02 0.  0.
         -6    2    1    2    0  502  0.88207344992E+02  0.85329802442E+02 -0.46195614351E+03  0.50801600822E+03  0.17209031113E+03 0.  0.
        -24    2    5    5    0    0  0.12130648608E+02  0.82864618363E+02 -0.37404159321E+03  0.39163388322E+03  0.80351026269E+02 0.  0.
          5    1    3    3  501    0 -0.70397940497E+02 -0.10252200292E+03 -0.37116100144E+03  0.39147057373E+03  0.47000000000E+01 0. -1.
        -11    1    4    4    0    0  0.20866021901E+02 -0.15921990228E+02 -0.12870655087E+03  0.13135553616E+03  0.00000000000E+00 0.  1.
         12    1    4    4    0    0 -0.38675426395E+02  0.33114190701E+02 -0.86582590080E+02  0.10044343253E+03  0.00000000000E+00 0. -1.
         -5    1    5    5    0  502  0.76076696383E+02  0.24651840790E+01 -0.87914550297E+02  0.11638212500E+03  0.47000000000E+01 0.  1.
         13    1    6    6    0    0  0.28668901644E+02  0.35829383853E+02 -0.71134015352E+02  0.84650450730E+02  0.00000000000E+00 0. -1.
        -14    1    6    6    0    0 -0.16538253036E+02  0.47035234510E+02 -0.30290757786E+03  0.30698343249E+03  0.00000000000E+00 0.  1.
</event>
<event>
12    1  0.1597826E-001  0.1942679E+03  0.7818608E-02  0.1155122E+00
         21   -1    0    0  503  502  0.00000000000E+00  0.00000000000E+00  0.26129248723E+03  0.26129248723E+03  0.00000000000E+00 0.  1.
         21   -1    0    0  501  503 -0.00000000000E+00 -0.00000000000E+00 -0.15302047458E+03  0.15302047458E+03  0.00000000000E+00 0.  1.
          6    2    1    2  501    0 -0.35696751812E+02 -0.78219953850E+02  0.11432547371E+01  0.19427127568E+03  0.17420505806E+03 0.  0.
         24    2    3    3    0    0  0.19894977643E+02 -0.29525309566E+02 -0.54537176917E+02  0.10162134727E+03  0.78006669677E+02 0.  0.
         -6    2    1    2    0  502  0.35696751812E+02  0.78219953850E+02  0.10712875791E+03  0.22004168613E+03  0.17189867246E+03 0.  0.
        -24    2    5    5    0    0  0.91233774564E+01  0.90321503059E+01 -0.11836733441E+02  0.79799130119E+02  0.77865121549E+02 0.  0.
          5    1    3    3  501    0 -0.55591729455E+02 -0.48694644283E+02  0.55680431654E+02  0.92649928412E+02  0.47000000000E+01 0. -1.
        -13    1    4    4    0    0  0.19330989210E+02  0.16730980573E+02 -0.48689533944E+02  0.54993486619E+02  0.00000000000E+00 0.  1.
         14    1    4    4    0    0  0.56398843293E+00 -0.46256290139E+02 -0.58476429722E+01  0.46627860649E+02  0.00000000000E+00 0. -1.
         -5    1    5    5    0  502  0.26573374355E+02  0.69187803544E+02  0.11896549135E+03  0.14024255601E+03  0.47000000000E+01 0.  1.
         13    1    6    6    0    0  0.25187339177E+02  0.35055610709E+02 -0.20820289775E+02  0.47924757311E+02  0.00000000000E+00 0. -1.
        -14    1    6    6    0    0 -0.16063961721E+02 -0.26023460403E+02  0.89835563335E+01  0.31874372808E+02  0.00000000000E+00 0.  1.
</event>
<event>
12    1  0.1597826E-001  0.2088683E+03  0.7818608E-02  0.1142576E+00
         21   -1    0    0  503  502  0.00000000000E+00  0.00000000000E+00  0.15676503026E+03  0.15676503026E+03  0.00000000000E+00 0. -1.
         21   -1    0    0  501  503 -0.00000000000E+00 -0.00000000000E+00 -0.32571052742E+03  0.32571052742E+03  0.00000000000E+00 0.  1.
          6    2    1    2  501    0  0.71200189844E+02  0.93067816408E+02 -0.17713935931E+03  0.27344660231E+03  0.17223125795E+03 0.  0.
         24    2    3    3    0    0  0.96036482196E+02  0.89128586454E+02 -0.19094956548E+03  0.24437478185E+03  0.78040929076E+02 0.  0.
         -6    2    1    2    0  502 -0.71200189844E+02 -0.93067816408E+02  0.81938621467E+01  0.20902895536E+03  0.17290135719E+03 0.  0.
        -24    2    5    5    0    0 -0.11417784658E+03 -0.51407071708E+02  0.29436946269E+01  0.14875996759E+03  0.80259547403E+02 0.  0.
          5    1    3    3  501    0 -0.24836292352E+02  0.39392299539E+01  0.13810206174E+02  0.29071820463E+02  0.47000000000E+01 0. -1.
        -11    1    4    4    0    0  0.10522881621E+03  0.72251110338E+02 -0.13769453891E+03  0.18775812300E+03  0.00000000000E+00 0.  1.
         12    1    4    4    0    0 -0.91923340117E+01  0.16877476116E+02 -0.53255026572E+02  0.56616658854E+02  0.00000000000E+00 0. -1.
         -5    1    5    5    0  502  0.42977656736E+02 -0.41660744701E+02  0.52501675199E+01  0.60268987767E+02  0.47000000000E+01 0.  1.
         13    1    6    6    0    0 -0.83371078980E+02 -0.26486645994E+02  0.38450252927E+02  0.95554702535E+02  0.00000000000E+00 0. -1.
        -14    1    6    6    0    0 -0.30806767599E+02 -0.24920425713E+02 -0.35506558300E+02  0.53205265059E+02  0.00000000000E+00 0.  1.
</event>
<event>
12    1  0.1597826E-001  0.2008223E+03  0.7818608E-02  0.1149214E+00
         21   -1    0    0  503  502  0.00000000000E+00  0.00000000000E+00  0.43236432131E+03  0.43236432131E+03  0.00000000000E+00 0. -1.
         21   -1    0    0  501  503 -0.00000000000E+00 -0.00000000000E+00 -0.12489632591E+03  0.12489632591E+03  0.00000000000E+00 0. -1.
          6    2    1    2  501    0  0.84631218725E+02 -0.58027145692E+02  0.12953449557E+02  0.20123958223E+03  0.17262672094E+03 0.  0.
         24    2    3    3    0    0  0.11041047336E+03 -0.81619599340E+00  0.18584260474E+02  0.13806158949E+03  0.80774308740E+02 0.  0.
         -6    2    1    2    0  502 -0.84631218725E+02  0.58027145692E+02  0.29451454584E+03  0.35602106499E+03  0.17170494514E+03 0.  0.
        -24    2    5    5    0    0 -0.32827415992E+01  0.81501660583E+02  0.14044929720E+03  0.18016084089E+03  0.77965546480E+02 0.  0.
          5    1    3    3  501    0 -0.25779254634E+02 -0.57210949699E+02 -0.56308109167E+01  0.63177992739E+02  0.47000000000E+01 0.  1.
        -13    1    4    4    0    0 -0.41565581849E+01 -0.20003148364E+02  0.55444931577E+01  0.21169419567E+02  0.00000000000E+00 0.  1.
         14    1    4    4    0    0  0.11456703154E+03  0.19186952371E+02  0.13039767316E+02  0.11689216992E+03  0.00000000000E+00 0. -1.
         -5    1    5    5    0  502 -0.81348477125E+02 -0.23474514890E+02  0.15406524864E+03  0.17586022409E+03  0.47000000000E+01 0.  1.
         13    1    6    6    0    0 -0.25019779510E+01  0.30585420201E+02  0.12231522561E+03  0.12610607534E+03  0.00000000000E+00 0. -1.
        -14    1    6    6    0    0 -0.78076364821E+00  0.50916240381E+02  0.18134071590E+02  0.54054765552E+02  0.00000000000E+00 0.  1.
</event>
<event>
12    1  0.1597826E-001  0.2067382E+03  0.7818608E-02  0.1144420E+00
         21   -1    0    0  503  502  0.00000000000E+00  0.00000000000E+00  0.59253588548E+02  0.59253588548E+02  0.00000000000E+00 0. -1.
         21   -1    0    0  501  503 -0.00000000000E+00 -0.00000000000E+00 -0.78026491835E+03  0.78026491835E+03  0.00000000000E+00 0. -1.
          6    2    1    2  501    0 -0.11266249280E+03  0.22683297274E+02 -0.48089157716E+03  0.52344761747E+03  0.17185264034E+03 0.  0.
         24    2    3    3    0    0  0.18902024233E+01 -0.12446768671E+02 -0.12637940561E+03  0.14920516759E+03  0.78306659726E+02 0.  0.
         -6    2    1    2    0  502  0.11266249280E+03 -0.22683297274E+02 -0.24011975264E+03  0.31607088943E+03  0.17039936113E+03 0.  0.
        -24    2    5    5    0    0  0.40155677790E+02 -0.50266466571E+02 -0.58912458648E+02  0.11890029616E+03  0.80792366737E+02 0.  0.
          5    1    3    3  501    0 -0.11455269523E+03  0.35130065945E+02 -0.35451217155E+03  0.37424244988E+03  0.47000000000E+01 0. -1.
        -13    1    4    4    0    0 -0.10142903558E+02 -0.43844476830E+02 -0.62492120995E+02  0.77009621656E+02  0.00000000000E+00 0.  1.
         14    1    4    4    0    0  0.12033105981E+02  0.31397708159E+02 -0.63887284618E+02  0.72195545936E+02  0.00000000000E+00 0. -1.
         -5    1    5    5    0  502  0.72506815013E+02  0.27583169297E+02 -0.18120729399E+03  0.19717059326E+03  0.47000000000E+01 0.  1.
         11    1    6    6    0    0  0.56702255455E+02 -0.60279124811E+02 -0.40257321355E+02  0.92029183329E+02  0.00000000000E+00 0. -1.
        -12    1    6    6    0    0 -0.16546577664E+02  0.10012658240E+02 -0.18655137292E+02  0.26871112832E+02  0.00000000000E+00 0.  1.
</event>
<event>
12    1  0.1597826E-001  0.3433997E+03  0.7818608E-02  0.1065420E+00
         21   -1    0    0  501  502  0.00000000000E+00  0.00000000000E+00  0.27676462792E+03  0.27676462792E+03  0.00000000000E+00 0. -1.
         21   -1    0    0  502  503 -0.00000000000E+00 -0.00000000000E+00 -0.44749770985E+03  0.44749770985E+03  0.00000000000E+00 0.  1.
         -6    2    1    2    0  503 -0.14597510465E+03  0.25814731780E+03 -0.47155093109E+01  0.34283708894E+03  0.17194843606E+03 0.  0.
        -24    2    3    3    0    0 -0.12139631608E+03  0.14567270981E+03  0.55618118853E+02  0.21277213987E+03  0.78873344156E+02 0.  0.
          6    2    1    2  501    0  0.14597510465E+03 -0.25814731780E+03 -0.16601757262E+03  0.38142524882E+03  0.17313179129E+03 0.  0.
         24    2    5    5    0    0  0.13544182517E+03 -0.27842128449E+03 -0.14878664151E+03  0.35242561626E+03  0.78761987308E+02 0.  0.
          5    1    5    5  501    0  0.10533279474E+02  0.20273966687E+02 -0.17230931103E+02  0.28999632556E+02  0.47000000000E+01 0. -1.
        -11    1    6    6    0    0  0.93483149393E+02 -0.10303189138E+03 -0.62905501391E+02  0.15268193071E+03  0.00000000000E+00 0.  1.
         12    1    6    6    0    0  0.41958675780E+02 -0.17538939311E+03 -0.85881140124E+02  0.19974368555E+03  0.00000000000E+00 0. -1.
         -5    1    3    3    0  503 -0.24578788563E+02  0.11247460799E+03 -0.60333628164E+02  0.13006494907E+03  0.47000000000E+01 0.  1.
         11    1    4    4    0    0 -0.90291959185E+02  0.13652135468E+03  0.20470342391E+02  0.16495379079E+03  0.00000000000E+00 0. -1.
        -12    1    4    4    0    0 -0.31104356899E+02  0.91513551277E+01  0.35147776462E+02  0.47818349083E+02  0.00000000000E+00 0.  1.
</event>
<event>
12    1  0.1597826E-001  0.1812484E+03  0.7818608E-02  0.1166928E+00
         21   -1    0    0  503  502  0.00000000000E+00  0.00000000000E+00  0.25250382258E+03  0.25250382258E+03  0.00000000000E+00 0.  1.
         21   -1    0    0  501  503 -0.00000000000E+00 -0.00000000000E+00 -0.18830906787E+03  0.18830906787E+03  0.00000000000E+00 0.  1.
          6    2    1    2  501    0 -0.11273584300E+02 -0.56047039283E+02 -0.91548519088E+02  0.20184231521E+03  0.17056032524E+03 0.  0.
         24    2    3    3    0    0 -0.18971886887E+01 -0.96621524240E+02 -0.98311127984E+02  0.15939200893E+03  0.80008851727E+02 0.  0.
         -6    2    1    2    0  502  0.11273584300E+02  0.56047039283E+02  0.15574327380E+03  0.23897057524E+03  0.17199594234E+03 0.  0.
        -24    2    5    5    0    0  0.65649222532E+02  0.69274003908E+02  0.11050675165E+03  0.16685888712E+03  0.80755420968E+02 0.  0.
          5    1    3    3  501    0 -0.93763956109E+01  0.40574484956E+02  0.67626088954E+01  0.42450306279E+02  0.47000000000E+01 0. -1.
        -13    1    4    4    0    0  0.33446419939E+02 -0.32125690408E+02 -0.16113639800E+02  0.49095543367E+02  0.00000000000E+00 0.  1.
         14    1    4    4    0    0 -0.35343608627E+02 -0.64495833831E+02 -0.82197488184E+02  0.11029646556E+03  0.00000000000E+00 0. -1.
         -5    1    5    5    0  502 -0.54375638233E+02 -0.13226964624E+02  0.45236522150E+02  0.72111688114E+02  0.47000000000E+01 0.  1.
         13    1    6    6    0    0 -0.69822126922E+01 -0.20456837155E+01  0.45502867175E+02  0.46080874961E+02  0.00000000000E+00 0. -1.
        -14    1    6    6    0    0  0.72631435225E+02  0.71319687623E+02  0.65003884473E+02  0.12077801216E+03  0.00000000000E+00 0.  1.
</event>
<event>
12    1  0.1597826E-001  0.2334039E+03  0.7818608E-02  0.1124289E+00
         21   -1    0    0  501  502  0.00000000000E+00  0.00000000000E+00  0.65434431522E+02  0.65434431522E+02  0.00000000000E+00 0.  1.
         21   -1    0    0  502  503 -0.00000000000E+00 -0.00000000000E+00 -0.85926069643E+03  0.85926069643E+03  0.00000000000E+00 0.  1.
         -6    2    1    2    0  503 -0.39059931498E+02  0.15255027297E+03 -0.47902729897E+03  0.53280770165E+03  0.17210354369E+03 0.  0.
        -24    2    3    3    0    0 -0.24086271172E+02  0.66308786785E+02 -0.10333135375E+03  0.14702105375E+03  0.77206333387E+02 0.  0.
          6    2    1    2  501    0  0.39059931498E+02 -0.15255027297E+03 -0.31479896594E+03  0.39188742630E+03  0.17227913949E+03 0.  0.
         24    2    5    5    0    0 -0.18673156118E+02 -0.15429288516E+03 -0.22586688143E+03  0.28574058575E+03  0.80478898159E+02 0.  0.
          5    1    5    5  501    0  0.57733087616E+02  0.17426121946E+01 -0.88932084511E+02  0.10614684055E+03  0.47000000000E+01 0. -1.
        -11    1    6    6    0    0 -0.27128145489E+01 -0.36777961593E+02 -0.12411615091E+03  0.12947894322E+03  0.00000000000E+00 0.  1.
         12    1    6    6    0    0 -0.15960341569E+02 -0.11751492357E+03 -0.10175073052E+03  0.15626164253E+03  0.00000000000E+00 0. -1.
         -5    1    3    3    0  503 -0.14973660326E+02  0.86241486183E+02 -0.37569594522E+03  0.38578664790E+03  0.47000000000E+01 0.  1.
         13    1    4    4    0    0 -0.31270294337E+02  0.68081245568E+01 -0.73307229564E+02  0.79988322737E+02  0.00000000000E+00 0. -1.
        -14    1    4    4    0    0  0.71840231645E+01  0.59500662228E+02 -0.30024124186E+02  0.67032731017E+02  0.00000000000E+00 0.  1.
</event>
<event>
12    1  0.1597826E-001  0.1822906E+03  0.7818608E-02  0.1165996E+00
         21   -1    0    0  501  502  0.00000000000E+00  0.00000000000E+00  0.20939315179E+03  0.20939315179E+03  0.00000000000E+00 0. -1.
         21   -1    0    0  502  503 -0.00000000000E+00 -0.00000000000E+00 -0.20200877955E+03  0.20200877955E+03  0.00000000000E+00 0. -1.
         -6    2    1    2    0  503 -0.37949239340E+02  0.44977931965E+02 -0.93094816121E+02  0.20468640122E+03  0.17253034204E+03 0.  0.
        -24    2    3    3    0    0 -0.91414326622E+02  0.19307979388E+02 -0.51177504275E+02  0.13190856767E+03  0.77790462790E+02 0.  0.
          6    2    1    2  501    0  0.37949239340E+02 -0.44977931965E+02  0.10047918836E+03  0.20671553013E+03  0.17079837228E+03 0.  0.
         24    2    5    5    0    0  0.32910759735E+02 -0.20450267761E+02 -0.11711482727E+02  0.91668455994E+02  0.82247282259E+02 0.  0.
          5    1    5    5  501    0  0.50384796057E+01 -0.24527664204E+02  0.11219067109E+03  0.11504707413E+03  0.47000000000E+01 0. -1.
        -11    1    6    6    0    0  0.10069552169E+02  0.22092413068E+02  0.22011510185E+02  0.32771591000E+02  0.00000000000E+00 0.  1.
         12    1    6    6    0    0  0.22841207566E+02 -0.42542680829E+02 -0.33722992912E+02  0.58896864994E+02  0.00000000000E+00 0. -1.
         -5    1    3    3    0  503  0.53465087281E+02  0.25669952577E+02 -0.41917311846E+02  0.72777833546E+02  0.47000000000E+01 0.  1.
         11    1    4    4    0    0  0.77015412783E+01  0.14159141771E+01 -0.27297554504E+02  0.28398504062E+02  0.00000000000E+00 0. -1.
        -12    1    4    4    0    0 -0.99115867900E+02  0.17892065211E+02 -0.23879949770E+02  0.10351006361E+03  0.00000000000E+00 0.  1.
</event>
<event>
12    1  0.1597826E-001  0.1784240E+03  0.7818608E-02  0.1169400E+00
         21   -1    0    0  503  502  0.00000000000E+00  0.00000000000E+00  0.41399862437E+02  0.41399862437E+02  0.00000000000E+00 0.  1.
         21   -1    0    0  501  503 -0.00000000000E+00 -0.00000000000E+00 -0.14116217431E+04  0.14116217431E+04  0.00000000000E+00 0.  1.
          6    2    1    2  501    0  0.27283329265E+02  0.40197156023E+02 -0.19475980285E+03  0.26413347089E+03  0.17168260899E+03 0.  0.
         24    2    3    3    0    0  0.48220719669E+02  0.71790075720E+02 -0.76940430771E+02  0.14027879262E+03  0.79241762950E+02 0.  0.
         -6    2    1    2    0  502 -0.27283329265E+02 -0.40197156023E+02 -0.11754620778E+04  0.11888881347E+04  0.17141676964E+03 0.  0.
        -24    2    5    5    0    0  0.31384834313E+02 -0.20335354073E+02 -0.35426500061E+03  0.36534507311E+03  0.81085124026E+02 0.  0.
          5    1    3    3  501    0 -0.20937390405E+02 -0.31592919696E+02 -0.11781937208E+03  0.12385467827E+03  0.47000000000E+01 0. -1.
        -13    1    4    4    0    0  0.13447809687E+02  0.74055421965E+01  0.15877224541E+02  0.22085558624E+02  0.00000000000E+00 0.  1.
         14    1    4    4    0    0  0.34772909982E+02  0.64384533523E+02 -0.92817655312E+02  0.11819323400E+03  0.00000000000E+00 0. -1.
         -5    1    5    5    0  502 -0.58668163577E+02 -0.19861801950E+02 -0.82119707724E+03  0.82354306157E+03  0.47000000000E+01 0.  1.
         11    1    6    6    0    0 -0.24512825740E+02  0.87620397918E+01 -0.91674723108E+02  0.95299038946E+02  0.00000000000E+00 0. -1.
        -12    1    6    6    0    0  0.55897660053E+02 -0.29097393865E+02 -0.26259027750E+03  0.27004603416E+03  0.00000000000E+00 0.  1.
</event>
<event>
12    1  0.1597826E-001  0.2187350E+03  0.7818608E-02  0.1136849E+00
         21   -1    0    0  501  502  0.00000000000E+00  0.00000000000E+00  0.43489515062E+03  0.43489515062E+03  0.00000000000E+00 0. -1.
         21   -1    0    0  502  503 -0.00000000000E+00 -0.00000000000E+00 -0.10833356147E+03  0.10833356147E+03  0.00000000000E+00 0.  1.
         -6    2    1    2    0  503  0.17954387070E+02  0.11529522166E+03  0.20838279865E+03  0.29461004609E+03  0.17250026182E+03 0.  0.
        -24    2    3    3    0    0 -0.36861716557E+02  0.11179853649E+03  0.18786209599E+03  0.23578640066E+03  0.80283003915E+02 0.  0.
          6    2    1    2  501    0 -0.17954387070E+02 -0.11529522166E+03  0.11817879050E+03  0.24861866600E+03  0.18501261148E+03 0.  0.
         24    2    5    5    0    0  0.47789045510E+02 -0.84646716972E+01  0.59311953502E+02  0.10997394078E+03  0.78872785448E+02 0.  0.
          5    1    5    5  501    0 -0.65743432580E+02 -0.10683054997E+03  0.58866836995E+02  0.13864472522E+03  0.47000000000E+01 0. -1.
        -11    1    6    6    0    0  0.14378808762E+02 -0.35156406880E+02  0.14319878511E+01  0.38010178575E+02  0.00000000000E+00 0.  1.
         12    1    6    6    0    0  0.33410236748E+02  0.26691735183E+02  0.57879965651E+02  0.71963762203E+02  0.00000000000E+00 0. -1.
         -5    1    3    3    0  503  0.54816103627E+02  0.34966851784E+01  0.20520702663E+02  0.58823645432E+02  0.47000000000E+01 0.  1.
         11    1    4    4    0    0  0.11718340005E+01  0.71922527632E+02  0.15684011002E+03  0.17254866933E+03  0.00000000000E+00 0. -1.
        -12    1    4    4    0    0 -0.38033550558E+02  0.39876008854E+02  0.31021985969E+02  0.63237731329E+02  0.00000000000E+00 0.  1.
</event>
<event>
12    1  0.1597826E-001  0.1803537E+03  0.7818608E-02  0.1167530E+00
         21   -1    0    0  503  502  0.00000000000E+00  0.00000000000E+00  0.14569625067E+02  0.14569625067E+02  0.00000000000E+00 0.  1.
         21   -1    0    0  501  503 -0.00000000000E+00 -0.00000000000E+00 -0.29610411214E+04  0.29610411214E+04  0.00000000000E+00 0.  1.
          6    2    1    2  501    0  0.50234549438E+02  0.19410948719E+02 -0.22121060296E+04  0.22194228839E+04  0.17182711198E+03 0.  0.
         24    2    3    3    0    0 -0.13238855057E+02 -0.10098454604E+02 -0.17663950590E+04  0.17682244384E+04  0.78669649434E+02 0.  0.
         -6    2    1    2    0  502 -0.50234549438E+02 -0.19410948719E+02 -0.73436546677E+03  0.75618786262E+03  0.17212539007E+03 0.  0.
        -24    2    5    5    0    0 -0.41014742752E+02 -0.65860335778E+02 -0.64778905614E+03  0.65739456694E+03  0.80728944266E+02 0.  0.
          5    1    3    3  501    0  0.63473404495E+02  0.29509403322E+02 -0.44571097053E+03  0.45119844549E+03  0.47000000000E+01 0. -1.
        -11    1    4    4    0    0  0.18668005049E+02 -0.18193775654E+02 -0.14267117707E+04  0.14269498886E+04  0.00000000000E+00 0.  1.
         12    1    4    4    0    0 -0.31906860107E+02  0.80953210503E+01 -0.33968328834E+03  0.34127454977E+03  0.00000000000E+00 0. -1.
         -5    1    5    5    0  502 -0.92198066858E+01  0.46449387059E+02 -0.86576410631E+02  0.98793295680E+02  0.47000000000E+01 0.  1.
         11    1    6    6    0    0 -0.43434092019E+02 -0.40374127743E+02 -0.60217105462E+03  0.60508393596E+03  0.00000000000E+00 0. -1.
        -12    1    6    6    0    0  0.24193492668E+01 -0.25486208035E+02 -0.45618001520E+02  0.52310630980E+02  0.00000000000E+00 0.  1.
</event>
<event>
12    1  0.1597826E-001  0.2004945E+03  0.7818608E-02  0.1149474E+00
         21   -1    0    0  503  502  0.00000000000E+00  0.00000000000E+00  0.32177828234E+02  0.32177828234E+02  0.00000000000E+00 0.  1.
         21   -1    0    0  501  503 -0.00000000000E+00 -0.00000000000E+00 -0.12944128027E+04  0.12944128027E+04  0.00000000000E+00 0.  1.
          6    2    1    2  501    0 -0.70477296522E+02 -0.73944442614E+02 -0.75993257979E+03  0.78575263427E+03  0.17168240014E+03 0.  0.
         24    2    3    3    0    0  0.20690562974E+02 -0.53496576467E+02 -0.48966767339E+03  0.49975455129E+03  0.81793631083E+02 0.  0.
         -6    2    1    2    0  502  0.70477296522E+02  0.73944442614E+02 -0.50230239468E+03  0.54083799666E+03  0.17252018148E+03 0.  0.
        -24    2    5    5    0    0  0.46741647018E+02  0.94104446960E+02 -0.21705873203E+03  0.25386091759E+03  0.79312318255E+02 0.  0.
          5    1    3    3  501    0 -0.91167859496E+02 -0.20447866148E+02 -0.27026490640E+03  0.28599808298E+03  0.47000000000E+01 0. -1.
        -13    1    4    4    0    0 -0.11586871623E+02  0.16368470840E+02 -0.60393427195E+02  0.63636062731E+02  0.00000000000E+00 0.  1.
         14    1    4    4    0    0  0.32277434597E+02 -0.69865047306E+02 -0.42927424620E+03  0.43611848856E+03  0.00000000000E+00 0. -1.
         -5    1    5    5    0  502  0.23735649503E+02 -0.20160004345E+02 -0.28524366264E+03  0.28697707907E+03  0.47000000000E+01 0.  1.
         13    1    6    6    0    0  0.10447232602E+01  0.10292792425E+02  0.54833226562E+01  0.11708964512E+02  0.00000000000E+00 0. -1.
        -14    1    6    6    0    0  0.45696923758E+02  0.83811654535E+02 -0.22254205469E+03  0.24215195308E+03  0.00000000000E+00 0.  1.
</event>
<event>
12    1  0.1597826E-001  0.1996781E+03  0.7818608E-02  0.1150214E+00
         21   -1    0    0  503  502  0.00000000000E+00  0.00000000000E+00  0.10476067826E+04  0.10476067826E+04  0.00000000000E+00 0.  1.
         21   -1    0    0  501  503 -0.00000000000E+00 -0.00000000000E+00 -0.81603467474E+02  0.81603467474E+02  0.00000000000E+00 0.  1.
          6    2    1    2  501    0  0.10282884017E+03 -0.41296667123E+01  0.69166036771E+02  0.21041297481E+03  0.16999663176E+03 0.  0.
         24    2    3    3    0    0  0.12096667332E+03 -0.37301257981E+02  0.80904165495E+02  0.17054808895E+03  0.80726988967E+02 0.  0.
         -6    2    1    2    0  502 -0.10282884017E+03  0.41296667123E+01  0.89683727837E+03  0.91879727528E+03  0.17111547172E+03 0.  0.
        -24    2    5    5    0    0  0.58249005047E+01 -0.18560639361E+02  0.48835830763E+03  0.49547984723E+03  0.81412625431E+02 0.  0.
          5    1    3    3  501    0 -0.18137833158E+02  0.33171591269E+02 -0.11738128724E+02  0.39864885864E+02  0.47000000000E+01 0. -1.
        -11    1    4    4    0    0  0.61060306360E+02 -0.60085399667E+02  0.40260530520E+02  0.94654775810E+02  0.00000000000E+00 0.  1.
         12    1    4    4    0    0  0.59906366965E+02  0.22784141686E+02  0.40643634976E+02  0.75893313140E+02  0.00000000000E+00 0. -1.
         -5    1    5    5    0  502 -0.10865374067E+03  0.22690306073E+02  0.40847897074E+03  0.42331742805E+03  0.47000000000E+01 0.  1.
         13    1    6    6    0    0  0.11170907334E+02 -0.27440731035E+01  0.62667629876E+01  0.13099291057E+02  0.00000000000E+00 0. -1.
        -14    1    6    6    0    0 -0.53460068288E+01 -0.15816566257E+02  0.48209154465E+03  0.48238055617E+03  0.00000000000E+00 0.  1.
</event>
<event>
12    1  0.1597826E-001  0.2154461E+03  0.7818608E-02  0.1137498E+00
         21   -1    0    0  503  502  0.00000000000E+00  0.00000000000E+00  0.21277302087E+03  0.21277302087E+03  0.00000000000E+00 0. -1.
         21   -1    0    0  501  503 -0.00000000000E+00 -0.00000000000E+00 -0.44481682073E+03  0.44481682073E+03  0.00000000000E+00 0.  1.
          6    2    1    2  501    0 -0.12919794198E+03  0.14085568376E+02 -0.35108285773E+03  0.41144490286E+03  0.17069629069E+03 0.  0.
         24    2    3    3    0    0 -0.15325038010E+03  0.17404079456E+01 -0.23450518282E+03  0.29168110595E+03  0.81218709509E+02 0.  0.
         -6    2    1    2    0  502  0.12919794198E+03 -0.14085568376E+02  0.11903905787E+03  0.24614493873E+03  0.17183283189E+03 0.  0.
        -24    2    5    5    0    0  0.15309873270E+03 -0.15877386917E+02  0.13212032895E+03  0.21843811532E+03  0.81043911144E+02 0.  0.
          5    1    3    3  501    0  0.24052438121E+02  0.12345160431E+02 -0.11657767491E+03  0.11976379692E+03  0.47000000000E+01 0. -1.
        -13    1    4    4    0    0 -0.63279649565E+02  0.40736523539E+02 -0.10754287269E+03  0.13126022956E+03  0.00000000000E+00 0.  1.
         14    1    4    4    0    0 -0.89970730539E+02 -0.38996115593E+02 -0.12696231013E+03  0.16042087638E+03  0.00000000000E+00 0. -1.
         -5    1    5    5    0  502 -0.23900790713E+02  0.17918185405E+01 -0.13081271085E+02  0.27706823412E+02  0.47000000000E+01 0.  1.
         11    1    6    6    0    0  0.57581384965E+02 -0.13194135935E+02  0.10266280666E+03  0.11844556973E+03  0.00000000000E+00 0. -1.
        -12    1    6    6    0    0  0.95517347730E+02 -0.26832509815E+01  0.29457522289E+02  0.99992545586E+02  0.00000000000E+00 0.  1.
</event>
<event>
12    1  0.1597826E-001  0.2733705E+03  0.7818608E-02  0.1099817E+00
         21   -1    0    0  503  502  0.00000000000E+00  0.00000000000E+00  0.10567226483E+03  0.10567226483E+03  0.00000000000E+00 0.  1.
         21   -1    0    0  501  503 -0.00000000000E+00 -0.00000000000E+00 -0.76621990812E+03  0.76621990812E+03  0.00000000000E+00 0. -1.
          6    2    1    2  501    0  0.20642683069E+03  0.43860404028E+02 -0.45763593893E+03  0.53144455612E+03  0.16872134468E+03 0.  0.
         24    2    3    3    0    0  0.53772365751E+02 -0.23338505303E+02 -0.82015161987E+02  0.12043100749E+03  0.65886171694E+02 0.  0.
         -6    2    1    2    0  502 -0.20642683069E+03 -0.43860404028E+02 -0.20291170436E+03  0.34044761683E+03  0.17376895169E+03 0.  0.
        -24    2    5    5    0    0 -0.22364572764E+02 -0.16443226467E+01 -0.77578388637E+02  0.11375036862E+03  0.80111560120E+02 0.  0.
          5    1    3    3  501    0  0.15265446494E+03  0.67198909331E+02 -0.37562077695E+03  0.41101354863E+03  0.47000000000E+01 0. -1.
        -13    1    4    4    0    0  0.67260606762E+02 -0.12442537331E+02 -0.52608175650E+02  0.86292676992E+02  0.00000000000E+00 0.  1.
         14    1    4    4    0    0 -0.13488241011E+02 -0.10895967972E+02 -0.29406986337E+02  0.34138330496E+02  0.00000000000E+00 0. -1.
         -5    1    5    5    0  502 -0.18406225793E+03 -0.42216081381E+02 -0.12533331572E+03  0.22669724822E+03  0.47000000000E+01 0.  1.
         13    1    6    6    0    0 -0.19333917666E+02 -0.38023981604E+02 -0.24082525073E+02  0.48985626088E+02  0.00000000000E+00 0. -1.
        -14    1    6    6    0    0 -0.30306550974E+01  0.36379658957E+02 -0.53495863565E+02  0.64764742528E+02  0.00000000000E+00 0.  1.
</event>
<event>
12    1  0.1597826E-001  0.1901805E+03  0.7818608E-02  0.1161389E+00
         21   -1    0    0  503  502  0.00000000000E+00  0.00000000000E+00  0.78071473846E+03  0.78071473846E+03  0.00000000000E+00 0. -1.
         21   -1    0    0  501  503 -0.00000000000E+00 -0.00000000000E+00 -0.92028132406E+02  0.92028132406E+02  0.00000000000E+00 0. -1.
          6    2    1    2  501    0 -0.17045726896E+02 -0.39954976076E+02  0.32284733901E+02  0.19290135596E+03  0.18515310467E+03 0.  0.
         24    2    3    3    0    0 -0.48896098223E+02  0.33822923893E+02 -0.15227043021E+02  0.99428987721E+02  0.78226863404E+02 0.  0.
         -6    2    1    2    0  502  0.17045726896E+02  0.39954976076E+02  0.65640187215E+03  0.67984151491E+03  0.17156372201E+03 0.  0.
        -24    2    5    5    0    0  0.94076458593E+01  0.76409317378E+02  0.36767131193E+03  0.38868058743E+03  0.99817422568E+02 0.  0.
          5    1    3    3  501    0  0.31850371327E+02 -0.73777899969E+02  0.47511776922E+02  0.93472368237E+02  0.47000000000E+01 0. -1.
        -11    1    4    4    0    0 -0.17637217913E+02  0.47446153765E+02  0.16107755369E+02  0.53119382017E+02  0.00000000000E+00 0.  1.
         12    1    4    4    0    0 -0.31258880310E+02 -0.13623229872E+02 -0.31334798390E+02  0.46309605705E+02  0.00000000000E+00 0. -1.
         -5    1    5    5    0  502  0.76380810368E+01 -0.36454341302E+02  0.28873056022E+03  0.29116092748E+03  0.47000000000E+01 0.  1.
         13    1    6    6    0    0  0.39562542765E+02  0.44737587331E+02  0.92826693384E+02  0.11037862798E+03  0.00000000000E+00 0. -1.
        -14    1    6    6    0    0 -0.30154896905E+02  0.31671730047E+02  0.27484461854E+03  0.27830195945E+03  0.00000000000E+00 0.  1.
</event>
<event>
12    1  0.1597826E-001  0.1762789E+03  0.7818608E-02  0.1171476E+00
         21   -1    0    0  501  502  0.00000000000E+00  0.00000000000E+00  0.31736086905E+03  0.31736086905E+03  0.00000000000E+00 0.  1.
         21   -1    0    0  502  503 -0.00000000000E+00 -0.00000000000E+00 -0.11411067301E+03  0.11411067301E+03  0.00000000000E+00 0.  1.
         -6    2    1    2    0  503  0.11482701604E+02 -0.34994343796E+02  0.20203095268E+02  0.17734461236E+03  0.17229767828E+03 0.  0.
        -24    2    3    3    0    0 -0.36118656413E+00 -0.67951558017E+02  0.63288694889E+02  0.12162285224E+03  0.78543711355E+02 0.  0.
          6    2    1    2  501    0 -0.11482701604E+02  0.34994343796E+02  0.18304710077E+03  0.25412692970E+03  0.17238851112E+03 0.  0.
         24    2    5    5    0    0  0.97393050665E+01  0.56851249471E+02  0.34015984009E+02  0.10194131390E+03  0.76863682467E+02 0.  0.
          5    1    5    5  501    0 -0.21222006671E+02 -0.21856905675E+02  0.14903111676E+03  0.15218561580E+03  0.47000000000E+01 0. -1.
        -13    1    6    6    0    0  0.16069552530E+02  0.40523060391E+02  0.57805921481E+02  0.72400783837E+02  0.00000000000E+00 0.  1.
         14    1    6    6    0    0 -0.63302474634E+01  0.16328189080E+02 -0.23789937472E+02  0.29540530065E+02  0.00000000000E+00 0. -1.
         -5    1    3    3    0  503  0.11843888168E+02  0.32957214221E+02 -0.43085599620E+02  0.55721760119E+02  0.47000000000E+01 0.  1.
         11    1    4    4    0    0  0.74448589178E+00 -0.14177989835E+01  0.54475252979E+02  0.54498785311E+02  0.00000000000E+00 0. -1.
        -12    1    4    4    0    0 -0.11056724559E+01 -0.66533759034E+02  0.88134419098E+01  0.67124066929E+02  0.00000000000E+00 0.  1.
</event>
<event>
12    1  0.1597826E-001  0.2479849E+03  0.7818608E-02  0.1114592E+00
         21   -1    0    0  503  502  0.00000000000E+00  0.00000000000E+00  0.86677868447E+03  0.86677868447E+03  0.00000000000E+00 0.  1.
         21   -1    0    0  501  503 -0.00000000000E+00 -0.00000000000E+00 -0.73614645715E+02  0.73614645715E+02  0.00000000000E+00 0.  1.
          6    2    1    2  501    0 -0.85770798907E+01  0.17790379339E+03  0.30683654023E+03  0.39448953647E+03  0.17248190038E+03 0.  0.
         24    2    3    3    0    0  0.35759403688E+02  0.17609027690E+03  0.20810980354E+03  0.28614715715E+03  0.79271587896E+02 0.  0.
         -6    2    1    2    0  502  0.85770798907E+01 -0.17790379339E+03  0.48632749853E+03  0.54590379372E+03  0.17254909496E+03 0.  0.
        -24    2    5    5    0    0 -0.31677920526E+02 -0.30990551554E+02  0.12178095966E+03  0.15078326187E+03  0.77078434022E+02 0.  0.
          5    1    3    3  501    0 -0.44336483579E+02  0.18135164993E+01  0.98726736688E+02  0.10834237931E+03  0.47000000000E+01 0. -1.
        -13    1    4    4    0    0  0.47291717626E+02  0.11249243162E+03  0.90423681338E+02  0.15187987317E+03  0.00000000000E+00 0.  1.
         14    1    4    4    0    0 -0.11532313938E+02  0.63597845274E+02  0.11768612220E+03  0.13426728398E+03  0.00000000000E+00 0. -1.
         -5    1    5    5    0  502  0.40255000416E+02 -0.14691324184E+03  0.36454653887E+03  0.39512053185E+03  0.47000000000E+01 0.  1.
         11    1    6    6    0    0 -0.44254154500E+02  0.84451107378E+01  0.80941744775E+02  0.92635393523E+02  0.00000000000E+00 0. -1.
        -12    1    6    6    0    0  0.12576233974E+02 -0.39435662291E+02  0.40839214883E+02  0.58147868349E+02  0.00000000000E+00 0.  1.
</event>
<event>
12    1  0.1597826E-001  0.1927858E+03  0.7818608E-02  0.1156144E+00
         21   -1    0    0  503  502  0.00000000000E+00  0.00000000000E+00  0.11609561239E+03  0.11609561239E+03  0.00000000000E+00 0.  1.
         21   -1    0    0  501  503 -0.00000000000E+00 -0.00000000000E+00 -0.14093228104E+04  0.14093228104E+04  0.00000000000E+00 0. -1.
          6    2    1    2  501    0  0.92742410002E+01 -0.86020033668E+02 -0.13178110525E+04  0.13318379537E+04  0.17228147648E+03 0.  0.
         24    2    3    3    0    0 -0.61215104471E+01 -0.39789845824E+02 -0.29561774742E+03  0.30847315933E+03  0.78390896923E+02 0.  0.
         -6    2    1    2    0  502 -0.92742410002E+01  0.86020033668E+02  0.24583854493E+02  0.19358046907E+03  0.17141637718E+03 0.  0.
        -24    2    5    5    0    0  0.31506668142E+02  0.30424009158E+02 -0.38714062245E+02  0.99864319158E+02  0.80967976106E+02 0.  0.
          5    1    3    3  501    0  0.15395751447E+02 -0.46230187844E+02 -0.10221933051E+04  0.10233647944E+04  0.47000000000E+01 0. -1.
        -11    1    4    4    0    0  0.85986778661E+01 -0.31812353704E+02 -0.37945696338E+02  0.50257725573E+02  0.00000000000E+00 0.  1.
         12    1    4    4    0    0 -0.14720188313E+02 -0.79774921196E+01 -0.25767205108E+03  0.25821543376E+03  0.00000000000E+00 0. -1.
         -5    1    5    5    0  502 -0.40780909142E+02  0.55596024510E+02  0.63297916738E+02  0.93716149917E+02  0.47000000000E+01 0.  1.
         13    1    6    6    0    0 -0.26766026827E+02  0.15232322256E+02 -0.61556747939E+01  0.31405989327E+02  0.00000000000E+00 0. -1.
        -14    1    6    6    0    0  0.58272694969E+02  0.15191686901E+02 -0.32558387451E+02  0.68458329831E+02  0.00000000000E+00 0.  1.
</event>
<event>
12    1  0.1597826E-001  0.1814482E+03  0.7818608E-02  0.1166640E+00
         21   -1    0    0  503  502  0.00000000000E+00  0.00000000000E+00  0.87554396288E+03  0.87554396288E+03  0.00000000000E+00 0.  1.
         21   -1    0    0  501  503 -0.00000000000E+00 -0.00000000000E+00 -0.37625705236E+02  0.37625705236E+02  0.00000000000E+00 0.  1.
          6    2    1    2  501    0 -0.31905114947E+02 -0.48041482472E+02  0.45507727614E+03  0.48991711770E+03  0.17203934014E+03 0.  0.
         24    2    3    3    0    0 -0.39737205841E+02 -0.74164309209E+02  0.44387800988E+03  0.46006318514E+03  0.86896814537E+02 0.  0.
         -6    2    1    2    0  502  0.31905114947E+02  0.48041482472E+02  0.38284098151E+03  0.42325255042E+03  0.17102509734E+03 0.  0.
        -24    2    5    5    0    0  0.37289736997E+02  0.20343006289E+02  0.80611766728E+02  0.11967259719E+03  0.77581642113E+02 0.  0.
          5    1    3    3  501    0  0.78320908940E+01  0.26122826737E+02  0.11199266262E+02  0.29853932560E+02  0.47000000000E+01 0. -1.
        -13    1    4    4    0    0 -0.17128801315E+02 -0.61616639237E+02  0.12759723878E+03  0.14272722729E+03  0.00000000000E+00 0.  1.
         14    1    4    4    0    0 -0.22608404526E+02 -0.12547669972E+02  0.31628077110E+03  0.31733595785E+03  0.00000000000E+00 0. -1.
         -5    1    5    5    0  502 -0.53846220502E+01  0.27698476183E+02  0.30222921478E+03  0.30357995323E+03  0.47000000000E+01 0.  1.
         11    1    6    6    0    0  0.27463032659E+01 -0.21677380336E+02 -0.67852013815E+00  0.21861184539E+02  0.00000000000E+00 0. -1.
        -12    1    6    6    0    0  0.34543433732E+02  0.42020386625E+02  0.81290286866E+02  0.97811412651E+02  0.00000000000E+00 0.  1.
</event>
<event>
12    1  0.1597826E-001  0.1833699E+03  0.7818608E-02  0.1165063E+00
         21   -1    0    0  501  502  0.00000000000E+00  0.00000000000E+00  0.23461016304E+04  0.23461016304E+04  0.00000000000E+00 0.  1.
         21   -1    0    0  502  503 -0.00000000000E+00 -0.00000000000E+00 -0.23878286330E+02  0.23878286330E+02  0.00000000000E+00 0.  1.
         -6    2    1    2    0  503  0.54406611107E+02 -0.22250036908E+02  0.40952138202E+03  0.44870064339E+03  0.17369329742E+03 0.  0.
        -24    2    3    3    0    0  0.19649135789E+01 -0.45000732295E+02  0.10709115951E+03  0.14087950170E+03  0.79684319420E+02 0.  0.
          6    2    1    2  501    0 -0.54406611107E+02  0.22250036908E+02  0.19127019621E+04  0.19212792734E+04  0.17155205356E+03 0.  0.
         24    2    5    5    0    0 -0.75635888010E+02 -0.28545503991E+02  0.91488441100E+03  0.92193307490E+03  0.80071691264E+02 0.  0.
          5    1    5    5  501    0  0.21229276903E+02  0.50795540899E+02  0.99781755107E+03  0.99934619847E+03  0.47000000000E+01 0. -1.
        -11    1    6    6    0    0 -0.67413863047E+02 -0.56351370400E+00  0.81750410124E+03  0.82027916103E+03  0.00000000000E+00 0.  1.
         12    1    6    6    0    0 -0.82220249633E+01 -0.27981990287E+02  0.97380309766E+02  0.10165391387E+03  0.00000000000E+00 0. -1.
         -5    1    3    3    0  503  0.52441697529E+02  0.22750695387E+02  0.30243022252E+03  0.30782114169E+03  0.47000000000E+01 0.  1.
         11    1    4    4    0    0 -0.29532268205E+02 -0.46053127981E+02  0.89198996902E+02  0.10463988967E+03  0.00000000000E+00 0. -1.
        -12    1    4    4    0    0  0.31497181784E+02  0.10523956852E+01  0.17892162603E+02  0.36239612024E+02  0.00000000000E+00 0.  1.
</event>
<event>
12    1  0.1597826E-001  0.1840730E+03  0.7818608E-02  0.1163954E+00
         21   -1    0    0  503  502  0.00000000000E+00  0.00000000000E+00  0.31399550401E+02  0.31399550401E+02  0.00000000000E+00 0. -1.
         21   -1    0    0  501  503 -0.00000000000E+00 -0.00000000000E+00 -0.13952901629E+04  0.13952901629E+04  0.00000000000E+00 0. -1.
          6    2    1    2  501    0 -0.64623402806E+02  0.12640603122E+02 -0.10222290783E+04  0.10386698981E+04  0.17189211666E+03 0.  0.
         24    2    3    3    0    0 -0.92856560883E+02  0.12828143511E+02 -0.97911206316E+03  0.98691747423E+03  0.80986212116E+02 0.  0.
         -6    2    1    2    0  502  0.64623402806E+02 -0.12640603122E+02 -0.34166153426E+03  0.38801981521E+03  0.17172886759E+03 0.  0.
        -24    2    5    5    0    0  0.86319743587E+02  0.41018432717E+02 -0.25383941312E+03  0.28273525655E+03  0.79819594634E+02 0.  0.
          5    1    3    3  501    0  0.28233158077E+02 -0.18754038950E+00 -0.43117015088E+02  0.51752423870E+02  0.47000000000E+01 0. -1.
        -11    1    4    4    0    0 -0.25602613766E+01  0.13273077152E+02 -0.23988325163E+02  0.27534873516E+02  0.00000000000E+00 0.  1.
         12    1    4    4    0    0 -0.90296299506E+02 -0.44493364088E+00 -0.95512373800E+03  0.95938260072E+03  0.00000000000E+00 0. -1.
         -5    1    5    5    0  502 -0.21696340781E+02 -0.53659035839E+02 -0.87822121141E+02  0.10528455866E+03  0.47000000000E+01 0.  1.
         11    1    6    6    0    0  0.76524109292E+02  0.49414024321E+02 -0.25399262502E+03  0.26983316821E+03  0.00000000000E+00 0. -1.
        -12    1    6    6    0    0  0.97956342952E+01 -0.83955916036E+01  0.15321189929E+00  0.12902088339E+02  0.00000000000E+00 0.  1.
</event>
<event>
12    1  0.1597826E-001  0.3581007E+03  0.7818608E-02  0.1059532E+00
         21   -1    0    0  503  502  0.00000000000E+00  0.00000000000E+00  0.11035934606E+03  0.11035934606E+03  0.00000000000E+00 0. -1.
         21   -1    0    0  501  503 -0.00000000000E+00 -0.00000000000E+00 -0.12310328232E+04  0.12310328232E+04  0.00000000000E+00 0. -1.
          6    2    1    2  501    0 -0.29434972263E+03  0.10872884340E+03 -0.72481454265E+03  0.80759408571E+03  0.16848847272E+03 0.  0.
         24    2    3    3    0    0 -0.18942119825E+03  0.28682685550E+02 -0.31726145749E+03  0.37917957868E+03  0.80120120313E+02 0.  0.
         -6    2    1    2    0  502  0.29434972263E+03 -0.10872884340E+03 -0.39585893449E+03  0.53379808355E+03  0.17254673972E+03 0.  0.
        -24    2    5    5    0    0  0.23239885734E+03 -0.66172165368E+02 -0.37910765226E+03  0.45665097724E+03  0.80121898680E+02 0.  0.
          5    1    3    3  501    0 -0.10492852438E+03  0.80046157854E+02 -0.40755308516E+03  0.42841450703E+03  0.47000000000E+01 0. -1.
        -13    1    4    4    0    0 -0.10753274597E+03  0.74522539719E+01 -0.10412918711E+03  0.14987232951E+03  0.00000000000E+00 0.  1.
         14    1    4    4    0    0 -0.81888452283E+02  0.21230431578E+02 -0.21313227038E+03  0.22930724917E+03  0.00000000000E+00 0. -1.
         -5    1    5    5    0  502  0.61950865291E+02 -0.42556678036E+02 -0.16751282225E+02  0.77147106310E+02  0.47000000000E+01 0. -1.
         13    1    6    6    0    0  0.75321202168E+02 -0.37014159332E+02 -0.72441097129E+02  0.11086498113E+03  0.00000000000E+00 0. -1.
        -14    1    6    6    0    0  0.15707765517E+03 -0.29158006037E+02 -0.30666655514E+03  0.34578599611E+03  0.00000000000E+00 0.  1.
</event>
<event>
12    1  0.1597826E-001  0.2323077E+03  0.7818608E-02  0.1125255E+00
         21   -1    0    0  501  502  0.00000000000E+00  0.00000000000E+00  0.14384556281E+03  0.14384556281E+03  0.00000000000E+00 0. -1.
         21   -1    0    0  502  503 -0.00000000000E+00 -0.00000000000E+00 -0.65349625376E+03  0.65349625376E+03  0.00000000000E+00 0. -1.
         -6    2    1    2    0  503 -0.14707458952E+03 -0.52929668489E+02 -0.51640196300E+03  0.56624893043E+03  0.17185569276E+03 0.  0.
        -24    2    3    3    0    0 -0.90339730139E+02 -0.87130508106E+02 -0.24325664706E+03  0.28514575485E+03  0.79883120165E+02 0.  0.
          6    2    1    2  501    0  0.14707458952E+03  0.52929668489E+02  0.67512720399E+01  0.23109288614E+03  0.17007603494E+03 0.  0.
         24    2    5    5    0    0  0.65067343506E+02  0.77496390095E+02 -0.35533094219E+02  0.13549597280E+03  0.82807657808E+02 0.  0.
          5    1    5    5  501    0  0.82007246019E+02 -0.24566721606E+02  0.42284366259E+02  0.95596913340E+02  0.47000000000E+01 0. -1.
        -13    1    6    6    0    0  0.15076088735E+02  0.51649100054E+02  0.19068340612E+02  0.57083444199E+02  0.00000000000E+00 0.  1.
         14    1    6    6    0    0  0.49991254771E+02  0.25847290041E+02 -0.54601434831E+02  0.78412528601E+02  0.00000000000E+00 0. -1.
         -5    1    3    3    0  503 -0.56734859386E+02  0.34200839617E+02 -0.27314531594E+03  0.28110317558E+03  0.47000000000E+01 0.  1.
         11    1    4    4    0    0 -0.79029553810E+02 -0.28962524402E+02 -0.10391023377E+03  0.13372297812E+03  0.00000000000E+00 0. -1.
        -12    1    4    4    0    0 -0.11310176328E+02 -0.58167983704E+02 -0.13934641328E+03  0.15142277673E+03  0.00000000000E+00 0.  1.
</event>
<event>
12    1  0.1597826E-001  0.2230076E+03  0.7818608E-02  0.1131745E+00
         21   -1    0    0  503  502  0.00000000000E+00  0.00000000000E+00  0.45006267202E+02  0.45006267202E+02  0.00000000000E+00 0.  1.
         21   -1    0    0  501  503 -0.00000000000E+00 -0.00000000000E+00 -0.11147213152E+04  0.11147213152E+04  0.00000000000E+00 0.  1.
          6    2    1    2  501    0  0.13018466140E+03  0.57955205133E+02 -0.47417296422E+03  0.52380087336E+03  0.17094005696E+03 0.  0.
         24    2    3    3    0    0  0.10182707264E+03  0.32909570047E+02 -0.46618459933E+03  0.48484781635E+03  0.79356989889E+02 0.  0.
         -6    2    1    2    0  502 -0.13018466140E+03 -0.57955205133E+02 -0.59554208381E+03  0.63592670907E+03  0.17153878237E+03 0.  0.
        -24    2    5    5    0    0 -0.54656876956E+02 -0.96787421186E+02 -0.39585292898E+03  0.41887778421E+03  0.80024231486E+02 0.  0.
          5    1    3    3  501    0  0.28357588755E+02  0.25045635086E+02 -0.79883648898E+01  0.38953057010E+02  0.47000000000E+01 0. -1.
        -13    1    4    4    0    0  0.33124367827E+02  0.23338521468E+02 -0.57648221257E+02  0.70464372149E+02  0.00000000000E+00 0.  1.
         14    1    4    4    0    0  0.68702704818E+02  0.95710485792E+01 -0.40853637807E+03  0.41438344420E+03  0.00000000000E+00 0. -1.
         -5    1    5    5    0  502 -0.75527784443E+02  0.38832216053E+02 -0.19968915483E+03  0.21704892486E+03  0.47000000000E+01 0.  1.
         11    1    6    6    0    0  0.18388015459E+02 -0.39453330677E+02 -0.14485334416E+03  0.15125202718E+03  0.00000000000E+00 0. -1.
        -12    1    6    6    0    0 -0.73044892415E+02 -0.57334090508E+02 -0.25099958482E+03  0.26762575702E+03  0.00000000000E+00 0.  1.
</event>
<event>
12    1  0.1597826E-001  0.2142758E+03  0.7818608E-02  0.1138579E+00
         21   -1    0    0  503  502  0.00000000000E+00  0.00000000000E+00  0.10063180958E+04  0.10063180958E+04  0.00000000000E+00 0. -1.
         21   -1    0    0  501  503 -0.00000000000E+00 -0.00000000000E+00 -0.47181277187E+02  0.47181277187E+02  0.00000000000E+00 0.  1.
          6    2    1    2  501    0 -0.90780241944E+02 -0.89856870504E+02  0.58849348050E+03  0.62628961438E+03  0.17204300332E+03 0.  0.
         24    2    3    3    0    0 -0.11467883767E+02 -0.26030032387E+00  0.35413035767E+03  0.36310496648E+03  0.79406085087E+02 0.  0.
         -6    2    1    2    0  502  0.90780241944E+02  0.89856870504E+02  0.37064333814E+03  0.42720975863E+03  0.16975389320E+03 0.  0.
        -24    2    5    5    0    0  0.78842237073E+02  0.18930189862E+01  0.27151114460E+03  0.29405782687E+03  0.80820925731E+02 0.  0.
          5    1    3    3  501    0 -0.79312358177E+02 -0.89596570180E+02  0.23436312283E+03  0.26318464790E+03  0.47000000000E+01 0. -1.
        -11    1    4    4    0    0 -0.36221795079E+02  0.22203349224E+02  0.25436165090E+03  0.25788535554E+03  0.00000000000E+00 0.  1.
         12    1    4    4    0    0  0.24753911312E+02 -0.22463649547E+02  0.99768706767E+02  0.10521961094E+03  0.00000000000E+00 0. -1.
         -5    1    5    5    0  502  0.11938004871E+02  0.87963851518E+02  0.99132193541E+02  0.13315193176E+03  0.47000000000E+01 0.  1.
         13    1    6    6    0    0 -0.18050872618E+01 -0.22515817855E+02  0.25748882795E+02  0.34252377420E+02  0.00000000000E+00 0. -1.
        -14    1    6    6    0    0  0.80647324335E+02  0.24408836842E+02  0.24576226180E+03  0.25980544945E+03  0.00000000000E+00 0.  1.
</event>
<event>
12    1  0.1597826E-001  0.1758584E+03  0.7818608E-02  0.1172174E+00
         21   -1    0    0  501  502  0.00000000000E+00  0.00000000000E+00  0.91299348669E+03  0.91299348669E+03  0.00000000000E+00 0.  1.
         21   -1    0    0  502  503 -0.00000000000E+00 -0.00000000000E+00 -0.42465821196E+02  0.42465821196E+02  0.00000000000E+00 0.  1.
         -6    2    1    2    0  503  0.20278994176E+02 -0.34434899632E+02  0.21868099094E+03  0.28061994653E+03  0.17125763831E+03 0.  0.
        -24    2    3    3    0    0 -0.95897351437E+01 -0.51644519222E+02  0.57492333755E+02  0.11571941530E+03  0.85594948747E+02 0.  0.
          6    2    1    2  501    0 -0.20278994176E+02  0.34434899632E+02  0.65184667456E+03  0.67483936136E+03  0.17002081220E+03 0.  0.
         24    2    5    5    0    0 -0.28215883673E+01  0.56397525678E+02  0.22326418918E+03  0.24531386184E+03  0.84518343429E+02 0.  0.
          5    1    5    5  501    0 -0.17457405808E+02 -0.21962626046E+02  0.42858248538E+03  0.42952549952E+03  0.47000000000E+01 0. -1.
        -13    1    6    6    0    0 -0.25723992506E+02  0.17204559145E+00  0.13955791064E+03  0.14190899835E+03  0.00000000000E+00 0.  1.
         14    1    6    6    0    0  0.22902404139E+02  0.56225480086E+02  0.83706278545E+02  0.10340486349E+03  0.00000000000E+00 0. -1.
         -5    1    3    3    0  503  0.29868729319E+02  0.17209619589E+02  0.16118865718E+03  0.16490053123E+03  0.47000000000E+01 0.  1.
         11    1    4    4    0    0 -0.16525643350E+02 -0.48992674508E+02  0.78184789547E+02  0.93734947379E+02  0.00000000000E+00 0. -1.
        -12    1    4    4    0    0  0.69359082067E+01 -0.26518447134E+01 -0.20692455793E+02  0.21984467921E+02  0.00000000000E+00 0.  1.
</event>
<event>
12    1  0.1597826E-001  0.2600865E+03  0.7818608E-02  0.1107136E+00
         21   -1    0    0  503  502  0.00000000000E+00  0.00000000000E+00  0.97215321801E+02  0.97215321801E+02  0.00000000000E+00 0. -1.
         21   -1    0    0  501  503 -0.00000000000E+00 -0.00000000000E+00 -0.70892572406E+03  0.70892572406E+03  0.00000000000E+00 0. -1.
          6    2    1    2  501    0  0.12962715138E+03  0.14609467365E+03 -0.36210049563E+03  0.44565511699E+03  0.17130342181E+03 0.  0.
         24    2    3    3    0    0  0.14545196640E+02  0.39938228446E+02 -0.71613363501E+02  0.11562798008E+03  0.80216775735E+02 0.  0.
         -6    2    1    2    0  502 -0.12962715138E+03 -0.14609467365E+03 -0.24960990663E+03  0.36048592887E+03  0.17175024710E+03 0.  0.
        -24    2    5    5    0    0 -0.69342092140E+02 -0.64293139547E+02 -0.22386648754E+03  0.25555455617E+03  0.79056899761E+02 0.  0.
          5    1    3    3  501    0  0.11508195474E+03  0.10615644521E+03 -0.29048713213E+03  0.33002713691E+03  0.47000000000E+01 0. -1.
        -13    1    4    4    0    0  0.34976602792E+02 -0.10288270068E+02 -0.26140853170E+02  0.44861514111E+02  0.00000000000E+00 0.  1.
         14    1    4    4    0    0 -0.20431406152E+02  0.50226498513E+02 -0.45472510331E+02  0.70766465972E+02  0.00000000000E+00 0. -1.
         -5    1    5    5    0  502 -0.60285059241E+02 -0.81801534108E+02 -0.25743419091E+02  0.10493137270E+03  0.47000000000E+01 0.  1.
         13    1    6    6    0    0 -0.36776311292E+01 -0.56903182957E+02 -0.11009992499E+03  0.12398988138E+03  0.00000000000E+00 0. -1.
        -14    1    6    6    0    0 -0.65664461011E+02 -0.73899565896E+01 -0.11376656255E+03  0.13156467479E+03  0.00000000000E+00 0.  1.
</event>
<event>
12    1  0.1597826E-001  0.1989536E+03  0.7818608E-02  0.1150723E+00
         21   -1    0    0  503  502  0.00000000000E+00  0.00000000000E+00  0.34277479772E+02  0.34277479772E+02  0.00000000000E+00 0.  1.
         21   -1    0    0  501  503 -0.00000000000E+00 -0.00000000000E+00 -0.12036293122E+04  0.12036293122E+04  0.00000000000E+00 0. -1.
          6    2    1    2  501    0  0.62544537894E+02  0.80248176441E+02 -0.71209565837E+03  0.73924283538E+03  0.17043518987E+03 0.  0.
         24    2    3    3    0    0  0.68308276544E+02 -0.92534287485E+01 -0.33494485077E+03  0.35154633077E+03  0.81517624051E+02 0.  0.
         -6    2    1    2    0  502 -0.62544537894E+02 -0.80248176441E+02 -0.45725617409E+03  0.49866395662E+03  0.17097059352E+03 0.  0.
        -24    2    5    5    0    0 -0.13013153270E+02 -0.11046412115E+03 -0.26774620117E+03  0.30041542267E+03  0.78674860793E+02 0.  0.
          5    1    3    3  501    0 -0.57637386496E+01  0.89501605190E+02 -0.37715080760E+03  0.38769650461E+03  0.47000000000E+01 0. -1.
        -13    1    4    4    0    0 -0.57600401635E+01  0.17876235688E+02 -0.22551557643E+02  0.29348093928E+02  0.00000000000E+00 0.  1.
         14    1    4    4    0    0  0.74068316708E+02 -0.27129664436E+02 -0.31239329313E+03  0.32219823684E+03  0.00000000000E+00 0. -1.
         -5    1    5    5    0  502 -0.49531384624E+02  0.30215944705E+02 -0.18950997292E+03  0.19824853395E+03  0.47000000000E+01 0.  1.
         13    1    6    6    0    0  0.32086975665E+02 -0.35495417255E+02 -0.11169343316E+03  0.12151099401E+03  0.00000000000E+00 0. -1.
        -14    1    6    6    0    0 -0.45100128936E+02 -0.74968703891E+02 -0.15605276801E+03  0.17890442867E+03  0.00000000000E+00 0.  1.
</event>
<event>
12    1  0.1597826E-001  0.1736602E+03  0.7818608E-02  0.1174104E+00
         21   -1    0    0  501  502  0.00000000000E+00  0.00000000000E+00  0.15376519898E+03  0.15376519898E+03  0.00000000000E+00 0.  1.
         21   -1    0    0  502  503 -0.00000000000E+00 -0.00000000000E+00 -0.25130246335E+03  0.25130246335E+03  0.00000000000E+00 0.  1.
         -6    2    1    2    0  503  0.10202153606E+02  0.16806414527E+02 -0.14375418484E+03  0.22543988900E+03  0.17254372890E+03 0.  0.
        -24    2    3    3    0    0  0.75470932291E+01 -0.48909629128E+02 -0.11282042999E+03  0.15260696424E+03  0.90062898434E+02 0.  0.
          6    2    1    2  501    0 -0.10202153606E+02 -0.16806414527E+02  0.46216920474E+02  0.17962777334E+03  0.17246331120E+03 0.  0.
         24    2    5    5    0    0 -0.33877694309E+02 -0.70699962143E+02  0.15605248665E+02  0.11311303698E+03  0.80030322569E+02 0.  0.
          5    1    5    5  501    0  0.23675540703E+02  0.53893547617E+02  0.30611671808E+02  0.66514736361E+02  0.47000000000E+01 0. -1.
        -11    1    6    6    0    0 -0.33427225497E+02 -0.24698048199E+02  0.42810569293E+02  0.59666722991E+02  0.00000000000E+00 0.  1.
         12    1    6    6    0    0 -0.45046881132E+00 -0.46001913944E+02 -0.27205320628E+02  0.53446313990E+02  0.00000000000E+00 0. -1.
         -5    1    3    3    0  503  0.26550603765E+01  0.65716043654E+02 -0.30933754855E+02  0.72832924757E+02  0.47000000000E+01 0.  1.
         11    1    4    4    0    0  0.46640823598E+02 -0.22011385818E+02 -0.38217387836E+02  0.64190624428E+02  0.00000000000E+00 0. -1.
        -12    1    4    4    0    0 -0.39093730369E+02 -0.26898243310E+02 -0.74603042151E+02  0.88416339811E+02  0.00000000000E+00 0.  1.
</event>
<event>
12    1  0.1597826E-001  0.1896571E+03  0.7818608E-02  0.1159688E+00
         21   -1    0    0  503  502  0.00000000000E+00  0.00000000000E+00  0.53380857497E+02  0.53380857497E+02  0.00000000000E+00 0.  1.
         21   -1    0    0  501  503 -0.00000000000E+00 -0.00000000000E+00 -0.90923693142E+03  0.90923693142E+03  0.00000000000E+00 0.  1.
          6    2    1    2  501    0 -0.64269086234E+02  0.42718791003E+02 -0.68339819014E+03  0.70922697994E+03  0.17324668027E+03 0.  0.
         24    2    3    3    0    0 -0.29201502179E+02 -0.33454160053E+02 -0.21955097833E+03  0.23783714144E+03  0.79949766797E+02 0.  0.
         -6    2    1    2    0  502  0.64269086234E+02 -0.42718791003E+02 -0.17245788378E+03  0.25339080899E+03  0.16884836348E+03 0.  0.
        -24    2    5    5    0    0 -0.21646046547E+00  0.20148362312E+02 -0.12713297783E+03  0.15245963542E+03  0.81701548453E+02 0.  0.
          5    1    3    3  501    0 -0.35067584055E+02  0.76172951055E+02 -0.46384721182E+03  0.47138983849E+03  0.47000000000E+01 0. -1.
        -13    1    4    4    0    0 -0.41105984097E+02 -0.14434848769E+02 -0.20816623444E+03  0.21267639255E+03  0.00000000000E+00 0.  1.
         14    1    4    4    0    0  0.11904481918E+02 -0.19019311283E+02 -0.11384743887E+02  0.25160748892E+02  0.00000000000E+00 0. -1.
         -5    1    5    5    0  502  0.64485546699E+02 -0.62867153314E+02 -0.45324905951E+02  0.10093117357E+03  0.47000000000E+01 0.  1.
         13    1    6    6    0    0 -0.30770813078E+02 -0.17235861069E+01 -0.10368392966E+03  0.10816732850E+03  0.00000000000E+00 0. -1.
        -14    1    6    6    0    0  0.30554352612E+02  0.21871948419E+02 -0.23449048174E+02  0.44292306910E+02  0.00000000000E+00 0.  1.
</event>
<event>
12    1  0.1597826E-001  0.1748361E+03  0.7818608E-02  0.1173055E+00
         21   -1    0    0  503  502  0.00000000000E+00  0.00000000000E+00  0.19819346364E+03  0.19819346364E+03  0.00000000000E+00 0.  1.
         21   -1    0    0  501  503 -0.00000000000E+00 -0.00000000000E+00 -0.15497107809E+03  0.15497107809E+03  0.00000000000E+00 0.  1.
          6    2    1    2  501    0 -0.31659613507E+00 -0.27226931274E+02  0.37716642164E+02  0.17824174828E+03  0.17206443477E+03 0.  0.
         24    2    3    3    0    0  0.20287793234E+02  0.39062386094E+02 -0.97522305437E+01  0.94014684135E+02  0.82499638004E+02 0.  0.
         -6    2    1    2    0  502  0.31659613507E+00  0.27226931274E+02  0.55057433901E+01  0.17492279345E+03  0.17270282117E+03 0.  0.
        -24    2    5    5    0    0  0.30243923451E+01  0.34215097107E+02 -0.62159416509E+02  0.10668181979E+03  0.79607774708E+02 0.  0.
          5    1    3    3  501    0 -0.20604389369E+02 -0.66289317368E+02  0.47468872708E+02  0.84227064146E+02  0.47000000000E+01 0. -1.
        -13    1    4    4    0    0 -0.15373457684E+02  0.29222178173E+02 -0.35851927731E+02  0.48740533649E+02  0.00000000000E+00 0.  1.
         14    1    4    4    0    0  0.35661250918E+02  0.98402079210E+01  0.26099697188E+02  0.45274150486E+02  0.00000000000E+00 0. -1.
         -5    1    5    5    0  502 -0.27077962100E+01 -0.69881658325E+01  0.67665159899E+02  0.68240973661E+02  0.47000000000E+01 0.  1.
         11    1    6    6    0    0 -0.16499925352E+02  0.42773901686E+02 -0.70244933752E+02  0.83882089387E+02  0.00000000000E+00 0. -1.
        -12    1    6    6    0    0  0.19524317698E+02 -0.85588045793E+01  0.80855172431E+01  0.22799730403E+02  0.00000000000E+00 0.  1.
</event>
<event>
12    1  0.1597826E-001  0.1741830E+03  0.7818608E-02  0.1173809E+00
         21   -1    0    0  501  502  0.00000000000E+00  0.00000000000E+00  0.20855322132E+03  0.20855322132E+03  0.00000000000E+00 0. -1.
         21   -1    0    0  502  503 -0.00000000000E+00 -0.00000000000E+00 -0.20529014635E+03  0.20529014635E+03  0.00000000000E+00 0. -1.
         -6    2    1    2    0  503  0.22762058226E+02  0.65061694316E+01  0.11409857514E+03  0.20738705163E+03  0.17155309032E+03 0.  0.
        -24    2    3    3    0    0 -0.46991760523E+02 -0.22781699878E+02  0.56048809944E+02  0.11191328687E+03  0.81583596849E+02 0.  0.
          6    2    1    2  501    0 -0.22762058226E+02 -0.65061694316E+01 -0.11083550016E+03  0.20645631604E+03  0.17256668509E+03 0.  0.
         24    2    5    5    0    0 -0.72712017085E+02  0.10075929313E+02 -0.43401032334E+02  0.12078565689E+03  0.85539251351E+02 0.  0.
          5    1    5    5  501    0  0.49949958860E+02 -0.16582098745E+02 -0.67434467829E+02  0.85670659156E+02  0.47000000000E+01 0. -1.
        -11    1    6    6    0    0  0.17976308075E+02  0.12347500886E+02 -0.11256871919E+02  0.24542322538E+02  0.00000000000E+00 0.  1.
         12    1    6    6    0    0 -0.90688325160E+02 -0.22715715731E+01 -0.32144160414E+02  0.96243334349E+02  0.00000000000E+00 0. -1.
         -5    1    3    3    0  503  0.69753818749E+02  0.29287869309E+02  0.58049765191E+02  0.95473764760E+02  0.47000000000E+01 0.  1.
         13    1    4    4    0    0  0.13200219186E+02 -0.33026320048E+02  0.16852117823E+02  0.39357051180E+02  0.00000000000E+00 0. -1.
        -14    1    4    4    0    0 -0.60191979709E+02  0.10244620170E+02  0.39196692121E+02  0.72556235687E+02  0.00000000000E+00 0.  1.
</event>
<event>
12    1  0.1597826E-001  0.1838158E+03  0.7818608E-02  0.1164822E+00
         21   -1    0    0  503  502  0.00000000000E+00  0.00000000000E+00  0.19061417489E+03  0.19061417489E+03  0.00000000000E+00 0. -1.
         21   -1    0    0  501  503 -0.00000000000E+00 -0.00000000000E+00 -0.79080924497E+03  0.79080924497E+03  0.00000000000E+00 0. -1.
          6    2    1    2  501    0  0.39422444834E+02  0.43483454198E+02 -0.73276124163E+03  0.75479148395E+03  0.17124896220E+03 0.  0.
         24    2    3    3    0    0  0.56495000266E+02  0.35001216225E+02 -0.72700159567E+03  0.73432971395E+03  0.79322370619E+02 0.  0.
         -6    2    1    2    0  502 -0.39422444834E+02 -0.43483454198E+02  0.13256617155E+03  0.22663193592E+03  0.17419329663E+03 0.  0.
        -24    2    5    5    0    0  0.98242958138E+01  0.34610244858E+02  0.47088220685E+02  0.10072547309E+03  0.81448969086E+02 0.  0.
          5    1    3    3  501    0 -0.17072555432E+02  0.84822379732E+01 -0.57596459607E+01  0.20461770002E+02  0.47000000000E+01 0. -1.
        -13    1    4    4    0    0 -0.57890573558E+01 -0.13911565984E+02 -0.39407715976E+02  0.42190199474E+02  0.00000000000E+00 0.  1.
         14    1    4    4    0    0  0.62284057622E+02  0.48912782209E+02 -0.68759387970E+03  0.69213951447E+03  0.00000000000E+00 0. -1.
         -5    1    5    5    0  502 -0.49246740648E+02 -0.78093699056E+02  0.85477950865E+02  0.12590646282E+03  0.47000000000E+01 0.  1.
         11    1    6    6    0    0 -0.25929167189E+02 -0.13274954048E+02  0.12706362984E+02  0.31780462180E+02  0.00000000000E+00 0. -1.
        -12    1    6    6    0    0  0.35753463002E+02  0.47885198905E+02  0.34381857701E+02  0.68945010913E+02  0.00000000000E+00 0.  1.
</event>
<event>
12    1  0.1597826E-001  0.1791891E+03  0.7818608E-02  0.1168725E+00
         21   -1    0    0  501  502  0.00000000000E+00  0.00000000000E+00  0.59374416565E+02  0.59374416565E+02  0.00000000000E+00 0.  1.
         21   -1    0    0  502  503 -0.00000000000E+00 -0.00000000000E+00 -0.56410011176E+03  0.56410011176E+03  0.00000000000E+00 0.  1.
         -6    2    1    2    0  503 -0.47560726105E+02 -0.67008924607E+01 -0.18638811410E+03  0.25816979876E+03  0.17205868559E+03 0.  0.
        -24    2    3    3    0    0  0.38244778693E+02  0.69892535973E+01 -0.11515884897E+03  0.14571668425E+03  0.80375859621E+02 0.  0.
          6    2    1    2  501    0  0.47560726105E+02  0.67008924607E+01 -0.31833758110E+03  0.36530472957E+03  0.17263199378E+03 0.  0.
         24    2    5    5    0    0  0.67253043679E+02  0.20748657175E+02 -0.97810741127E+02  0.14340541859E+03  0.77747632384E+02 0.  0.
          5    1    5    5  501    0 -0.19692317574E+02 -0.14047764714E+02 -0.22052683997E+03  0.22189931098E+03  0.47000000000E+01 0. -1.
        -13    1    6    6    0    0  0.58355778708E+02  0.30180321312E+02 -0.10833934642E+03  0.12670304924E+03  0.00000000000E+00 0.  1.
         14    1    6    6    0    0  0.88972649710E+01 -0.94316641368E+01  0.10528605295E+02  0.16702369347E+02  0.00000000000E+00 0. -1.
         -5    1    3    3    0  503 -0.85805504798E+02 -0.13690146058E+02 -0.71229265125E+02  0.11245311451E+03  0.47000000000E+01 0.  1.
         13    1    4    4    0    0  0.40736305861E+02  0.34974364467E+02 -0.10069933448E+03  0.11411839795E+03  0.00000000000E+00 0. -1.
        -14    1    4    4    0    0 -0.24915271683E+01 -0.27985110870E+02 -0.14459514489E+02  0.31598286303E+02  0.00000000000E+00 0.  1.
</event>
<event>
12    1  0.1597826E-001  0.2586524E+03  0.7818608E-02  0.1108145E+00
         21   -1    0    0  501  502  0.00000000000E+00  0.00000000000E+00  0.22404877621E+04  0.22404877621E+04  0.00000000000E+00 0. -1.
         21   -1    0    0  502  503 -0.00000000000E+00 -0.00000000000E+00 -0.84808135771E+02  0.84808135771E+02  0.00000000000E+00 0. -1.
         -6    2    1    2    0  503  0.25320227152E+02 -0.19038440241E+03  0.14167997818E+03  0.29491403890E+03  0.17324473885E+03 0.  0.
        -24    2    3    3    0    0  0.25310339148E+02 -0.55091136961E+02  0.61364833173E+02  0.13750730368E+03  0.10708393519E+03 0.  0.
          6    2    1    2  501    0 -0.25320227152E+02  0.19038440241E+03  0.20139996482E+04  0.20303818590E+04  0.17137262298E+03 0.  0.
         24    2    5    5    0    0 -0.25815296559E+02  0.86676868042E+02  0.56529104492E+03  0.57795829649E+03  0.79388399811E+02 0.  0.
          5    1    5    5  501    0  0.49506940736E+00  0.10370753437E+03  0.14487086033E+04  0.14524235625E+04  0.47000000000E+01 0. -1.
        -11    1    6    6    0    0 -0.18386083945E+02  0.94701438631E+02  0.55362915658E+03  0.56197122131E+03  0.00000000000E+00 0.  1.
         12    1    6    6    0    0 -0.74292126145E+01 -0.80245705881E+01  0.11661888333E+02  0.15987075176E+02  0.00000000000E+00 0. -1.
         -5    1    3    3    0  503  0.98880038498E-02 -0.13529326545E+03  0.80315145005E+02  0.15740673522E+03  0.47000000000E+01 0.  1.
         11    1    4    4    0    0  0.16364033681E+02 -0.77371929213E+02  0.86163011593E+01  0.79551478140E+02  0.00000000000E+00 0. -1.
        -12    1    4    4    0    0  0.89463054666E+01  0.22280792253E+02  0.52748532014E+02  0.57955825544E+02  0.00000000000E+00 0.  1.
</event>
<event>
12    1  0.1597826E-001  0.2592288E+03  0.7818608E-02  0.1108442E+00
         21   -1    0    0  503  502  0.00000000000E+00  0.00000000000E+00  0.94881287788E+03  0.94881287788E+03  0.00000000000E+00 0.  1.
         21   -1    0    0  501  503 -0.00000000000E+00 -0.00000000000E+00 -0.75384123362E+02  0.75384123362E+02  0.00000000000E+00 0.  1.
          6    2    1    2  501    0  0.53929760822E+02 -0.17868503890E+03  0.57744851923E+03  0.63074574180E+03  0.17192043568E+03 0.  0.
         24    2    3    3    0    0  0.94778681561E+02 -0.17027954384E+03  0.49785428470E+03  0.54076452796E+03  0.81174283976E+02 0.  0.
         -6    2    1    2    0  502 -0.53929760822E+02  0.17868503890E+03  0.29598023529E+03  0.39345125945E+03  0.17989672495E+03 0.  0.
        -24    2    5    5    0    0 -0.76012278511E+02  0.43000458423E+02  0.10842543698E+03  0.16086399553E+03  0.80586870920E+02 0.  0.
          5    1    3    3  501    0 -0.40848920739E+02 -0.84054950609E+01  0.79594234527E+02  0.89981213832E+02  0.47000000000E+01 0. -1.
        -11    1    4    4    0    0 -0.95667433689E+00 -0.49107144775E+02  0.67028860330E+02  0.83098104737E+02  0.00000000000E+00 0.  1.
         12    1    4    4    0    0  0.95735355897E+02 -0.12117239907E+03  0.43082542437E+03  0.45766642323E+03  0.00000000000E+00 0. -1.
         -5    1    5    5    0  502  0.22082517689E+02  0.13568458048E+03  0.18755479831E+03  0.23258726392E+03  0.47000000000E+01 0.  1.
         13    1    6    6    0    0 -0.52936316254E+02  0.50424957014E+02  0.11452180112E+03  0.13586821851E+03  0.00000000000E+00 0. -1.
        -14    1    6    6    0    0 -0.23075962257E+02 -0.74244985911E+01 -0.60963641372E+01  0.24995777026E+02  0.00000000000E+00 0.  1.
</event>
<event>
12    1  0.1597826E-001  0.1924120E+03  0.7818608E-02  0.1156729E+00
         21   -1    0    0  501  502  0.00000000000E+00  0.00000000000E+00  0.40216632535E+03  0.40216632535E+03  0.00000000000E+00 0. -1.
         21   -1    0    0  502  503 -0.00000000000E+00 -0.00000000000E+00 -0.10693398031E+03  0.10693398031E+03  0.00000000000E+00 0. -1.
         -6    2    1    2    0  503  0.59188680107E+02 -0.46254345824E+02  0.49185723369E+02  0.19675220719E+03  0.17506978977E+03 0.  0.
        -24    2    3    3    0    0  0.18106667789E+02 -0.30996820963E+02 -0.42047415220E+02  0.95430445565E+02  0.77783870345E+02 0.  0.
          6    2    1    2  501    0 -0.59188680107E+02  0.46254345824E+02  0.24604662168E+03  0.31234809847E+03  0.17714296548E+03 0.  0.
         24    2    5    5    0    0 -0.17795872670E+02 -0.42583029552E+02  0.13910289143E+03  0.16721197199E+03  0.80499824114E+02 0.  0.
          5    1    5    5  501    0 -0.41392807438E+02  0.88837375376E+02  0.10694373025E+03  0.14513612648E+03  0.47000000000E+01 0. -1.
        -11    1    6    6    0    0  0.67374979694E+01 -0.25803975810E+02  0.13452019177E+03  0.13713832812E+03  0.00000000000E+00 0.  1.
         12    1    6    6    0    0 -0.24533370639E+02 -0.16779053742E+02  0.45826996642E+01  0.30073643870E+02  0.00000000000E+00 0. -1.
         -5    1    3    3    0  503  0.41082012318E+02 -0.15257524861E+02  0.91233138589E+02  0.10132176162E+03  0.47000000000E+01 0.  1.
         11    1    4    4    0    0 -0.32537327487E+01 -0.45413953004E+02  0.67722970315E+00  0.45535398805E+02  0.00000000000E+00 0. -1.
        -12    1    4    4    0    0  0.21360400538E+02  0.14417132041E+02 -0.42724644923E+02  0.49895046760E+02  0.00000000000E+00 0.  1.
</event>
<event>
12    1  0.1597826E-001  0.2997846E+03  0.7818608E-02  0.1085429E+00
         21   -1    0    0  501  502  0.00000000000E+00  0.00000000000E+00  0.15324425983E+03  0.15324425983E+03  0.00000000000E+00 0. -1.
         21   -1    0    0  502  503 -0.00000000000E+00 -0.00000000000E+00 -0.16716070415E+04  0.16716070415E+04  0.00000000000E+00 0. -1.
         -6    2    1    2    0  503  0.17675919458E+03  0.16808606166E+03 -0.14944719059E+04  0.15241162415E+04  0.17316842434E+03 0.  0.
        -24    2    3    3    0    0  0.86325259157E+02  0.17037428393E+03 -0.10906257291E+04  0.11102353925E+04  0.81723306998E+02 0.  0.
          6    2    1    2  501    0 -0.17675919458E+03 -0.16808606166E+03 -0.23890875821E+02  0.30073505984E+03  0.17428156896E+03 0.  0.
         24    2    5    5    0    0 -0.86978436897E+02 -0.11359355347E+02 -0.15557199544E+00  0.11850087104E+03  0.79675270915E+02 0.  0.
          5    1    5    5  501    0 -0.89780757683E+02 -0.15672670631E+03 -0.23735303825E+02  0.18223418881E+03  0.47000000000E+01 0. -1.
        -13    1    6    6    0    0  0.14734926019E+02 -0.28213448981E+00  0.62004832029E+01  0.15988859765E+02  0.00000000000E+00 0.  1.
         14    1    6    6    0    0 -0.10171336292E+03 -0.11077220857E+02 -0.63560551984E+01  0.10251201127E+03  0.00000000000E+00 0. -1.
         -5    1    3    3    0  503  0.90433935423E+02 -0.22882222720E+01 -0.40384617683E+03  0.41388084901E+03  0.47000000000E+01 0.  1.
         11    1    4    4    0    0  0.19704881702E+02  0.99173506914E+02 -0.71704998907E+03  0.72414387636E+03  0.00000000000E+00 0. -1.
        -12    1    4    4    0    0  0.66620377455E+02  0.71200777018E+02 -0.37357573998E+03  0.38609151615E+03  0.00000000000E+00 0.  1.
</event>
<event>
12    1  0.1597826E-001  0.2134971E+03  0.7818608E-02  0.1140194E+00
         21   -1    0    0  501  502  0.00000000000E+00  0.00000000000E+00  0.22078282682E+03  0.22078282682E+03  0.00000000000E+00 0.  1.
         21   -1    0    0  502  503 -0.00000000000E+00 -0.00000000000E+00 -0.20328733740E+03  0.20328733740E+03  0.00000000000E+00 0.  1.
         -6    2    1    2    0  503  0.85865422530E+02 -0.75853102441E+02 -0.18878816086E+02  0.21433021144E+03  0.18015123064E+03 0.  0.
        -24    2    3    3    0    0  0.74701690839E+02 -0.12303286592E+03 -0.16445968667E+02  0.16555964927E+03  0.80137998923E+02 0.  0.
          6    2    1    2  501    0 -0.85865422530E+02  0.75853102441E+02  0.36374305514E+02  0.20973995278E+03  0.17187551820E+03 0.  0.
         24    2    5    5    0    0 -0.10953597467E+03  0.58118668908E+02 -0.16081175304E+02  0.14933736477E+03  0.81652525333E+02 0.  0.
          5    1    5    5  501    0  0.23670552141E+02  0.17734433533E+02  0.52455480818E+02  0.60402588018E+02  0.47000000000E+01 0. -1.
        -13    1    6    6    0    0 -0.11703660696E+02  0.47440704403E+02 -0.14282472248E+02  0.50907613591E+02  0.00000000000E+00 0.  1.
         14    1    6    6    0    0 -0.97832313975E+02  0.10677964505E+02 -0.17987030558E+01  0.98429751175E+02  0.00000000000E+00 0. -1.
         -5    1    3    3    0  503  0.11163731691E+02  0.47179763479E+02 -0.24328474187E+01  0.48770562164E+02  0.47000000000E+01 0.  1.
         13    1    4    4    0    0  0.10438351199E+01 -0.46461257025E+02  0.23467056658E+02  0.52061893399E+02  0.00000000000E+00 0. -1.
        -14    1    4    4    0    0  0.73657855719E+02 -0.76571608895E+02 -0.39913025325E+02  0.11349775587E+03  0.00000000000E+00 0.  1.
</event>
<event>
12    1  0.1597826E-001  0.2858830E+03  0.7818608E-02  0.1092531E+00
         21   -1    0    0  501  502  0.00000000000E+00  0.00000000000E+00  0.12987556354E+04  0.12987556354E+04  0.00000000000E+00 0. -1.
         21   -1    0    0  502  503 -0.00000000000E+00 -0.00000000000E+00 -0.28640133159E+03  0.28640133159E+03  0.00000000000E+00 0.  1.
         -6    2    1    2    0  503  0.22533981613E+03 -0.39609914037E+02 -0.19394805229E+03  0.34546339682E+03  0.17141217439E+03 0.  0.
        -24    2    3    3    0    0  0.78411468086E+02 -0.17375125506E+02 -0.15790524863E+03  0.19248137508E+03  0.75264592550E+02 0.  0.
          6    2    1    2  501    0 -0.22533981613E+03  0.39609914037E+02  0.12063023561E+04  0.12396935702E+04  0.17125360012E+03 0.  0.
         24    2    5    5    0    0 -0.11880647979E+03 -0.44210988928E+02  0.66492089257E+03  0.68157953650E+03  0.79757632931E+02 0.  0.
          5    1    5    5  501    0 -0.10653333635E+03  0.83820902964E+02  0.54138146354E+03  0.55811403368E+03  0.47000000000E+01 0. -1.
        -11    1    6    6    0    0  0.43855912041E+01  0.42421006865E+01  0.34847780565E+01  0.70265572329E+01  0.00000000000E+00 0.  1.
         12    1    6    6    0    0 -0.12319207099E+03 -0.48453089614E+02  0.66143611451E+03  0.67455297926E+03  0.00000000000E+00 0. -1.
         -5    1    3    3    0  503  0.14692834805E+03 -0.22234788531E+02 -0.36042803658E+02  0.15298202174E+03  0.47000000000E+01 0.  1.
         13    1    4    4    0    0 -0.11119393033E+02 -0.17251034024E+02 -0.30618868151E+02  0.36861282712E+02  0.00000000000E+00 0. -1.
        -14    1    4    4    0    0  0.89530861119E+02 -0.12409148201E+00 -0.12728638048E+03  0.15562009237E+03  0.00000000000E+00 0.  1.
</event>
<event>
12    1  0.1597826E-001  0.2219307E+03  0.7818608E-02  0.1132690E+00
         21   -1    0    0  503  502  0.00000000000E+00  0.00000000000E+00  0.18890268149E+03  0.18890268149E+03  0.00000000000E+00 0. -1.
         21   -1    0    0  501  503 -0.00000000000E+00 -0.00000000000E+00 -0.48894126427E+03  0.48894126427E+03  0.00000000000E+00 0.  1.
          6    2    1    2  501    0  0.83236327117E+02 -0.10993897912E+03 -0.38209866466E+03  0.44122804638E+03  0.17224382164E+03 0.  0.
         24    2    3    3    0    0  0.98483414851E+02 -0.11630423187E+03 -0.38480605819E+03  0.42383810369E+03  0.91309245812E+02 0.  0.
         -6    2    1    2    0  502 -0.83236327117E+02  0.10993897912E+03  0.82060081879E+02  0.23661589939E+03  0.17389180982E+03 0.  0.
        -24    2    5    5    0    0 -0.10344058172E+02 -0.20798129936E+01  0.26898952651E+01  0.81106384626E+02  0.80372165138E+02 0.  0.
          5    1    3    3  501    0 -0.15247087734E+02  0.63652527425E+01  0.27073935305E+01  0.17389942684E+02  0.47000000000E+01 0. -1.
        -11    1    4    4    0    0  0.63712202545E+02 -0.89016463812E+02 -0.15462680986E+03  0.18945349273E+03  0.00000000000E+00 0.  1.
         12    1    4    4    0    0  0.34771212306E+02 -0.27287768054E+02 -0.23017924833E+03  0.23438461096E+03  0.00000000000E+00 0. -1.
         -5    1    5    5    0  502 -0.72892268945E+02  0.11201879212E+03  0.79370186614E+02  0.15550951477E+03  0.47000000000E+01 0.  1.
         13    1    6    6    0    0 -0.16523482299E+02 -0.74890804045E+01  0.39459933150E+02  0.43430382416E+02  0.00000000000E+00 0. -1.
        -14    1    6    6    0    0  0.61794241270E+01  0.54092674110E+01 -0.36770037885E+02  0.37676002210E+02  0.00000000000E+00 0.  1.
</event>
<event>
12    1  0.1597826E-001  0.2440229E+03  0.7818608E-02  0.1118198E+00
         21   -1    0    0  501  502  0.00000000000E+00  0.00000000000E+00  0.65031263198E+03  0.65031263198E+03  0.00000000000E+00 0. -1.
         21   -1    0    0  502  503 -0.00000000000E+00 -0.00000000000E+00 -0.13842393737E+03  0.13842393737E+03  0.00000000000E+00 0.  1.
         -6    2    1    2    0  503 -0.16383420424E+03 -0.65677083103E+00  0.18565869223E+02  0.23835982439E+03  0.17212970853E+03 0.  0.
        -24    2    3    3    0    0 -0.14451381082E+03  0.29431827622E+02 -0.37046091946E+02  0.17207723555E+03  0.80546185948E+02 0.  0.
          6    2    1    2  501    0  0.16383420424E+03  0.65677083103E+00  0.49332282538E+03  0.55037674495E+03  0.18084544096E+03 0.  0.
         24    2    5    5    0    0  0.37985559910E+02 -0.16667572704E+02  0.72896908502E+02  0.11115236523E+03  0.72939552274E+02 0.  0.
          5    1    5    5  501    0  0.12584864433E+03  0.17324343535E+02  0.42042591688E+03  0.43922437972E+03  0.47000000000E+01 0. -1.
        -11    1    6    6    0    0 -0.12502071985E+02 -0.24362208951E+01 -0.77775045269E+01  0.14924026026E+02  0.00000000000E+00 0.  1.
         12    1    6    6    0    0  0.50487631895E+02 -0.14231351809E+02  0.80674413028E+02  0.96228339205E+02  0.00000000000E+00 0. -1.
         -5    1    3    3    0  503 -0.19320393423E+02 -0.30088598453E+02  0.55611961169E+02  0.66282588845E+02  0.47000000000E+01 0.  1.
         11    1    4    4    0    0 -0.37441598205E+02  0.30787821157E+02  0.17960141155E+02  0.51694582676E+02  0.00000000000E+00 0. -1.
        -12    1    4    4    0    0 -0.10707221262E+03 -0.13559935354E+01 -0.55006233101E+02  0.12038265287E+03  0.00000000000E+00 0.  1.
</event>
<event>
12    1  0.1597826E-001  0.1965079E+03  0.7818608E-02  0.1152836E+00
         21   -1    0    0  501  502  0.00000000000E+00  0.00000000000E+00  0.13977510910E+03  0.13977510910E+03  0.00000000000E+00 0.  1.
         21   -1    0    0  502  503 -0.00000000000E+00 -0.00000000000E+00 -0.27721736814E+03  0.27721736814E+03  0.00000000000E+00 0. -1.
         -6    2    1    2    0  503 -0.12614848470E+02 -0.93972146683E+02 -0.52450143088E+02  0.20338722436E+03  0.17212044262E+03 0.  0.
        -24    2    3    3    0    0 -0.19348791757E+01 -0.13212997459E+03 -0.53594945392E+02  0.16346878066E+03  0.79922150476E+02 0.  0.
          6    2    1    2  501    0  0.12614848470E+02  0.93972146683E+02 -0.84992115954E+02  0.21360525287E+03  0.17150406854E+03 0.  0.
         24    2    5    5    0    0  0.61407361043E+02  0.33036644516E+02 -0.12646709569E+02  0.10706984781E+03  0.80260383596E+02 0.  0.
          5    1    5    5  501    0 -0.48792512573E+02  0.60935502167E+02 -0.72345406385E+02  0.10653540507E+03  0.47000000000E+01 0. -1.
        -13    1    6    6    0    0  0.68820538986E+02  0.44299014720E+02 -0.28124530981E+02  0.86542813303E+02  0.00000000000E+00 0.  1.
         14    1    6    6    0    0 -0.74131779425E+01 -0.11262370204E+02  0.15477821412E+02  0.20527034503E+02  0.00000000000E+00 0. -1.
         -5    1    3    3    0  503 -0.10679969294E+02  0.38157827910E+02  0.11448023040E+01  0.39918443698E+02  0.47000000000E+01 0.  1.
         13    1    4    4    0    0  0.30188760010E+02 -0.77523797454E+02 -0.44955656240E+01  0.83315727884E+02  0.00000000000E+00 0. -1.
        -14    1    4    4    0    0 -0.32123639185E+02 -0.54606177140E+02 -0.49099379768E+02  0.80153052780E+02  0.00000000000E+00 0.  1.
</event>
<event>
12    1  0.1597826E-001  0.1923370E+03  0.7818608E-02  0.1156722E+00
         21   -1    0    0  501  502  0.00000000000E+00  0.00000000000E+00  0.97925410283E+02  0.97925410283E+02  0.00000000000E+00 0. -1.
         21   -1    0    0  502  503 -0.00000000000E+00 -0.00000000000E+00 -0.47859091833E+03  0.47859091833E+03  0.00000000000E+00 0. -1.
         -6    2    1    2    0  503 -0.85995033310E+02  0.13710252998E+02 -0.32526210042E+03  0.37787427173E+03  0.17149464855E+03 0.  0.
        -24    2    3    3    0    0 -0.54081713354E+02  0.38895138608E+02 -0.32009760066E+03  0.33662502312E+03  0.80101614929E+02 0.  0.
          6    2    1    2  501    0  0.85995033310E+02 -0.13710252998E+02 -0.55403407632E+02  0.19864205688E+03  0.16972334074E+03 0.  0.
         24    2    5    5    0    0  0.28457526387E+02 -0.20391265841E+02 -0.94496081666E+02  0.12860258373E+03  0.79896686802E+02 0.  0.
          5    1    5    5  501    0  0.57537506923E+02  0.66810128427E+01  0.39092674034E+02  0.70039473147E+02  0.47000000000E+01 0. -1.
        -13    1    6    6    0    0  0.12498449627E+02 -0.49476579190E+02 -0.73010949151E+02  0.89077167823E+02  0.00000000000E+00 0.  1.
         14    1    6    6    0    0  0.15959076760E+02  0.29085313349E+02 -0.21485132514E+02  0.39525415910E+02  0.00000000000E+00 0. -1.
         -5    1    3    3    0  503 -0.31913319956E+02 -0.25184885610E+02 -0.51644997584E+01  0.41249248618E+02  0.47000000000E+01 0.  1.
         13    1    4    4    0    0 -0.71091977552E+02  0.11772389403E+02 -0.22853117248E+03  0.23962294385E+03  0.00000000000E+00 0. -1.
        -14    1    4    4    0    0  0.17010264198E+02  0.27122749205E+02 -0.91566428179E+02  0.97002079266E+02  0.00000000000E+00 0.  1.
</event>
<event>
12    1  0.1597826E-001  0.1939442E+03  0.7818608E-02  0.1155147E+00
         21   -1    0    0  503  502  0.00000000000E+00  0.00000000000E+00  0.87648009546E+02  0.87648009546E+02  0.00000000000E+00 0.  1.
         21   -1    0    0  501  503 -0.00000000000E+00 -0.00000000000E+00 -0.48279156333E+03  0.48279156333E+03  0.00000000000E+00 0.  1.
          6    2    1    2  501    0  0.85399686219E+02  0.21866955051E+02 -0.29396835084E+03  0.35169139863E+03  0.17175033754E+03 0.  0.
         24    2    3    3    0    0 -0.39223716123E+01  0.78228149863E+01 -0.59792356198E+02  0.10062137981E+03  0.80454675322E+02 0.  0.
         -6    2    1    2    0  502 -0.85399686219E+02 -0.21866955051E+02 -0.10117520294E+03  0.21874817424E+03  0.17275147442E+03 0.  0.
        -24    2    5    5    0    0 -0.36677636335E+01 -0.55321613730E+02 -0.24664257430E+02  0.10180658139E+03  0.81745464604E+02 0.  0.
          5    1    3    3  501    0  0.89322057831E+02  0.14044140064E+02 -0.23417599464E+03  0.25107001882E+03  0.47000000000E+01 0. -1.
        -13    1    4    4    0    0  0.27015937759E+02  0.24291981229E+02 -0.66086559776E+01  0.36927436668E+02  0.00000000000E+00 0.  1.
         14    1    4    4    0    0 -0.30938309371E+02 -0.16469166243E+02 -0.53183700221E+02  0.63693943139E+02  0.00000000000E+00 0. -1.
         -5    1    5    5    0  502 -0.81731922585E+02  0.33454658679E+02 -0.76510945513E+02  0.11694159286E+03  0.47000000000E+01 0.  1.
         11    1    6    6    0    0 -0.21861041271E+02 -0.70030257482E+02 -0.96186694008E+01  0.73990951403E+02  0.00000000000E+00 0. -1.
        -12    1    6    6    0    0  0.18193277637E+02  0.14708643753E+02 -0.15045588029E+02  0.27815629984E+02  0.00000000000E+00 0.  1.
</event>
<event>
12    1  0.1597826E-001  0.1850034E+03  0.7818608E-02  0.1163780E+00
         21   -1    0    0  503  502  0.00000000000E+00  0.00000000000E+00  0.92384362801E+02  0.92384362801E+02  0.00000000000E+00 0.  1.
         21   -1    0    0  501  503 -0.00000000000E+00 -0.00000000000E+00 -0.38650166439E+03  0.38650166439E+03  0.00000000000E+00 0.  1.
          6    2    1    2  501    0  0.61779132388E+02 -0.32335657011E+02 -0.20330350365E+03  0.27279530545E+03  0.16799615522E+03 0.  0.
         24    2    3    3    0    0  0.88200641803E+01 -0.27584532764E+00 -0.19650105817E+03  0.21033845879E+03  0.74509944033E+02 0.  0.
         -6    2    1    2    0  502 -0.61779132388E+02  0.32335657011E+02 -0.90813797938E+02  0.20609072174E+03  0.17135922437E+03 0.  0.
        -24    2    5    5    0    0 -0.11020220170E+02 -0.32906300867E+02 -0.86402407733E+02  0.12317793261E+03  0.80642154797E+02 0.  0.
          5    1    3    3  501    0  0.52959068207E+02 -0.32059811683E+02 -0.68024454732E+01  0.62456846662E+02  0.47000000000E+01 0. -1.
        -13    1    4    4    0    0  0.41053703509E+02 -0.27584962391E+01 -0.88402274199E+02  0.97508860914E+02  0.00000000000E+00 0.  1.
         14    1    4    4    0    0 -0.32233639328E+02  0.24826509114E+01 -0.10809878398E+03  0.11282959788E+03  0.00000000000E+00 0. -1.
         -5    1    5    5    0  502 -0.50758912218E+02  0.65241957878E+02 -0.44113902051E+01  0.82912789127E+02  0.47000000000E+01 0.  1.
         13    1    6    6    0    0 -0.21017375364E+02 -0.30945073558E+01 -0.89120284768E+02  0.91617308409E+02  0.00000000000E+00 0. -1.
        -14    1    6    6    0    0  0.99971551941E+01 -0.29811793511E+02  0.27178770348E+01  0.31560624200E+02  0.00000000000E+00 0.  1.
</event>
<event>
12    1  0.1597826E-001  0.1975179E+03  0.7818608E-02  0.1151898E+00
         21   -1    0    0  503  502  0.00000000000E+00  0.00000000000E+00  0.21714155848E+03  0.21714155848E+03  0.00000000000E+00 0.  1.
         21   -1    0    0  501  503 -0.00000000000E+00 -0.00000000000E+00 -0.18384425676E+03  0.18384425676E+03  0.00000000000E+00 0.  1.
          6    2    1    2  501    0 -0.45615259659E+02 -0.93937163528E+02 -0.14285900608E+02  0.19803388111E+03  0.16765556509E+03 0.  0.
         24    2    3    3    0    0 -0.17940387548E+02  0.15977989752E+02 -0.10680758738E+02  0.84533544044E+02  0.80341071685E+02 0.  0.
         -6    2    1    2    0  502  0.45615259659E+02  0.93937163528E+02  0.47583202320E+02  0.20295193413E+03  0.16739290253E+03 0.  0.
        -24    2    5    5    0    0  0.66133512617E+02  0.93879585169E+02  0.82425313531E+02  0.16224487413E+03  0.79639493150E+02 0.  0.
          5    1    3    3  501    0 -0.27674872111E+02 -0.10991515328E+03 -0.36051418704E+01  0.11350033707E+03  0.47000000000E+01 0. -1.
        -11    1    4    4    0    0 -0.46534260975E+02  0.24332156084E+02  0.10381190335E+01  0.52522080646E+02  0.00000000000E+00 0.  1.
         12    1    4    4    0    0  0.28593873427E+02 -0.83541663320E+01 -0.11718877771E+02  0.32011463398E+02  0.00000000000E+00 0. -1.
         -5    1    5    5    0  502 -0.20518252959E+02  0.57578359238E-01 -0.34842111211E+02  0.40707059994E+02  0.47000000000E+01 0.  1.
         11    1    6    6    0    0 -0.87463426539E+01 -0.57700957792E+01 -0.32751873166E+01  0.10978131311E+02  0.00000000000E+00 0. -1.
        -12    1    6    6    0    0  0.74879855271E+02  0.99649680948E+02  0.85700500847E+02  0.15126674282E+03  0.00000000000E+00 0.  1.
</event>
<event>
12    1  0.1597826E-001  0.2404467E+03  0.7818608E-02  0.1119837E+00
         21   -1    0    0  501  502  0.00000000000E+00  0.00000000000E+00  0.21131244005E+03  0.21131244005E+03  0.00000000000E+00 0.  1.
         21   -1    0    0  502  503 -0.00000000000E+00 -0.00000000000E+00 -0.27609079027E+03  0.27609079027E+03  0.00000000000E+00 0.  1.
         -6    2    1    2    0  503  0.12813797315E+03  0.10485137997E+03 -0.64440752303E+02  0.24695629575E+03  0.17152740133E+03 0.  0.
        -24    2    3    3    0    0 -0.26340361640E+01  0.29221989662E+02 -0.28361172830E+02  0.91569844754E+02  0.81974493092E+02 0.  0.
          6    2    1    2  501    0 -0.12813797315E+03 -0.10485137997E+03 -0.33759792356E+00  0.24044693457E+03  0.17436015121E+03 0.  0.
         24    2    5    5    0    0 -0.15140708496E+01 -0.15808192404E+02  0.15464181337E+02  0.84773917923E+02  0.81824720580E+02 0.  0.
          5    1    5    5  501    0 -0.12662390230E+03 -0.89043187566E+02 -0.15801779260E+02  0.15567301665E+03  0.47000000000E+01 0. -1.
        -13    1    6    6    0    0 -0.30692888919E+02 -0.33658632432E+02  0.20937043113E+02  0.50132990552E+02  0.00000000000E+00 0.  1.
         14    1    6    6    0    0  0.29178818070E+02  0.17850440028E+02 -0.54728617758E+01  0.34640927371E+02  0.00000000000E+00 0. -1.
         -5    1    3    3    0  503  0.13077200931E+03  0.75629390308E+02 -0.36079579473E+02  0.15538645099E+03  0.47000000000E+01 0.  1.
         13    1    4    4    0    0 -0.32163566931E+02  0.19664356099E+02  0.12983273807E+02  0.39871635749E+02  0.00000000000E+00 0. -1.
        -14    1    4    4    0    0  0.29529530767E+02  0.95576335632E+01 -0.41344446637E+02  0.51698209006E+02  0.00000000000E+00 0.  1.
</event>
<event>
12    1  0.1597826E-001  0.2148789E+03  0.7818608E-02  0.1137907E+00
         21   -1    0    0  501  502  0.00000000000E+00  0.00000000000E+00  0.10517938963E+04  0.10517938963E+04  0.00000000000E+00 0.  1.
         21   -1    0    0  502  503 -0.00000000000E+00 -0.00000000000E+00 -0.45532419126E+02  0.45532419126E+02  0.00000000000E+00 0. -1.
         -6    2    1    2    0  503 -0.10634664265E+03 -0.74148776077E+02  0.61103609408E+03  0.64746406162E+03  0.17040232811E+03 0.  0.
        -24    2    3    3    0    0 -0.13928466078E+03 -0.68477118408E+02  0.55428263113E+03  0.58143280921E+03  0.82131260643E+02 0.  0.
          6    2    1    2  501    0  0.10634664265E+03  0.74148776077E+02  0.39522538309E+03  0.44986225380E+03  0.17136304899E+03 0.  0.
         24    2    5    5    0    0  0.92298217767E+02  0.81224678354E+02  0.17322318694E+03  0.22725387182E+03  0.80756673934E+02 0.  0.
          5    1    5    5  501    0  0.14048424884E+02 -0.70759022775E+01  0.22200219615E+03  0.22260838198E+03  0.47000000000E+01 0. -1.
        -13    1    6    6    0    0  0.25292617329E+02  0.69686394750E+02  0.11937472757E+03  0.14052129976E+03  0.00000000000E+00 0.  1.
         14    1    6    6    0    0  0.67005600439E+02  0.11538283605E+02  0.53848459376E+02  0.86732572059E+02  0.00000000000E+00 0. -1.
         -5    1    3    3    0  503  0.32938018127E+02 -0.56716576685E+01  0.56753462946E+02  0.66031252413E+02  0.47000000000E+01 0.  1.
         11    1    4    4    0    0 -0.11898838526E+03 -0.48071348844E+02  0.52467585988E+03  0.54014243338E+03  0.00000000000E+00 0. -1.
        -12    1    4    4    0    0 -0.20296275516E+02 -0.20405769564E+02  0.29606771255E+02  0.41290375821E+02  0.00000000000E+00 0.  1.
</event>
<event>
12    1  0.1597826E-001  0.1817588E+03  0.7818608E-02  0.1166493E+00
         21   -1    0    0  503  502  0.00000000000E+00  0.00000000000E+00  0.72382419810E+02  0.72382419810E+02  0.00000000000E+00 0. -1.
         21   -1    0    0  501  503 -0.00000000000E+00 -0.00000000000E+00 -0.49696534447E+03  0.49696534447E+03  0.00000000000E+00 0. -1.
          6    2    1    2  501    0  0.59178919124E+02  0.91965780466E+00 -0.29836112263E+03  0.34936461309E+03  0.17185250403E+03 0.  0.
         24    2    3    3    0    0 -0.78821733415E+01 -0.24453017339E+02 -0.73995026588E+02  0.11377344640E+03  0.82516994815E+02 0.  0.
         -6    2    1    2    0  502 -0.59178919124E+02 -0.91965780466E+00 -0.12622180203E+03  0.21998315120E+03  0.17016948393E+03 0.  0.
        -24    2    5    5    0    0 -0.81833831489E+02  0.17028366491E+02 -0.44820951203E+02  0.13347554953E+03  0.93915192666E+02 0.  0.
          5    1    3    3  501    0  0.67061092466E+02  0.25372675143E+02 -0.22436609604E+03  0.23559116668E+03  0.47000000000E+01 0. -1.
        -13    1    4    4    0    0  0.11729280054E+01 -0.48207197264E+02 -0.74032024898E+02  0.88351855321E+02  0.00000000000E+00 0.  1.
         14    1    4    4    0    0 -0.90551013469E+01  0.23754179926E+02  0.36998309202E-01  0.25421591083E+02  0.00000000000E+00 0. -1.
         -5    1    5    5    0  502  0.22654912364E+02 -0.17948024295E+02 -0.81400850831E+02  0.86507601668E+02  0.47000000000E+01 0.  1.
         13    1    6    6    0    0 -0.32459024848E+02 -0.36780172174E+02 -0.33913882653E+02  0.59636572636E+02  0.00000000000E+00 0. -1.
        -14    1    6    6    0    0 -0.49374806640E+02  0.53808538664E+02 -0.10907068551E+02  0.73838976891E+02  0.00000000000E+00 0.  1.
</event>
<event>
12    1  0.1597826E-001  0.2215687E+03  0.7818608E-02  0.1134545E+00
         21   -1    0    0  503  502  0.00000000000E+00  0.00000000000E+00  0.17804038524E+03  0.17804038524E+03  0.00000000000E+00 0. -1.
         21   -1    0    0  501  503 -0.00000000000E+00 -0.00000000000E+00 -0.27886566328E+03  0.27886566328E+03  0.00000000000E+00 0. -1.
          6    2    1    2  501    0 -0.87298324212E+02  0.87357968944E+02 -0.10446459035E+03  0.24496029517E+03  0.18395728696E+03 0.  0.
         24    2    3    3    0    0  0.79950729603E+01  0.20526936517E+02 -0.98384173699E+02  0.12831433551E+03  0.79371573927E+02 0.  0.
         -6    2    1    2    0  502  0.87298324212E+02 -0.87357968944E+02  0.36393123143E+01  0.21194575335E+03  0.17220727517E+03 0.  0.
        -24    2    5    5    0    0 -0.26307544791E+02 -0.21868186095E+02  0.28967158762E+00  0.80688314622E+02  0.73076779697E+02 0.  0.
          5    1    3    3  501    0 -0.95293397172E+02  0.66831032427E+02 -0.60804166542E+01  0.11664595967E+03  0.47000000000E+01 0. -1.
        -13    1    4    4    0    0  0.22178163154E+02  0.69531180960E+01  0.44143227972E+01  0.23658043408E+02  0.00000000000E+00 0.  1.
         14    1    4    4    0    0 -0.14183090194E+02  0.13573818421E+02 -0.10279849650E+03  0.10465629210E+03  0.00000000000E+00 0. -1.
         -5    1    5    5    0  502  0.11360586900E+03 -0.65489782849E+02  0.33496407266E+01  0.13125743873E+03  0.47000000000E+01 0.  1.
         11    1    6    6    0    0  0.10835707505E+02  0.21129658194E+02 -0.19407466726E+01  0.23825228439E+02  0.00000000000E+00 0. -1.
        -12    1    6    6    0    0 -0.37143252296E+02 -0.42997844289E+02  0.22304182603E+01  0.56863086183E+02  0.00000000000E+00 0.  1.
</event>
<event>
12    1  0.1597826E-001  0.2257482E+03  0.7818608E-02  0.1130051E+00
         21   -1    0    0  501  502  0.00000000000E+00  0.00000000000E+00  0.14660506139E+03  0.14660506139E+03  0.00000000000E+00 0.  1.
         21   -1    0    0  502  503 -0.00000000000E+00 -0.00000000000E+00 -0.63537794348E+03  0.63537794348E+03  0.00000000000E+00 0. -1.
         -6    2    1    2    0  503 -0.14118010520E+03 -0.40950654112E+02 -0.50961227669E+03  0.55737501464E+03  0.17132850381E+03 0.  0.
        -24    2    3    3    0    0  0.24728090522E+01 -0.11233703235E+02 -0.17927192781E+03  0.19589736244E+03  0.78134765867E+02 0.  0.
          6    2    1    2  501    0  0.14118010520E+03  0.40950654112E+02  0.20839394599E+02  0.22460799023E+03  0.16853987875E+03 0.  0.
         24    2    5    5    0    0  0.12043308903E+03  0.22240183544E+02  0.74209509896E+02  0.16418465371E+03  0.80316837951E+02 0.  0.
          5    1    5    5  501    0  0.20747016171E+02  0.18710470568E+02 -0.53370115297E+02  0.60423336515E+02  0.47000000000E+01 0. -1.
        -13    1    6    6    0    0  0.25902374908E+02  0.14605509668E+02  0.61742508980E+02  0.68530222192E+02  0.00000000000E+00 0.  1.
         14    1    6    6    0    0  0.94530714124E+02  0.76346738763E+01  0.12467000915E+02  0.95654431522E+02  0.00000000000E+00 0. -1.
         -5    1    3    3    0  503 -0.14365291425E+03 -0.29716950876E+02 -0.33034034888E+03  0.36147765220E+03  0.47000000000E+01 0.  1.
         11    1    4    4    0    0 -0.20712435294E+02 -0.15486601339E+02 -0.16761873562E+03  0.16960212359E+03  0.00000000000E+00 0. -1.
        -12    1    4    4    0    0  0.23185244346E+02  0.42528981032E+01 -0.11653192187E+02  0.26295238843E+02  0.00000000000E+00 0.  1.
</event>
<event>
12    1  0.1597826E-001  0.2422268E+03  0.7818608E-02  0.1118936E+00
         21   -1    0    0  503  502  0.00000000000E+00  0.00000000000E+00  0.84849290400E+02  0.84849290400E+02  0.00000000000E+00 0.  1.
         21   -1    0    0  501  503 -0.00000000000E+00 -0.00000000000E+00 -0.14071912634E+04  0.14071912634E+04  0.00000000000E+00 0. -1.
          6    2    1    2  501    0 -0.16223834935E+03  0.50619593097E+02 -0.11995924463E+04  0.12238038416E+04  0.17259832028E+03 0.  0.
         24    2    3    3    0    0 -0.13244103656E+03 -0.34374582178E+01 -0.10573930339E+04  0.10687141658E+04  0.80731008251E+02 0.  0.
         -6    2    1    2    0  502  0.16223834935E+03 -0.50619593097E+02 -0.12274952670E+03  0.26823671225E+03  0.16733159382E+03 0.  0.
        -24    2    5    5    0    0  0.41650403080E+02 -0.69206216663E+02 -0.78682790264E+02  0.13842576271E+03  0.80289811284E+02 0.  0.
          5    1    3    3  501    0 -0.29797312797E+02  0.54057051315E+02 -0.14219941242E+03  0.15508967580E+03  0.47000000000E+01 0. -1.
        -11    1    4    4    0    0 -0.73464040877E+01 -0.25883560330E+02 -0.14029752196E+03  0.14285420196E+03  0.00000000000E+00 0.  1.
         12    1    4    4    0    0 -0.12509463247E+03  0.22446102112E+02 -0.91709551195E+03  0.92585996383E+03  0.00000000000E+00 0. -1.
         -5    1    5    5    0  502  0.12058794627E+03  0.18586623566E+02 -0.44066736439E+02  0.12981094955E+03  0.47000000000E+01 0.  1.
         13    1    6    6    0    0  0.42665955514E+02 -0.56269062804E+02 -0.94497929232E+02  0.11796800336E+03  0.00000000000E+00 0. -1.
        -14    1    6    6    0    0 -0.10155524339E+01 -0.12937153860E+02  0.15815138969E+02  0.20457759343E+02  0.00000000000E+00 0.  1.
</event>
<event>
12    1  0.1597826E-001  0.1739772E+03  0.7818608E-02  0.1173819E+00
         21   -1    0    0  501  502  0.00000000000E+00  0.00000000000E+00  0.42978982171E+03  0.42978982171E+03  0.00000000000E+00 0.  1.
         21   -1    0    0  502  503 -0.00000000000E+00 -0.00000000000E+00 -0.11923933925E+03  0.11923933925E+03  0.00000000000E+00 0.  1.
         -6    2    1    2    0  503  0.11824342155E+02 -0.21469019218E+02 -0.20470908231E+02  0.17517737286E+03  0.17224203908E+03 0.  0.
        -24    2    3    3    0    0 -0.40346591844E+02 -0.60396927454E+02 -0.60262106528E+01  0.10833481395E+03  0.80152856336E+02 0.  0.
          6    2    1    2  501    0 -0.11824342155E+02  0.21469019218E+02  0.33102139069E+03  0.37385178810E+03  0.17201530314E+03 0.  0.
         24    2    5    5    0    0 -0.51671918506E+02 -0.26914321511E+02  0.12634263109E+03  0.15973905697E+03  0.78483998524E+02 0.  0.
          5    1    5    5  501    0  0.39847576351E+02  0.48383340729E+02  0.20467875960E+03  0.21411273113E+03  0.47000000000E+01 0. -1.
        -11    1    6    6    0    0 -0.83662506306E+01 -0.36132344687E+02  0.10344507521E+03  0.10989278442E+03  0.00000000000E+00 0.  1.
         12    1    6    6    0    0 -0.43305667876E+02  0.92180231760E+01  0.22897555884E+02  0.49846272548E+02  0.00000000000E+00 0. -1.
         -5    1    3    3    0  503  0.52170933999E+02  0.38927908236E+02 -0.14444697578E+02  0.66842558913E+02  0.47000000000E+01 0.  1.
         11    1    4    4    0    0  0.19685779943E+02 -0.20717305932E+02  0.16413262214E+02  0.32956514888E+02  0.00000000000E+00 0. -1.
        -12    1    4    4    0    0 -0.60032371787E+02 -0.39679621523E+02 -0.22439472867E+02  0.75378299059E+02  0.00000000000E+00 0.  1.
</event>
<event>
12    1  0.1597826E-001  0.2269527E+03  0.7818608E-02  0.1131061E+00
         21   -1    0    0  501  502  0.00000000000E+00  0.00000000000E+00  0.10746538236E+04  0.10746538236E+04  0.00000000000E+00 0.  1.
         21   -1    0    0  502  503 -0.00000000000E+00 -0.00000000000E+00 -0.83913025436E+02  0.83913025436E+02  0.00000000000E+00 0.  1.
         -6    2    1    2    0  503 -0.30229180717E+02  0.14565599861E+03  0.11032398792E+03  0.25234683268E+03  0.17140031609E+03 0.  0.
        -24    2    3    3    0    0  0.16367623796E+02  0.20100101282E+02  0.78929122411E+02  0.11471226898E+03  0.79102371071E+02 0.  0.
          6    2    1    2  501    0  0.30229180717E+02 -0.14565599861E+03  0.88041681027E+03  0.90622001638E+03  0.15482727469E+03 0.  0.
         24    2    5    5    0    0 -0.73353841135E+01 -0.74446452050E+02  0.28927184635E+03  0.30959923697E+03  0.81101198277E+02 0.  0.
          5    1    5    5  501    0  0.37564564830E+02 -0.71209546563E+02  0.59114496392E+03  0.59662077941E+03  0.47000000000E+01 0. -1.
        -11    1    6    6    0    0  0.12323238420E+02 -0.23900870743E+02  0.21992760505E+03  0.22156548759E+03  0.00000000000E+00 0.  1.
         12    1    6    6    0    0 -0.19658622533E+02 -0.50545581307E+02  0.69344241300E+02  0.88033749386E+02  0.00000000000E+00 0. -1.
         -5    1    3    3    0  503 -0.46596804513E+02  0.12555589733E+03  0.31394865509E+02  0.13763456370E+03  0.47000000000E+01 0.  1.
         13    1    4    4    0    0 -0.21830685332E+02 -0.14459234116E+02  0.47863924581E+02  0.54558258308E+02  0.00000000000E+00 0. -1.
        -14    1    4    4    0    0  0.38198309128E+02  0.34559335398E+02  0.31065197830E+02  0.60154010670E+02  0.00000000000E+00 0.  1.
</event>
<event>
12    1  0.1597826E-001  0.1815702E+03  0.7818608E-02  0.1168160E+00
         21   -1    0    0  501  502  0.00000000000E+00  0.00000000000E+00  0.53142583736E+02  0.53142583736E+02  0.00000000000E+00 0.  1.
         21   -1    0    0  502  503 -0.00000000000E+00 -0.00000000000E+00 -0.60004058904E+03  0.60004058904E+03  0.00000000000E+00 0.  1.
         -6    2    1    2    0  503 -0.57158816903E+02  0.98254397886E+00 -0.31043268334E+03  0.35963338706E+03  0.17233579565E+03 0.  0.
        -24    2    3    3    0    0 -0.48617789582E+02 -0.24355568293E+02 -0.31732591127E+03  0.33162310908E+03  0.79506410708E+02 0.  0.
          6    2    1    2  501    0  0.57158816903E+02 -0.98254397886E+00 -0.23646532197E+03  0.29354978572E+03  0.16427882535E+03 0.  0.
         24    2    5    5    0    0 -0.22452064123E+02 -0.16267276374E+02 -0.71425626187E+02  0.10961581222E+03  0.78391879358E+02 0.  0.
          5    1    5    5  501    0  0.79610881026E+02  0.15284732396E+02 -0.16503969578E+03  0.18393397349E+03  0.47000000000E+01 0. -1.
        -11    1    6    6    0    0 -0.29449798430E+02  0.17103648739E+02 -0.42997491520E+01  0.34326567998E+02  0.00000000000E+00 0.  1.
         12    1    6    6    0    0  0.69977343068E+01 -0.33370925114E+02 -0.67125877035E+02  0.75289244226E+02  0.00000000000E+00 0. -1.
         -5    1    3    3    0  503 -0.85410273215E+01  0.25338112272E+02  0.68932279297E+01  0.28010277980E+02  0.47000000000E+01 0.  1.
         13    1    4    4    0    0 -0.65950320892E+02 -0.17272718457E+02 -0.17076199722E+03  0.18386802692E+03  0.00000000000E+00 0. -1.
        -14    1    4    4    0    0  0.17332531311E+02 -0.70828498359E+01 -0.14656391405E+03  0.14775508216E+03  0.00000000000E+00 0.  1.
</event>
<event>
12    1  0.1597826E-001  0.2141569E+03  0.7818608E-02  0.1138436E+00
         21   -1    0    0  503  502  0.00000000000E+00  0.00000000000E+00  0.12619263261E+03  0.12619263261E+03  0.00000000000E+00 0.  1.
         21   -1    0    0  501  503 -0.00000000000E+00 -0.00000000000E+00 -0.44864501650E+03  0.44864501650E+03  0.00000000000E+00 0. -1.
          6    2    1    2  501    0 -0.15727655033E+02  0.12466985964E+03 -0.28744206374E+03  0.35844958278E+03  0.17341634973E+03 0.  0.
         24    2    3    3    0    0  0.13035191881E+02  0.67343908945E+02 -0.59788373507E+02  0.12188699347E+03  0.81096678543E+02 0.  0.
         -6    2    1    2    0  502  0.15727655033E+02 -0.12466985964E+03 -0.35010320158E+02  0.21638806634E+03  0.17265033942E+03 0.  0.
        -24    2    5    5    0    0  0.65739763646E+02 -0.35131406505E+02 -0.29933561022E+02  0.11359599913E+03  0.80324969319E+02 0.  0.
          5    1    3    3  501    0 -0.28762846913E+02  0.57325950690E+02 -0.22765369023E+03  0.23656258931E+03  0.47000000000E+01 0. -1.
        -13    1    4    4    0    0 -0.37845828042E+01 -0.74354436788E+01  0.13480261805E+02  0.15853275624E+02  0.00000000000E+00 0.  1.
         14    1    4    4    0    0  0.16819774685E+02  0.74779352624E+02 -0.73268635312E+02  0.10603371784E+03  0.00000000000E+00 0. -1.
         -5    1    5    5    0  502 -0.50012108613E+02 -0.89538453130E+02 -0.50767591362E+01  0.10279206720E+03  0.47000000000E+01 0.  1.
         13    1    6    6    0    0  0.12000553196E+02 -0.21914425861E+02 -0.49049796797E+02  0.55046688398E+02  0.00000000000E+00 0. -1.
        -14    1    6    6    0    0  0.53739210450E+02 -0.13216980644E+02  0.19116235775E+02  0.58549310733E+02  0.00000000000E+00 0.  1.
</event>
<event>
12    1  0.1597826E-001  0.1728538E+03  0.7818608E-02  0.1176754E+00
         21   -1    0    0  501  502  0.00000000000E+00  0.00000000000E+00  0.33722967995E+03  0.33722967995E+03  0.00000000000E+00 0. -1.
         21   -1    0    0  502  503 -0.00000000000E+00 -0.00000000000E+00 -0.97512999435E+02  0.97512999435E+02  0.00000000000E+00 0. -1.
         -6    2    1    2    0  503 -0.18099090033E+01  0.14267752730E+02  0.44200412751E+02  0.17841552039E+03  0.17225439585E+03 0.  0.
        -24    2    3    3    0    0 -0.20343357441E+02  0.19990052604E+02 -0.38094459544E+02  0.93735124589E+02  0.80756617925E+02 0.  0.
          6    2    1    2  501    0  0.18099090033E+01 -0.14267752730E+02  0.19551626776E+03  0.25632715899E+03  0.16513678252E+03 0.  0.
         24    2    5    5    0    0  0.19563712173E+02  0.18378129557E+02  0.35610897027E+02  0.92093274709E+02  0.80576304082E+02 0.  0.
          5    1    5    5  501    0 -0.17753803170E+02 -0.32645882287E+02  0.15990537073E+03  0.16423388428E+03  0.47000000000E+01 0. -1.
        -11    1    6    6    0    0  0.14879535482E+02 -0.30945543343E+02  0.75647072443E+01  0.35160375775E+02  0.00000000000E+00 0.  1.
         12    1    6    6    0    0  0.46841766910E+01  0.49323672900E+02  0.28046189783E+02  0.56932898934E+02  0.00000000000E+00 0. -1.
         -5    1    3    3    0  503  0.18533448437E+02 -0.57222998739E+01  0.82294872295E+02  0.84680395800E+02  0.47000000000E+01 0.  1.
         13    1    4    4    0    0  0.29928172538E+02  0.18601531980E+02 -0.13298703958E+02  0.37663882307E+02  0.00000000000E+00 0. -1.
        -14    1    4    4    0    0 -0.50271529979E+02  0.13885206238E+01 -0.24795755587E+02  0.56071242282E+02  0.00000000000E+00 0.  1.
</event>
<event>
12    1  0.1597826E-001  0.1913683E+03  0.7818608E-02  0.1157515E+00
         21   -1    0    0  501  502  0.00000000000E+00  0.00000000000E+00  0.17523063310E+03  0.17523063310E+03  0.00000000000E+00 0.  1.
         21   -1    0    0  502  503 -0.00000000000E+00 -0.00000000000E+00 -0.32961502078E+03  0.32961502078E+03  0.00000000000E+00 0.  1.
         -6    2    1    2    0  503  0.69028707047E+02 -0.46794151452E+02 -0.23059705337E+03  0.29885976459E+03  0.17084350400E+03 0.  0.
        -24    2    3    3    0    0  0.11864222869E+02  0.28932003702E+02 -0.15647424751E+03  0.17836698815E+03  0.79704276566E+02 0.  0.
          6    2    1    2  501    0 -0.69028707047E+02  0.46794151452E+02  0.76212665699E+02  0.20598588929E+03  0.17224157793E+03 0.  0.
         24    2    5    5    0    0  0.18864639665E+02  0.43837056029E+02  0.71125444766E+02  0.11777050160E+03  0.80830068923E+02 0.  0.
          5    1    5    5  501    0 -0.87893346712E+02  0.29570954224E+01  0.50872209322E+01  0.88215387696E+02  0.47000000000E+01 0. -1.
        -13    1    6    6    0    0  0.24495196222E+01  0.83665420529E+01  0.77656150129E+02  0.78143949383E+02  0.00000000000E+00 0.  1.
         14    1    6    6    0    0  0.16415120043E+02  0.35470513976E+02 -0.65307053630E+01  0.39626552213E+02  0.00000000000E+00 0. -1.
         -5    1    3    3    0  503  0.57164484178E+02 -0.75726155154E+02 -0.74122805861E+02  0.12049277644E+03  0.47000000000E+01 0.  1.
         13    1    4    4    0    0 -0.20004877082E+02 -0.11656540072E+01 -0.49661070482E+01  0.20645001225E+02  0.00000000000E+00 0. -1.
        -14    1    4    4    0    0  0.31869099951E+02  0.30097657709E+02 -0.15150814046E+03  0.15772198692E+03  0.00000000000E+00 0.  1.
</event>
<event>
12    1  0.1597826E-001  0.1791976E+03  0.7818608E-02  0.1168841E+00
         21   -1    0    0  503  502  0.00000000000E+00  0.00000000000E+00  0.82404076505E+03  0.82404076505E+03  0.00000000000E+00 0. -1.
         21   -1    0    0  501  503 -0.00000000000E+00 -0.00000000000E+00 -0.65429332613E+02  0.65429332613E+02  0.00000000000E+00 0. -1.
          6    2    1    2  501    0  0.44602355459E+02 -0.20708366962E+02  0.95920663599E+02  0.20325492996E+03  0.17231827029E+03 0.  0.
         24    2    3    3    0    0 -0.30932713183E+01  0.49767763018E+02  0.48564364674E+02  0.10575381839E+03  0.79617674070E+02 0.  0.
         -6    2    1    2    0  502 -0.44602355459E+02  0.20708366962E+02  0.66269076884E+03  0.68621516770E+03  0.17121330177E+03 0.  0.
        -24    2    5    5    0    0  0.15583277901E+02  0.38028718651E+02  0.54920522202E+03  0.55651025498E+03  0.79926628968E+02 0.  0.
          5    1    3    3  501    0  0.47695626777E+02 -0.70476129980E+02  0.47356298926E+02  0.97501111576E+02  0.47000000000E+01 0. -1.
        -13    1    4    4    0    0 -0.44261360752E+01  0.46669029819E+01  0.59075912152E+02  0.59425028906E+02  0.00000000000E+00 0.  1.
         14    1    4    4    0    0  0.13328647568E+01  0.45100860036E+02 -0.10511547478E+02  0.46328789482E+02  0.00000000000E+00 0. -1.
         -5    1    5    5    0  502 -0.60185633360E+02 -0.17320351688E+02  0.11348554682E+03  0.12970491272E+03  0.47000000000E+01 0.  1.
         11    1    6    6    0    0 -0.20965191644E+02  0.30780578908E+02  0.11893008354E+03  0.12462482926E+03  0.00000000000E+00 0. -1.
        -12    1    6    6    0    0  0.36548469545E+02  0.72481397423E+01  0.43027513848E+03  0.43188542572E+03  0.00000000000E+00 0.  1.
</event>
<event>
12    1  0.1597826E-001  0.2265744E+03  0.7818608E-02  0.1129114E+00
         21   -1    0    0  501  502  0.00000000000E+00  0.00000000000E+00  0.41155682147E+03  0.41155682147E+03  0.00000000000E+00 0. -1.
         21   -1    0    0  502  503 -0.00000000000E+00 -0.00000000000E+00 -0.20118157182E+03  0.20118157182E+03  0.00000000000E+00 0.  1.
         -6    2    1    2    0  503  0.14156173399E+03  0.43028305888E+02 -0.83848045815E+02  0.24138502153E+03  0.17130404022E+03 0.  0.
        -24    2    3    3    0    0  0.30586039164E+01  0.20943059151E+02 -0.91426631199E+01  0.82407477938E+02  0.79116606011E+02 0.  0.
          6    2    1    2  501    0 -0.14156173399E+03 -0.43028305888E+02  0.29422329547E+03  0.37135337176E+03  0.17159492851E+03 0.  0.
         24    2    5    5    0    0 -0.22978981560E+02  0.27952582027E+01  0.50967695069E+02  0.96840994405E+02  0.79022940939E+02 0.  0.
          5    1    5    5  501    0 -0.11858275243E+03 -0.45823564091E+02  0.24325560040E+03  0.27451237736E+03  0.47000000000E+01 0. -1.
        -13    1    6    6    0    0 -0.23749500414E+02 -0.22914744405E+02 -0.67196807027E+01  0.33679049716E+02  0.00000000000E+00 0.  1.
         14    1    6    6    0    0  0.77051885324E+00  0.25710002608E+02  0.57687375772E+02  0.63161944689E+02  0.00000000000E+00 0. -1.
         -5    1    3    3    0  503  0.13850313007E+03  0.22085246737E+02 -0.74705382695E+02  0.15897754359E+03  0.47000000000E+01 0.  1.
         13    1    4    4    0    0  0.32595768215E+02 -0.14405425402E+02 -0.68232431875E+01  0.36284391053E+02  0.00000000000E+00 0. -1.
        -14    1    4    4    0    0 -0.29537164298E+02  0.35348484553E+02 -0.23194199324E+01  0.46123086885E+02  0.00000000000E+00 0.  1.
</event>
<event>
12    1  0.1597826E-001  0.2241662E+03  0.7818608E-02  0.1130931E+00
         21   -1    0    0  503  502  0.00000000000E+00  0.00000000000E+00  0.16792175605E+03  0.16792175605E+03  0.00000000000E+00 0.  1.
         21   -1    0    0  501  503 -0.00000000000E+00 -0.00000000000E+00 -0.30029316792E+03  0.30029316792E+03  0.00000000000E+00 0.  1.
          6    2    1    2  501    0  0.46233583250E+02 -0.13598707473E+03 -0.84893944390E+02  0.23970290627E+03  0.17210599283E+03 0.  0.
         24    2    3    3    0    0  0.29208583453E+02 -0.19055889103E+02 -0.84884533881E+02  0.12144537848E+03  0.79544500790E+02 0.  0.
         -6    2    1    2    0  502 -0.46233583250E+02  0.13598707473E+03 -0.47477467480E+02  0.22851201770E+03  0.17127055673E+03 0.  0.
        -24    2    5    5    0    0  0.10959287140E+02  0.13017753106E+02 -0.29742622731E+02  0.91657740449E+02  0.85011469266E+02 0.  0.
          5    1    3    3  501    0  0.17024999798E+02 -0.11693118563E+03 -0.94105081997E-02  0.11825752779E+03  0.47000000000E+01 0. -1.
        -13    1    4    4    0    0 -0.21350291559E+01 -0.45442837473E+02 -0.38908422172E+02  0.59862134468E+02  0.00000000000E+00 0.  1.
         14    1    4    4    0    0  0.31343612609E+02  0.26386948369E+02 -0.45976111709E+02  0.61583244016E+02  0.00000000000E+00 0. -1.
         -5    1    5    5    0  502 -0.57192870390E+02  0.12296932163E+03 -0.17734844749E+02  0.13685427725E+03  0.47000000000E+01 0.  1.
         13    1    6    6    0    0  0.61791732292E+01  0.32980011727E+02 -0.51678314983E+02  0.61615838831E+02  0.00000000000E+00 0. -1.
        -14    1    6    6    0    0  0.47801139103E+01 -0.19962258621E+02  0.21935692252E+02  0.30041901618E+02  0.00000000000E+00 0.  1.
</event>
<event>
12    1  0.1597826E-001  0.2006261E+03  0.7818608E-02  0.1149272E+00
         21   -1    0    0  503  502  0.00000000000E+00  0.00000000000E+00  0.24936006164E+03  0.24936006164E+03  0.00000000000E+00 0. -1.
         21   -1    0    0  501  503 -0.00000000000E+00 -0.00000000000E+00 -0.57456393479E+03  0.57456393479E+03  0.00000000000E+00 0. -1.
          6    2    1    2  501    0  0.10221662589E+03  0.10168390350E+02 -0.51200058492E+03  0.54980018755E+03  0.17200003634E+03 0.  0.
         24    2    3    3    0    0  0.92633794751E+02 -0.21879804871E+02 -0.49796489107E+03  0.51322139354E+03  0.79796116785E+02 0.  0.
         -6    2    1    2    0  502 -0.10221662589E+03 -0.10168390350E+02  0.18679671178E+03  0.27412380888E+03  0.17233460561E+03 0.  0.
        -24    2    5    5    0    0 -0.10267681937E+03  0.65244437654E+01  0.57342018343E+02  0.14351190229E+03  0.81990617929E+02 0.  0.
          5    1    3    3  501    0  0.95828311408E+01  0.32048195221E+02 -0.14035693848E+02  0.36578794012E+02  0.47000000000E+01 0. -1.
        -13    1    4    4    0    0 -0.26186094242E+01 -0.25658952974E+02 -0.16016418230E+03  0.16222763105E+03  0.00000000000E+00 0.  1.
         14    1    4    4    0    0  0.95252404175E+02  0.37791481037E+01 -0.33780070877E+03  0.35099376249E+03  0.00000000000E+00 0. -1.
         -5    1    5    5    0  502  0.46019348120E+00 -0.16692834116E+02  0.12945469344E+03  0.13061190659E+03  0.47000000000E+01 0.  1.
         11    1    6    6    0    0 -0.75211840505E+01  0.29553016406E+02  0.90760114315E+00  0.30508568109E+02  0.00000000000E+00 0. -1.
        -12    1    6    6    0    0 -0.95155635323E+02 -0.23028572641E+02  0.56434417199E+02  0.11300333418E+03  0.00000000000E+00 0.  1.
</event>
<event>
12    1  0.1597826E-001  0.1960295E+03  0.7818608E-02  0.1153401E+00
         21   -1    0    0  501  502  0.00000000000E+00  0.00000000000E+00  0.11175787130E+03  0.11175787130E+03  0.00000000000E+00 0.  1.
         21   -1    0    0  502  503 -0.00000000000E+00 -0.00000000000E+00 -0.14058326796E+04  0.14058326796E+04  0.00000000000E+00 0.  1.
         -6    2    1    2    0  503  0.73854028769E+02  0.54168977230E+02 -0.13077064279E+04  0.13223175407E+04  0.17331728473E+03 0.  0.
        -24    2    3    3    0    0  0.95683392655E+02  0.86860249271E+02 -0.89685305768E+03  0.90956116918E+03  0.79095504854E+02 0.  0.
          6    2    1    2  501    0 -0.73854028769E+02 -0.54168977230E+02  0.13631619560E+02  0.19527301025E+03  0.17192158625E+03 0.  0.
         24    2    5    5    0    0 -0.84227504601E+02 -0.57044386625E+02  0.63107378706E+02  0.14442207394E+03  0.80788982034E+02 0.  0.
          5    1    5    5  501    0  0.10373475832E+02  0.28754093950E+01 -0.49475759146E+02  0.50850936305E+02  0.47000000000E+01 0. -1.
        -11    1    6    6    0    0 -0.96564834848E+01 -0.46462449407E+02  0.21102890634E+01  0.47502212560E+02  0.00000000000E+00 0.  1.
         12    1    6    6    0    0 -0.74571021117E+02 -0.10581937218E+02  0.60997089643E+02  0.96919861383E+02  0.00000000000E+00 0. -1.
         -5    1    3    3    0  503 -0.21829363886E+02 -0.32691272041E+02 -0.41085337022E+03  0.41275637151E+03  0.47000000000E+01 0.  1.
         11    1    4    4    0    0  0.17646939938E+02  0.16836706852E+02 -0.44174393262E+02  0.50460541088E+02  0.00000000000E+00 0. -1.
        -12    1    4    4    0    0  0.78036452717E+02  0.70023542419E+02 -0.85267866441E+03  0.85910062809E+03  0.00000000000E+00 0.  1.
</event>
<event>
12    1  0.1597826E-001  0.2121851E+03  0.7818608E-02  0.1139880E+00
         21   -1    0    0  501  502  0.00000000000E+00  0.00000000000E+00  0.84155901154E+03  0.84155901154E+03  0.00000000000E+00 0. -1.
         21   -1    0    0  502  503 -0.00000000000E+00 -0.00000000000E+00 -0.53637911914E+02  0.53637911914E+02  0.00000000000E+00 0.  1.
         -6    2    1    2    0  503 -0.91231545203E+02 -0.85199954945E+02  0.41986649097E+03  0.47035962817E+03  0.17137118316E+03 0.  0.
        -24    2    3    3    0    0 -0.37986259213E+02 -0.11597348327E+03  0.24827576630E+03  0.28802055579E+03  0.80138503335E+02 0.  0.
          6    2    1    2  501    0  0.91231545203E+02  0.85199954945E+02  0.36805460866E+03  0.42483729528E+03  0.17158177451E+03 0.  0.
         24    2    5    5    0    0  0.45491573759E+02  0.10570363902E+03  0.20523671850E+03  0.25441340786E+03  0.96753960596E+02 0.  0.
          5    1    5    5  501    0  0.45739971444E+02 -0.20503684078E+02  0.16281789016E+03  0.17042388742E+03  0.47000000000E+01 0. -1.
        -13    1    6    6    0    0  0.46279350477E+02  0.10218315323E+02  0.33918652183E+02  0.58280933542E+02  0.00000000000E+00 0.  1.
         14    1    6    6    0    0 -0.78777671804E+00  0.95485323700E+02  0.17131806632E+03  0.19613247432E+03  0.00000000000E+00 0. -1.
         -5    1    3    3    0  503 -0.53245285990E+02  0.30773528321E+02  0.17159072467E+03  0.18233907238E+03  0.47000000000E+01 0.  1.
         11    1    4    4    0    0  0.12763535737E+02  0.49696646030E+01  0.35709780126E+02  0.38246487517E+02  0.00000000000E+00 0. -1.
        -12    1    4    4    0    0 -0.50749794950E+02 -0.12094314787E+03  0.21256598617E+03  0.24977406827E+03  0.00000000000E+00 0.  1.
</event>
<event>
12    1  0.1597826E-001  0.1941734E+03  0.7818608E-02  0.1155922E+00
         21   -1    0    0  503  502  0.00000000000E+00  0.00000000000E+00  0.67766858081E+03  0.67766858081E+03  0.00000000000E+00 0.  1.
         21   -1    0    0  501  503 -0.00000000000E+00 -0.00000000000E+00 -0.14167986574E+03  0.14167986574E+03  0.00000000000E+00 0.  1.
          6    2    1    2  501    0  0.81986779262E+02  0.20878245202E+02 -0.55430365573E+02  0.19686967046E+03  0.16890058799E+03 0.  0.
         24    2    3    3    0    0  0.56122692526E+02 -0.38457195463E+02 -0.75137342747E+02  0.12904563010E+03  0.79865148053E+02 0.  0.
         -6    2    1    2    0  502 -0.81986779262E+02 -0.20878245202E+02  0.59141908064E+03  0.62247877609E+03  0.17477289447E+03 0.  0.
        -24    2    5    5    0    0 -0.58069575906E+01 -0.36826607966E+02  0.14688346446E+03  0.17115658568E+03  0.79560699334E+02 0.  0.
          5    1    3    3  501    0  0.25864086736E+02  0.59335440665E+02  0.19706977175E+02  0.67824040362E+02  0.47000000000E+01 0. -1.
        -13    1    4    4    0    0  0.61957068978E+02  0.10684970057E+01 -0.30260501338E+02  0.68960264090E+02  0.00000000000E+00 0.  1.
         14    1    4    4    0    0 -0.58343764514E+01 -0.39525692469E+02 -0.44876841409E+02  0.60085366010E+02  0.00000000000E+00 0. -1.
         -5    1    5    5    0  502 -0.76179821671E+02  0.15948362763E+02  0.44453561618E+03  0.45132219041E+03  0.47000000000E+01 0.  1.
         13    1    6    6    0    0  0.22748883853E+02 -0.34317011967E+02  0.13315069882E+03  0.13937100711E+03  0.00000000000E+00 0. -1.
        -14    1    6    6    0    0 -0.28555841444E+02 -0.25095959989E+01  0.13732765638E+02  0.31785578565E+02  0.00000000000E+00 0.  1.
</event>
<event>
12    1  0.1597826E-001  0.1921969E+03  0.7818608E-02  0.1156540E+00
         21   -1    0    0  501  502  0.00000000000E+00  0.00000000000E+00  0.40588382800E+03  0.40588382800E+03  0.00000000000E+00 0. -1.
         21   -1    0    0  502  503 -0.00000000000E+00 -0.00000000000E+00 -0.70116359126E+03  0.70116359126E+03  0.00000000000E+00 0. -1.
         -6    2    1    2    0  503  0.38087923660E+02 -0.76308365678E+02 -0.66402289691E+03  0.69122153764E+03  0.17200915637E+03 0.  0.
        -24    2    3    3    0    0  0.88631480721E+02 -0.42228264595E+02 -0.49330125768E+03  0.50988187691E+03  0.83633915809E+02 0.  0.
          6    2    1    2  501    0 -0.38087923660E+02  0.76308365678E+02  0.36874313366E+03  0.41582588162E+03  0.17223823211E+03 0.  0.
         24    2    5    5    0    0  0.73967572734E+01  0.22503571890E+02  0.80984281069E+02  0.11953032094E+03  0.84663575859E+02 0.  0.
          5    1    5    5  501    0 -0.45484680933E+02  0.53804793788E+02  0.28775885259E+03  0.29629556068E+03  0.47000000000E+01 0. -1.
        -11    1    6    6    0    0  0.43969610522E+02  0.21457192618E+02  0.59755322261E+02  0.77229763065E+02  0.00000000000E+00 0.  1.
         12    1    6    6    0    0 -0.36572853248E+02  0.10463792726E+01  0.21228958808E+02  0.42300557873E+02  0.00000000000E+00 0. -1.
         -5    1    3    3    0  503 -0.50543557061E+02 -0.34080101083E+02 -0.17072163923E+03  0.18133966073E+03  0.47000000000E+01 0.  1.
         11    1    4    4    0    0 -0.18587973509E+01 -0.35148607498E+02 -0.19223577021E+03  0.19543149972E+03  0.00000000000E+00 0. -1.
        -12    1    4    4    0    0  0.90490278072E+02 -0.70796570977E+01 -0.30106548747E+03  0.31445037719E+03  0.00000000000E+00 0.  1.
</event>
<event>
12    1  0.1597826E-001  0.2045100E+03  0.7818608E-02  0.1146834E+00
         21   -1    0    0  503  502  0.00000000000E+00  0.00000000000E+00  0.96938994635E+02  0.96938994635E+02  0.00000000000E+00 0. -1.
         21   -1    0    0  501  503 -0.00000000000E+00 -0.00000000000E+00 -0.42714882006E+03  0.42714882006E+03  0.00000000000E+00 0.  1.
          6    2    1    2  501    0  0.10490519652E+03 -0.24253968486E+02 -0.19294813319E+03  0.28116422785E+03  0.17387060038E+03 0.  0.
         24    2    3    3    0    0  0.58431390994E+02  0.53475083168E+02 -0.12220809846E+03  0.16615178250E+03  0.79986145832E+02 0.  0.
         -6    2    1    2    0  502 -0.10490519652E+03  0.24253968486E+02 -0.13726169223E+03  0.24292358685E+03  0.16904952425E+03 0.  0.
        -24    2    5    5    0    0 -0.12688680922E+03 -0.18259045352E+02 -0.10475219756E+03  0.18487615033E+03  0.82295279172E+02 0.  0.
          5    1    3    3  501    0  0.46473805522E+02 -0.77729051655E+02 -0.70740034731E+02  0.11501244535E+03  0.47000000000E+01 0. -1.
        -11    1    4    4    0    0 -0.19895666226E+02  0.63723053419E+01 -0.27472637725E+02  0.34513615191E+02  0.00000000000E+00 0.  1.
         12    1    4    4    0    0  0.78327057220E+02  0.47102777827E+02 -0.94735460738E+02  0.13163816731E+03  0.00000000000E+00 0. -1.
         -5    1    5    5    0  502  0.21981612708E+02  0.42513013838E+02 -0.32509494672E+02  0.58047436521E+02  0.47000000000E+01 0.  1.
         11    1    6    6    0    0 -0.94691898477E+00 -0.21742801859E+02 -0.12056471453E+01  0.21796781259E+02  0.00000000000E+00 0. -1.
        -12    1    6    6    0    0 -0.12593989024E+03  0.34837565069E+01 -0.10354655041E+03  0.16307936907E+03  0.00000000000E+00 0.  1.
</event>
<event>
12    1  0.1597826E-001  0.1834370E+03  0.7818608E-02  0.1164859E+00
         21   -1    0    0  501  502  0.00000000000E+00  0.00000000000E+00  0.45406694636E+03  0.45406694636E+03  0.00000000000E+00 0.  1.
         21   -1    0    0  502  503 -0.00000000000E+00 -0.00000000000E+00 -0.12776417620E+03  0.12776417620E+03  0.00000000000E+00 0.  1.
         -6    2    1    2    0  503 -0.41818225801E+01 -0.64329250420E+02 -0.26024254656E+02  0.18527387675E+03  0.17173644772E+03 0.  0.
        -24    2    3    3    0    0  0.20092575807E+02  0.17100701906E+02 -0.47328002143E+02  0.97546895664E+02  0.81112954936E+02 0.  0.
          6    2    1    2  501    0  0.41818225801E+01  0.64329250420E+02  0.35232702482E+03  0.39655724581E+03  0.17019863891E+03 0.  0.
         24    2    5    5    0    0 -0.56073811419E-01  0.17372281573E+01  0.31655984285E+03  0.32418941924E+03  0.69897241269E+02 0.  0.
          5    1    5    5  501    0  0.42378963915E+01  0.62592022262E+02  0.35767181976E+02  0.72367826575E+02  0.47000000000E+01 0. -1.
        -13    1    6    6    0    0  0.10049260681E+02  0.25984641521E+02  0.26364448637E+03  0.26511243733E+03  0.00000000000E+00 0.  1.
         14    1    6    6    0    0 -0.10105334492E+02 -0.24247413364E+02  0.52915356479E+02  0.59076981907E+02  0.00000000000E+00 0. -1.
         -5    1    3    3    0  503 -0.24274398387E+02 -0.81429952326E+02  0.21303747487E+02  0.87726981082E+02  0.47000000000E+01 0.  1.
         13    1    4    4    0    0  0.35736846668E+02  0.25501576843E+02  0.31707103786E+01  0.44017110714E+02  0.00000000000E+00 0. -1.
        -14    1    4    4    0    0 -0.15644270861E+02 -0.84008749364E+01 -0.50498712521E+02  0.53529784950E+02  0.00000000000E+00 0.  1.
</event>
<event>
12    1  0.1597826E-001  0.2431984E+03  0.7818608E-02  0.1118122E+00
         21   -1    0    0  503  502  0.00000000000E+00  0.00000000000E+00  0.15479650123E+03  0.15479650123E+03  0.00000000000E+00 0.  1.
         21   -1    0    0  501  503 -0.00000000000E+00 -0.00000000000E+00 -0.40582226098E+03  0.40582226098E+03  0.00000000000E+00 0. -1.
          6    2    1    2  501    0  0.15913222763E+03  0.66312351941E+02 -0.19970893881E+03  0.31468894944E+03  0.17153740342E+03 0.  0.
         24    2    3    3    0    0  0.75302965344E+02  0.87530374933E+01 -0.24072265161E+02  0.11168463662E+03  0.78401733733E+02 0.  0.
         -6    2    1    2    0  502 -0.15913222763E+03 -0.66312351941E+02 -0.51316820936E+02  0.24592981277E+03  0.16771303708E+03 0.  0.
        -24    2    5    5    0    0 -0.24378256400E+02 -0.52608553146E+02  0.54481564001E+01  0.98991800278E+02  0.80048328308E+02 0.  0.
          5    1    3    3  501    0  0.83829262282E+02  0.57559314447E+02 -0.17563667364E+03  0.20300431282E+03  0.47000000000E+01 0. -1.
        -13    1    4    4    0    0 -0.16211583070E+02  0.65352513823E+01 -0.49594182479E+01  0.18169225785E+02  0.00000000000E+00 0.  1.
         14    1    4    4    0    0  0.91514548415E+02  0.22177861110E+01 -0.19112846913E+02  0.93515410837E+02  0.00000000000E+00 0. -1.
         -5    1    5    5    0  502 -0.13475397123E+03 -0.13703798795E+02 -0.56764977336E+02  0.14693801249E+03  0.47000000000E+01 0.  1.
         11    1    6    6    0    0 -0.30124768692E+02 -0.32966761180E+02 -0.32938186158E+02  0.55490838333E+02  0.00000000000E+00 0. -1.
        -12    1    6    6    0    0  0.57465122914E+01 -0.19641791966E+02  0.38386342559E+02  0.43500961945E+02  0.00000000000E+00 0.  1.
</event>
<event>
12    1  0.1597826E-001  0.1787871E+03  0.7818608E-02  0.1170039E+00
         21   -1    0    0  501  502  0.00000000000E+00  0.00000000000E+00  0.11815475213E+03  0.11815475213E+03  0.00000000000E+00 0.  1.
         21   -1    0    0  502  503 -0.00000000000E+00 -0.00000000000E+00 -0.26475941716E+03  0.26475941716E+03  0.00000000000E+00 0.  1.
         -6    2    1    2    0  503  0.43437890952E+02  0.55877471612E+01 -0.83719183702E+02  0.19741764313E+03  0.17333998618E+03 0.  0.
        -24    2    3    3    0    0 -0.63905893739E+01  0.61326524354E+02 -0.65043717437E+02  0.12021303332E+03  0.80116827078E+02 0.  0.
          6    2    1    2  501    0 -0.43437890952E+02 -0.55877471612E+01 -0.62885481324E+02  0.18549652616E+03  0.16892691960E+03 0.  0.
         24    2    5    5    0    0 -0.47205409603E+02  0.36788910870E+02 -0.89505662258E+02  0.13509117549E+03  0.81587912469E+02 0.  0.
          5    1    5    5  501    0  0.37675186504E+01 -0.42376658031E+02  0.26620180934E+02  0.50405350665E+02  0.47000000000E+01 0. -1.
        -11    1    6    6    0    0 -0.19915097891E+01  0.39636963541E+02 -0.60685606867E+01  0.40148255488E+02  0.00000000000E+00 0.  1.
         12    1    6    6    0    0 -0.45213899814E+02 -0.28480526707E+01 -0.83437101571E+02  0.94942920005E+02  0.00000000000E+00 0. -1.
         -5    1    3    3    0  503  0.49828480326E+02 -0.55738777193E+02 -0.18675466265E+02  0.77204609803E+02  0.47000000000E+01 0.  1.
         13    1    4    4    0    0 -0.46654516950E+01  0.50313514174E+02  0.36119443960E+01  0.50658289453E+02  0.00000000000E+00 0. -1.
        -14    1    4    4    0    0 -0.17251376789E+01  0.11013010181E+02 -0.68655661833E+02  0.69554743871E+02  0.00000000000E+00 0.  1.
</event>
<event>
12    1  0.1597826E-001  0.1788706E+03  0.7818608E-02  0.1169448E+00
         21   -1    0    0  503  502  0.00000000000E+00  0.00000000000E+00  0.45556316796E+02  0.45556316796E+02  0.00000000000E+00 0. -1.
         21   -1    0    0  501  503 -0.00000000000E+00 -0.00000000000E+00 -0.19163410177E+04  0.19163410177E+04  0.00000000000E+00 0. -1.
          6    2    1    2  501    0 -0.42264836686E+02 -0.11322641327E+02 -0.17210837636E+04  0.17303537207E+04  0.17343632488E+03 0.  0.
         24    2    3    3    0    0 -0.38935711627E+02  0.51374682303E+02 -0.50961606161E+03  0.51725103732E+03  0.60702205354E+02 0.  0.
         -6    2    1    2    0  502  0.42264836686E+02  0.11322641327E+02 -0.14970093732E+03  0.23154361381E+03  0.17113607403E+03 0.  0.
        -24    2    5    5    0    0 -0.10540271304E+02  0.62576583093E+02 -0.75647835353E+02  0.12703860012E+03  0.79933002290E+02 0.  0.
          5    1    3    3  501    0 -0.33291250591E+01 -0.62697323630E+02 -0.12114677020E+04  0.12131026834E+04  0.47000000000E+01 0. -1.
        -11    1    4    4    0    0  0.74531464251E+01 -0.86108436521E+01 -0.41558808186E+02  0.43090956799E+02  0.00000000000E+00 0.  1.
         12    1    4    4    0    0 -0.46388858052E+02  0.59985525955E+02 -0.46805725343E+03  0.47416008052E+03  0.00000000000E+00 0. -1.
         -5    1    5    5    0  502  0.52805107990E+02 -0.51253941767E+02 -0.74053101967E+02  0.10450501370E+03  0.47000000000E+01 0.  1.
         13    1    6    6    0    0 -0.80994137475E+01  0.73723779478E+02 -0.84619901859E+02  0.11252254865E+03  0.00000000000E+00 0. -1.
        -14    1    6    6    0    0 -0.24408575568E+01 -0.11147196385E+02  0.89720665059E+01  0.14516051468E+02  0.00000000000E+00 0.  1.
</event>
<event>
12    1  0.1597826E-001  0.1905717E+03  0.7818608E-02  0.1158860E+00
         21   -1    0    0  501  502  0.00000000000E+00  0.00000000000E+00  0.91444432678E+02  0.91444432678E+02  0.00000000000E+00 0.  1.
         21   -1    0    0  502  503 -0.00000000000E+00 -0.00000000000E+00 -0.38979359885E+03  0.38979359885E+03  0.00000000000E+00 0.  1.
         -6    2    1    2    0  503  0.51792622000E+02 -0.44897122569E+02 -0.13557330622E+03  0.23061174622E+03  0.17350339717E+03 0.  0.
        -24    2    3    3    0    0 -0.30096622974E+02  0.24005679171E+01 -0.10507262560E+03  0.13113661624E+03  0.72422275757E+02 0.  0.
          6    2    1    2  501    0 -0.51792622000E+02  0.44897122569E+02 -0.16277585996E+03  0.25062628531E+03  0.17781824145E+03 0.  0.
         24    2    5    5    0    0 -0.23034325053E+02  0.73915088011E+02 -0.17453113167E+03  0.20785528608E+03  0.82150372282E+02 0.  0.
          5    1    5    5  501    0 -0.28758296947E+02 -0.29017965442E+02  0.11755271708E+02  0.42770999224E+02  0.47000000000E+01 0. -1.
        -11    1    6    6    0    0 -0.52608703969E+02  0.55503066602E+02 -0.10293855494E+03  0.12823654794E+03  0.00000000000E+00 0.  1.
         12    1    6    6    0    0  0.29574378916E+02  0.18412021408E+02 -0.71592576730E+02  0.79618738143E+02  0.00000000000E+00 0. -1.
         -5    1    3    3    0  503  0.81889244975E+02 -0.47297690486E+02 -0.30500680612E+02  0.99475129985E+02  0.47000000000E+01 0.  1.
         13    1    4    4    0    0  0.31346270177E+01  0.33030199433E+02 -0.47623732485E+02  0.58041707908E+02  0.00000000000E+00 0. -1.
        -14    1    4    4    0    0 -0.33231249992E+02 -0.30629631516E+02 -0.57448893120E+02  0.73094908328E+02  0.00000000000E+00 0.  1.
</event>
<event>
12    1  0.1597826E-001  0.2435924E+03  0.7818608E-02  0.1117524E+00
         21   -1    0    0  503  502  0.00000000000E+00  0.00000000000E+00  0.58659917120E+03  0.58659917120E+03  0.00000000000E+00 0.  1.
         21   -1    0    0  501  503 -0.00000000000E+00 -0.00000000000E+00 -0.16141641353E+03  0.16141641353E+03  0.00000000000E+00 0.  1.
          6    2    1    2  501    0 -0.17101358520E+03 -0.22715008693E+02 -0.16247150784E+02  0.24413361389E+03  0.17197567730E+03 0.  0.
         24    2    3    3    0    0 -0.67695921198E+02 -0.36190850193E+02  0.46402157066E+02  0.12246536096E+03  0.83379188466E+02 0.  0.
         -6    2    1    2    0  502  0.17101358520E+03  0.22715008693E+02  0.44142990845E+03  0.50388197084E+03  0.17109955733E+03 0.  0.
        -24    2    5    5    0    0  0.62344844702E+02  0.67596837900E+02  0.24265099560E+03  0.27288755544E+03  0.84450577795E+02 0.  0.
          5    1    3    3  501    0 -0.10331766400E+03  0.13475841499E+02 -0.62649307849E+02  0.12166825294E+03  0.47000000000E+01 0. -1.
        -13    1    4    4    0    0  0.46233253329E+01  0.20455668435E+02  0.42746031414E+01  0.21402844210E+02  0.00000000000E+00 0.  1.
         14    1    4    4    0    0 -0.72319246531E+02 -0.56646518628E+02  0.42127553924E+02  0.10106251675E+03  0.00000000000E+00 0. -1.
         -5    1    5    5    0  502  0.10866874050E+03 -0.44881829207E+02  0.19877891284E+03  0.23099441540E+03  0.47000000000E+01 0.  1.
         13    1    6    6    0    0 -0.11455514295E+02  0.32470007879E+02  0.32279833545E+02  0.47196587516E+02  0.00000000000E+00 0. -1.
        -14    1    6    6    0    0  0.73800358997E+02  0.35126830021E+02  0.21037116206E+03  0.22569096792E+03  0.00000000000E+00 0.  1.
</event>
<event>
12    1  0.1597826E-001  0.2013134E+03  0.7818608E-02  0.1148650E+00
         21   -1    0    0  501  502  0.00000000000E+00  0.00000000000E+00  0.24426343274E+03  0.24426343274E+03  0.00000000000E+00 0.  1.
         21   -1    0    0  502  503 -0.00000000000E+00 -0.00000000000E+00 -0.61098957320E+03  0.61098957320E+03  0.00000000000E+00 0. -1.
         -6    2    1    2    0  503 -0.87163643690E+02  0.57115758597E+02 -0.54835352032E+03  0.58411539653E+03  0.17216126903E+03 0.  0.
        -24    2    3    3    0    0  0.31226953352E+02 -0.16603274398E+02 -0.13728922846E+03  0.15001083386E+03  0.49031894579E+02 0.  0.
          6    2    1    2  501    0  0.87163643690E+02 -0.57115758597E+02  0.18162737985E+03  0.27113760941E+03  0.17224223485E+03 0.  0.
         24    2    5    5    0    0  0.76340085620E+02  0.91339604306E+01  0.44981613296E+02  0.11882106337E+03  0.78637533411E+02 0.  0.
          5    1    5    5  501    0  0.10823558070E+02 -0.66249719028E+02  0.13664576655E+03  0.15231654604E+03  0.47000000000E+01 0. -1.
        -13    1    6    6    0    0  0.37093008529E+02  0.11933365714E+01  0.64392738624E+02  0.74321868393E+02  0.00000000000E+00 0.  1.
         14    1    6    6    0    0  0.39247077092E+02  0.79406238592E+01 -0.19411125328E+02  0.44499194981E+02  0.00000000000E+00 0. -1.
         -5    1    3    3    0  503 -0.11839059704E+03  0.73719032995E+02 -0.41106429185E+03  0.43410456267E+03  0.47000000000E+01 0.  1.
         11    1    4    4    0    0  0.35687192669E+02 -0.29811919212E+02 -0.10425948775E+03  0.11415939310E+03  0.00000000000E+00 0. -1.
        -12    1    4    4    0    0 -0.44602393170E+01  0.13208644813E+02 -0.33029740714E+02  0.35851440755E+02  0.00000000000E+00 0.  1.
</event>
<event>
12    1  0.1597826E-001  0.1990199E+03  0.7818608E-02  0.1151277E+00
         21   -1    0    0  503  502  0.00000000000E+00  0.00000000000E+00  0.21735341946E+03  0.21735341946E+03  0.00000000000E+00 0. -1.
         21   -1    0    0  501  503 -0.00000000000E+00 -0.00000000000E+00 -0.17932126517E+03  0.17932126517E+03  0.00000000000E+00 0.  1.
          6    2    1    2  501    0 -0.85988606837E+02 -0.50385286351E+02  0.23976910804E+02  0.20045903940E+03  0.17226786305E+03 0.  0.
         24    2    3    3    0    0 -0.13591090531E+02 -0.22509208921E+01 -0.42745307017E+02  0.90767372185E+02  0.78878198475E+02 0.  0.
         -6    2    1    2    0  502  0.85988606837E+02  0.50385286351E+02  0.14055243488E+02  0.19621564523E+03  0.16843488943E+03 0.  0.
        -24    2    5    5    0    0  0.75415711626E+02  0.16251401414E+02  0.68446616503E+02  0.13096673971E+03  0.80719947912E+02 0.  0.
          5    1    3    3  501    0 -0.72397516306E+02 -0.48134365459E+02  0.66722217821E+02  0.10969166721E+03  0.47000000000E+01 0. -1.
        -13    1    4    4    0    0  0.67003213537E+01 -0.35639703317E+02 -0.36036474184E+02  0.51124458240E+02  0.00000000000E+00 0.  1.
         14    1    4    4    0    0 -0.20291411885E+02  0.33388782424E+02 -0.67088328333E+01  0.39642913945E+02  0.00000000000E+00 0. -1.
         -5    1    5    5    0  502  0.10572895212E+02  0.34133884937E+02 -0.54391373015E+02  0.65248905528E+02  0.47000000000E+01 0.  1.
         11    1    6    6    0    0  0.12953574464E+01  0.20791518741E+02  0.50415289985E+02  0.54549671555E+02  0.00000000000E+00 0. -1.
        -12    1    6    6    0    0  0.74120354179E+02 -0.45401173272E+01  0.18031326519E+02  0.76417068153E+02  0.00000000000E+00 0.  1.
</event>
<event>
12    1  0.1597826E-001  0.2729404E+03  0.7818608E-02  0.1099753E+00
         21   -1    0    0  501  502  0.00000000000E+00  0.00000000000E+00  0.31535141594E+03  0.31535141594E+03  0.00000000000E+00 0. -1.
         21   -1    0    0  502  503 -0.00000000000E+00 -0.00000000000E+00 -0.29779046468E+03  0.29779046468E+03  0.00000000000E+00 0.  1.
         -6    2    1    2    0  503  0.14329185116E+03  0.15588761676E+03 -0.13161489663E+03  0.30209543179E+03  0.17060382535E+03 0.  0.
        -24    2    3    3    0    0  0.11813480539E+03  0.57242914191E+02 -0.12795212425E+03  0.20011915907E+03  0.80270469387E+02 0.  0.
          6    2    1    2  501    0 -0.14329185116E+03 -0.15588761676E+03  0.14917584789E+03  0.31104644883E+03  0.17222937051E+03 0.  0.
         24    2    5    5    0    0 -0.14389818543E+03 -0.86289508366E+02  0.54092023895E+02  0.19311728399E+03  0.78840163018E+02 0.  0.
          5    1    5    5  501    0  0.60633426389E+00 -0.69598108397E+02  0.95083823996E+02  0.11792916484E+03  0.47000000000E+01 0. -1.
        -11    1    6    6    0    0 -0.93991096555E+02 -0.11212695639E+02  0.35319440125E+02  0.10103224053E+03  0.00000000000E+00 0.  1.
         12    1    6    6    0    0 -0.49907088873E+02 -0.75076812727E+02  0.18772583771E+02  0.92085043468E+02  0.00000000000E+00 0. -1.
         -5    1    3    3    0  503  0.25157045770E+02  0.98644702572E+02 -0.36627723831E+01  0.10197627273E+03  0.47000000000E+01 0.  1.
         11    1    4    4    0    0  0.18416029439E+02 -0.15875771907E+02 -0.32967731388E+01  0.24536890330E+02  0.00000000000E+00 0. -1.
        -12    1    4    4    0    0  0.99718775956E+02  0.73118686099E+02 -0.12465535111E+03  0.17558226874E+03  0.00000000000E+00 0.  1.
</event>
<event>
12    1  0.1597826E-001  0.1878927E+03  0.7818608E-02  0.1160467E+00
         21   -1    0    0  503  502  0.00000000000E+00  0.00000000000E+00  0.76346030771E+02  0.76346030771E+02  0.00000000000E+00 0. -1.
         21   -1    0    0  501  503 -0.00000000000E+00 -0.00000000000E+00 -0.71072121980E+03  0.71072121980E+03  0.00000000000E+00 0.  1.
          6    2    1    2  501    0  0.64612578498E+02  0.35142438718E+02 -0.55047044232E+03  0.58165401446E+03  0.17289854938E+03 0.  0.
         24    2    3    3    0    0 -0.12129858295E+01  0.46505182903E+02 -0.46118217190E+03  0.47004486561E+03  0.78031894963E+02 0.  0.
         -6    2    1    2    0  502 -0.64612578498E+02 -0.35142438718E+02 -0.83904746716E+02  0.20541323611E+03  0.17246685116E+03 0.  0.
        -24    2    5    5    0    0 -0.63624151107E+02 -0.69671713037E+02 -0.10358334943E+02  0.12402274245E+03  0.79825843815E+02 0.  0.
          5    1    3    3  501    0  0.65825564328E+02 -0.11362744185E+02 -0.89288270412E+02  0.11160914885E+03  0.47000000000E+01 0. -1.
        -11    1    4    4    0    0 -0.18940906825E+02  0.62352271099E+02 -0.29084316492E+03  0.29805420689E+03  0.00000000000E+00 0.  1.
         12    1    4    4    0    0  0.17727920995E+02 -0.15847088196E+02 -0.17033900699E+03  0.17199065872E+03  0.00000000000E+00 0. -1.
         -5    1    5    5    0  502 -0.98842739088E+00  0.34529274319E+02 -0.73546411773E+02  0.81390493661E+02  0.47000000000E+01 0.  1.
         11    1    6    6    0    0 -0.49017478506E+02  0.14467828466E+00 -0.18150879025E+02  0.52270340924E+02  0.00000000000E+00 0. -1.
        -12    1    6    6    0    0 -0.14606672601E+02 -0.69816391322E+02  0.77925440822E+01  0.71752401527E+02  0.00000000000E+00 0.  1.
</event>
<event>
12    1  0.1597826E-001  0.2920737E+03  0.7818608E-02  0.1089296E+00
         21   -1    0    0  503  502  0.00000000000E+00  0.00000000000E+00  0.32904174004E+03  0.32904174004E+03  0.00000000000E+00 0. -1.
         21   -1    0    0  501  503 -0.00000000000E+00 -0.00000000000E+00 -0.26713939595E+03  0.26713939595E+03  0.00000000000E+00 0.  1.
          6    2    1    2  501    0  0.20366859340E+03  0.11970412511E+03  0.82695313997E+02  0.30336822236E+03  0.17141700579E+03 0.  0.
         24    2    3    3    0    0  0.21554130285E+03  0.10214596382E+03  0.10470644382E+03  0.27245172040E+03  0.79841401615E+02 0.  0.
         -6    2    1    2    0  502 -0.20366859340E+03 -0.11970412511E+03 -0.20792969909E+02  0.29281291362E+03  0.17174714344E+03 0.  0.
        -24    2    5    5    0    0 -0.62809017935E+02 -0.52696814454E+02  0.43090071455E+02  0.12418749248E+03  0.82727577280E+02 0.  0.
          5    1    3    3  501    0 -0.11872709451E+02  0.17558161289E+02 -0.22011129820E+02  0.30916501961E+02  0.47000000000E+01 0. -1.
        -13    1    4    4    0    0  0.93664251809E+02  0.72106964958E+02  0.17231605437E+02  0.11945432051E+03  0.00000000000E+00 0.  1.
         14    1    4    4    0    0  0.12187705104E+03  0.30038998864E+02  0.87474838380E+02  0.15299739989E+03  0.00000000000E+00 0. -1.
         -5    1    5    5    0  502 -0.14085957547E+03 -0.67007310658E+02 -0.63883041364E+02  0.16862542114E+03  0.47000000000E+01 0.  1.
         13    1    6    6    0    0 -0.82630665734E+02 -0.40523259055E+02  0.27026854002E+02  0.95918779607E+02  0.00000000000E+00 0. -1.
        -14    1    6    6    0    0  0.19821647799E+02 -0.12173555399E+02  0.16063217454E+02  0.28268712872E+02  0.00000000000E+00 0.  1.
</event>
<event>
12    1  0.1597826E-001  0.1829706E+03  0.7818608E-02  0.1165685E+00
         21   -1    0    0  503  502  0.00000000000E+00  0.00000000000E+00  0.95829564909E+02  0.95829564909E+02  0.00000000000E+00 0. -1.
         21   -1    0    0  501  503 -0.00000000000E+00 -0.00000000000E+00 -0.36991026855E+03  0.36991026855E+03  0.00000000000E+00 0. -1.
          6    2    1    2  501    0  0.62122714712E+02 -0.92700401747E+01 -0.75967390252E+02  0.19811434565E+03  0.17185192534E+03 0.  0.
         24    2    3    3    0    0  0.50716155881E+02  0.35433123869E+02  0.10179813539E+02  0.10027819087E+03  0.78258879539E+02 0.  0.
         -6    2    1    2    0  502 -0.62122714712E+02  0.92700401747E+01 -0.19811331339E+03  0.26762548781E+03  0.16861005740E+03 0.  0.
        -24    2    5    5    0    0 -0.82519355902E+02  0.35152462217E+02 -0.81160705973E+02  0.14602809835E+03  0.81804679667E+02 0.  0.
          5    1    3    3  501    0  0.11406558831E+02 -0.44703164044E+02 -0.86147203791E+02  0.97836154773E+02  0.47000000000E+01 0. -1.
        -13    1    4    4    0    0  0.10139051368E+02  0.51407262547E+02  0.19094113317E+02  0.55768200335E+02  0.00000000000E+00 0.  1.
         14    1    4    4    0    0  0.40577104514E+02 -0.15974138679E+02 -0.89142997781E+01  0.44509990539E+02  0.00000000000E+00 0. -1.
         -5    1    5    5    0  502  0.20396641190E+02 -0.25882422042E+02 -0.11695260741E+03  0.12159738946E+03  0.47000000000E+01 0.  1.
         11    1    6    6    0    0 -0.84601516800E+01  0.37833682473E+02 -0.55304529574E+02  0.67539267743E+02  0.00000000000E+00 0. -1.
        -12    1    6    6    0    0 -0.74059204222E+02 -0.26812202559E+01 -0.25856176399E+02  0.78488830607E+02  0.00000000000E+00 0.  1.
</event>
<event>
12    1  0.1597826E-001  0.2046129E+03  0.7818608E-02  0.1146081E+00
         21   -1    0    0  501  502  0.00000000000E+00  0.00000000000E+00  0.61521769291E+02  0.61521769291E+02  0.00000000000E+00 0. -1.
         21   -1    0    0  502  503 -0.00000000000E+00 -0.00000000000E+00 -0.70142185757E+03  0.70142185757E+03  0.00000000000E+00 0.  1.
         -6    2    1    2    0  503 -0.62922161985E+02 -0.89895727831E+02 -0.39082467404E+03  0.44114665557E+03  0.17270207158E+03 0.  0.
        -24    2    3    3    0    0  0.21614603517E+02 -0.73913700102E+02 -0.16173963626E+03  0.19639385279E+03  0.80500989617E+02 0.  0.
          6    2    1    2  501    0  0.62922161985E+02  0.89895727831E+02 -0.24907541424E+03  0.32179697129E+03  0.17168077471E+03 0.  0.
         24    2    5    5    0    0 -0.33779467822E+02  0.42080066396E+02 -0.12769683582E+03  0.15933961694E+03  0.78554740229E+02 0.  0.
          5    1    5    5  501    0  0.96701629807E+02  0.47815661435E+02 -0.12137857842E+03  0.16245735436E+03  0.47000000000E+01 0. -1.
        -13    1    6    6    0    0 -0.27881029910E+00  0.27885444242E+02 -0.11860187858E+03  0.12183628909E+03  0.00000000000E+00 0.  1.
         14    1    6    6    0    0 -0.33500657523E+02  0.14194622154E+02 -0.90949572409E+01  0.37503327849E+02  0.00000000000E+00 0. -1.
         -5    1    3    3    0  503 -0.84536765502E+02 -0.15982027729E+02 -0.22908503778E+03  0.24475280277E+03  0.47000000000E+01 0.  1.
         13    1    4    4    0    0  0.69021440399E+01 -0.69231186786E+01  0.84384618850E+01  0.12914209367E+02  0.00000000000E+00 0. -1.
        -14    1    4    4    0    0  0.14712459477E+02 -0.66990581423E+02 -0.17017809815E+03  0.18347964343E+03  0.00000000000E+00 0.  1.
</event>
<event>
12    1  0.1597826E-001  0.2085103E+03  0.7818608E-02  0.1142810E+00
         21   -1    0    0  501  502  0.00000000000E+00  0.00000000000E+00  0.17072940879E+04  0.17072940879E+04  0.00000000000E+00 0.  1.
         21   -1    0    0  502  503 -0.00000000000E+00 -0.00000000000E+00 -0.64208831352E+02  0.64208831352E+02  0.00000000000E+00 0.  1.
         -6    2    1    2    0  503 -0.10557625730E+03 -0.49479202239E+02  0.13294845953E+03  0.24703918422E+03  0.17250660303E+03 0.  0.
        -24    2    3    3    0    0 -0.74620126667E+02 -0.76731928424E+02  0.15101872123E+03  0.20176648311E+03  0.80293881463E+02 0.  0.
          6    2    1    2  501    0  0.10557625730E+03  0.49479202239E+02  0.15101367970E+04  0.15244637350E+04  0.17286409737E+03 0.  0.
         24    2    5    5    0    0  0.73390985226E+02 -0.19239454034E+02  0.52296296435E+03  0.53436656235E+03  0.79378634195E+02 0.  0.
          5    1    5    5  501    0  0.32185272075E+02  0.68718656273E+02  0.98717383262E+03  0.99009717263E+03  0.47000000000E+01 0. -1.
        -11    1    6    6    0    0  0.34357597166E+02  0.20712222491E+02  0.10024611842E+03  0.10797557549E+03  0.00000000000E+00 0.  1.
         12    1    6    6    0    0  0.39033388060E+02 -0.39951676525E+02  0.42271684593E+03  0.42639098686E+03  0.00000000000E+00 0. -1.
         -5    1    3    3    0  503 -0.30956130634E+02  0.27252726185E+02 -0.18070261697E+02  0.45272701114E+02  0.47000000000E+01 0.  1.
         13    1    4    4    0    0 -0.16364551215E+02 -0.64309312545E+02  0.45055724829E+02  0.80209130131E+02  0.00000000000E+00 0. -1.
        -14    1    4    4    0    0 -0.58255575452E+02 -0.12422615879E+02  0.10596299640E+03  0.12155735298E+03  0.00000000000E+00 0.  1.
</event>
<event>
12    1  0.1597826E-001  0.2830404E+03  0.7818608E-02  0.1094257E+00
         21   -1    0    0  501  502  0.00000000000E+00  0.00000000000E+00  0.22726641539E+03  0.22726641539E+03  0.00000000000E+00 0. -1.
         21   -1    0    0  502  503 -0.00000000000E+00 -0.00000000000E+00 -0.35531752774E+03  0.35531752774E+03  0.00000000000E+00 0.  1.
         -6    2    1    2    0  503  0.10094548341E+03  0.19990587584E+03 -0.97759459022E+02  0.29792725530E+03  0.17044467668E+03 0.  0.
        -24    2    3    3    0    0  0.93568759627E+02  0.15088640061E+03 -0.13413322218E+03  0.23626311944E+03  0.79414870436E+02 0.  0.
          6    2    1    2  501    0 -0.10094548341E+03 -0.19990587584E+03 -0.30291653329E+02  0.28465668782E+03  0.17308811584E+03 0.  0.
         24    2    5    5    0    0 -0.84310851026E+02 -0.14027092172E+03 -0.85773119528E+02  0.20139011687E+03  0.80104307357E+02 0.  0.
          5    1    5    5  501    0 -0.16634632381E+02 -0.59634954119E+02  0.55481466199E+02  0.83266570956E+02  0.47000000000E+01 0. -1.
        -11    1    6    6    0    0  0.69089671130E+01 -0.91562444906E+00  0.77096109137E+01  0.10392800159E+02  0.00000000000E+00 0.  1.
         12    1    6    6    0    0 -0.91219818139E+02 -0.13935529727E+03 -0.93482730442E+02  0.19099731671E+03  0.00000000000E+00 0. -1.
         -5    1    3    3    0  503  0.73767237802E+01  0.49019475226E+02  0.36373763162E+02  0.61664135863E+02  0.47000000000E+01 0.  1.
         11    1    4    4    0    0  0.51900155529E+02  0.25870540788E+02 -0.18289033654E+02  0.60806247841E+02  0.00000000000E+00 0. -1.
        -12    1    4    4    0    0  0.41668604098E+02  0.12501585982E+03 -0.11584418853E+03  0.17545687160E+03  0.00000000000E+00 0.  1.
</event>
<event>
12    1  0.1597826E-001  0.2481929E+03  0.7818608E-02  0.1114513E+00
         21   -1    0    0  503  502  0.00000000000E+00  0.00000000000E+00  0.10393582766E+03  0.10393582766E+03  0.00000000000E+00 0. -1.
         21   -1    0    0  501  503 -0.00000000000E+00 -0.00000000000E+00 -0.87027323901E+03  0.87027323901E+03  0.00000000000E+00 0.  1.
          6    2    1    2  501    0 -0.15261057464E+02 -0.17792902836E+03 -0.65852885387E+03  0.70361268632E+03  0.17181071548E+03 0.  0.
         24    2    3    3    0    0 -0.18059891035E+01 -0.16714362866E+03 -0.40479526783E+03  0.44925037307E+03  0.10013208604E+03 0.  0.
         -6    2    1    2    0  502  0.15261057464E+02  0.17792902836E+03 -0.10780855747E+03  0.27059638035E+03  0.17236031152E+03 0.  0.
        -24    2    5    5    0    0  0.18705839940E+02  0.10540425862E+02 -0.77293387626E+02  0.10034927652E+03  0.60288477355E+02 0.  0.
          5    1    3    3  501    0 -0.13455068360E+02 -0.10785399707E+02 -0.25373358605E+03  0.25436231324E+03  0.47000000000E+01 0. -1.
        -13    1    4    4    0    0 -0.49860639727E+02 -0.90347749253E+02 -0.23882734794E+03  0.26016783297E+03  0.00000000000E+00 0.  1.
         14    1    4    4    0    0  0.48054650623E+02 -0.76795879402E+02 -0.16596791989E+03  0.18908254010E+03  0.00000000000E+00 0. -1.
         -5    1    5    5    0  502 -0.34447824764E+01  0.16738860250E+03 -0.30515169845E+02  0.17024710383E+03  0.47000000000E+01 0.  1.
         13    1    6    6    0    0 -0.12413184654E+02 -0.67198031641E+01  0.11999494490E+01  0.14166255204E+02  0.00000000000E+00 0. -1.
        -14    1    6    6    0    0  0.31119024594E+02  0.17260229026E+02 -0.78493337075E+02  0.86183021315E+02  0.00000000000E+00 0.  1.
</event>
<event>
12    1  0.1597826E-001  0.1949280E+03  0.7818608E-02  0.1154358E+00
         21   -1    0    0  503  502  0.00000000000E+00  0.00000000000E+00  0.42383623209E+03  0.42383623209E+03  0.00000000000E+00 0.  1.
         21   -1    0    0  501  503 -0.00000000000E+00 -0.00000000000E+00 -0.15281206970E+03  0.15281206970E+03  0.00000000000E+00 0.  1.
          6    2    1    2  501    0  0.77295524387E+02  0.51759165420E+02 -0.50926753497E+02  0.20028502976E+03  0.16990276521E+03 0.  0.
         24    2    3    3    0    0  0.58014285960E+02  0.93753300258E+02 -0.59871202706E+01  0.13565582467E+03  0.78811918339E+02 0.  0.
         -6    2    1    2    0  502 -0.77295524387E+02 -0.51759165420E+02  0.32195091588E+03  0.37636327204E+03  0.17129889377E+03 0.  0.
        -24    2    5    5    0    0 -0.43788844523E+02  0.13696625664E+02  0.27352147527E+03  0.28818924582E+03  0.78319751731E+02 0.  0.
          5    1    3    3  501    0  0.19281238427E+02 -0.41994134838E+02 -0.44939633226E+02  0.64629205090E+02  0.47000000000E+01 0. -1.
        -13    1    4    4    0    0  0.58045229851E+02  0.86484588213E+02 -0.31748241034E+02  0.10888885855E+03  0.00000000000E+00 0.  1.
         14    1    4    4    0    0 -0.30943891034E-01  0.72687120443E+01  0.25761120763E+02  0.26766966120E+02  0.00000000000E+00 0. -1.
         -5    1    5    5    0  502 -0.33506679864E+02 -0.65455791084E+02  0.48429440610E+02  0.88174026220E+02  0.47000000000E+01 0.  1.
         13    1    6    6    0    0 -0.29360058877E+02 -0.28689960162E+02  0.17832050920E+03  0.18298450993E+03  0.00000000000E+00 0. -1.
        -14    1    6    6    0    0 -0.14428785646E+02  0.42386585826E+02  0.95200966070E+02  0.10520473589E+03  0.00000000000E+00 0.  1.
</event>
<event>
12    1  0.1597826E-001  0.1910704E+03  0.7818608E-02  0.1158433E+00
         21   -1    0    0  501  502  0.00000000000E+00  0.00000000000E+00  0.91457594222E+03  0.91457594222E+03  0.00000000000E+00 0.  1.
         21   -1    0    0  502  503 -0.00000000000E+00 -0.00000000000E+00 -0.48339602791E+02  0.48339602791E+02  0.00000000000E+00 0. -1.
         -6    2    1    2    0  503  0.73048462000E+02 -0.38370220068E+02  0.22601112572E+03  0.29595429144E+03  0.17233560887E+03 0.  0.
        -24    2    3    3    0    0  0.34208934491E+02  0.30522870805E+02  0.50147823637E+02  0.10306894237E+03  0.77501650461E+02 0.  0.
          6    2    1    2  501    0 -0.73048462000E+02  0.38370220068E+02  0.64022521371E+03  0.66696125357E+03  0.16775171506E+03 0.  0.
         24    2    5    5    0    0 -0.25552445264E+02  0.29214834446E+02  0.15058714629E+03  0.17491733301E+03  0.80082150006E+02 0.  0.
          5    1    5    5  501    0 -0.47496016736E+02  0.91553856215E+01  0.48963806742E+03  0.49204392056E+03  0.47000000000E+01 0. -1.
        -13    1    6    6    0    0 -0.25699986710E+02  0.48031089363E+02  0.14559113295E+03  0.15544855372E+03  0.00000000000E+00 0.  1.
         14    1    6    6    0    0  0.14754144593E+00 -0.18816254917E+02  0.49960133412E+01  0.19468779286E+02  0.00000000000E+00 0. -1.
         -5    1    3    3    0  503  0.38839527509E+02 -0.68893090873E+02  0.17586330208E+03  0.19288534907E+03  0.47000000000E+01 0.  1.
         11    1    4    4    0    0  0.26923792690E+02  0.30463546062E+02  0.70538303278E+02  0.81416033316E+02  0.00000000000E+00 0. -1.
        -12    1    4    4    0    0  0.72851418005E+01  0.59324742920E-01 -0.20390479640E+02  0.21652909053E+02  0.00000000000E+00 0.  1.
</event>
<event>
12    1  0.1597826E-001  0.1819902E+03  0.7818608E-02  0.1166303E+00
         21   -1    0    0  501  502  0.00000000000E+00  0.00000000000E+00  0.23148671015E+03  0.23148671015E+03  0.00000000000E+00 0.  1.
         21   -1    0    0  502  503 -0.00000000000E+00 -0.00000000000E+00 -0.14256752298E+03  0.14256752298E+03  0.00000000000E+00 0.  1.
         -6    2    1    2    0  503  0.46703819228E+02  0.32089113015E+02  0.30316797853E+02  0.18449804927E+03  0.17294352849E+03 0.  0.
        -24    2    3    3    0    0 -0.18676311004E+02 -0.32553887021E+02  0.17565893671E+02  0.91557452971E+02  0.81643410151E+02 0.  0.
          6    2    1    2  501    0 -0.46703819228E+02 -0.32089113015E+02  0.58602389321E+02  0.18955618386E+03  0.17113254775E+03 0.  0.
         24    2    5    5    0    0 -0.78150814057E+02  0.14246606562E+02  0.67341755192E+01  0.11308191370E+03  0.80197596912E+02 0.  0.
          5    1    5    5  501    0  0.31446994829E+02 -0.46335719578E+02  0.51868213801E+02  0.76474270153E+02  0.47000000000E+01 0. -1.
        -13    1    6    6    0    0 -0.61988764586E+02 -0.26908772844E+02 -0.36073584408E+01  0.67673495741E+02  0.00000000000E+00 0.  1.
         14    1    6    6    0    0 -0.16162049470E+02  0.41155379406E+02  0.10341533960E+02  0.45408417962E+02  0.00000000000E+00 0. -1.
         -5    1    3    3    0  503  0.65380130232E+02  0.64643000037E+02  0.12750904183E+02  0.92940596299E+02  0.47000000000E+01 0.  1.
         11    1    4    4    0    0 -0.46939166121E+02 -0.13163606358E+02  0.27370089510E+02  0.55907849613E+02  0.00000000000E+00 0. -1.
        -12    1    4    4    0    0  0.28262855117E+02 -0.19390280663E+02 -0.98041958393E+01  0.35649603358E+02  0.00000000000E+00 0.  1.
</event>
<event>
12    1  0.1597826E-001  0.2139450E+03  0.7818608E-02  0.1139133E+00
         21   -1    0    0  501  502  0.00000000000E+00  0.00000000000E+00  0.45782767979E+03  0.45782767979E+03  0.00000000000E+00 0.  1.
         21   -1    0    0  502  503 -0.00000000000E+00 -0.00000000000E+00 -0.10608050524E+03  0.10608050524E+03  0.00000000000E+00 0.  1.
         -6    2    1    2    0  503 -0.35946039143E+02 -0.11596464135E+03  0.25037128077E+03  0.32716037463E+03  0.17207038303E+03 0.  0.
        -24    2    3    3    0    0  0.34001624897E+02 -0.75577043277E+02  0.80334423280E+02  0.13885621459E+03  0.77197336736E+02 0.  0.
          6    2    1    2  501    0  0.35946039143E+02  0.11596464135E+03  0.10137589377E+03  0.23674781040E+03  0.17616054643E+03 0.  0.
         24    2    5    5    0    0  0.26864196782E+02  0.10032700726E+03 -0.45153005009E+01  0.12922083478E+03  0.76749219865E+02 0.  0.
          5    1    5    5  501    0  0.90818423603E+01  0.15637634092E+02  0.10589119427E+03  0.10752697562E+03  0.47000000000E+01 0. -1.
        -11    1    6    6    0    0  0.36943793083E+02  0.62480529469E+02  0.28515836661E+02  0.77985981757E+02  0.00000000000E+00 0.  1.
         12    1    6    6    0    0 -0.10079596300E+02  0.37846477787E+02 -0.33031137162E+02  0.51234853027E+02  0.00000000000E+00 0. -1.
         -5    1    3    3    0  503 -0.69947664039E+02 -0.40387598071E+02  0.17003685749E+03  0.18830416004E+03  0.47000000000E+01 0.  1.
         13    1    4    4    0    0  0.27500784159E+02 -0.64236315840E+01  0.60269211960E+02  0.66557749979E+02  0.00000000000E+00 0. -1.
        -14    1    4    4    0    0  0.65008407380E+01 -0.69153411693E+02  0.20065211321E+02  0.72298464606E+02  0.00000000000E+00 0.  1.
</event>
<event>
12    1  0.1597826E-001  0.1959197E+03  0.7818608E-02  0.1154320E+00
         21   -1    0    0  501  502  0.00000000000E+00  0.00000000000E+00  0.78172355789E+03  0.78172355789E+03  0.00000000000E+00 0. -1.
         21   -1    0    0  502  503 -0.00000000000E+00 -0.00000000000E+00 -0.67573954667E+02  0.67573954667E+02  0.00000000000E+00 0. -1.
         -6    2    1    2    0  503  0.83856634708E+02  0.42089195938E+02  0.13099937864E+03  0.23568062829E+03  0.17199152814E+03 0.  0.
        -24    2    3    3    0    0  0.64505206986E+02 -0.37775700744E+02  0.51566267781E+02  0.12129274180E+03  0.80404750759E+02 0.  0.
          6    2    1    2  501    0 -0.83856634708E+02 -0.42089195938E+02  0.58315022459E+03  0.61361688426E+03  0.16630712738E+03 0.  0.
         24    2    5    5    0    0 -0.10389263963E+03 -0.66356303337E+02  0.37457614706E+03  0.40262975241E+03  0.81280920343E+02 0.  0.
          5    1    5    5  501    0  0.20036004923E+02  0.24267107399E+02  0.20857407752E+03  0.21098713186E+03  0.47000000000E+01 0. -1.
        -11    1    6    6    0    0 -0.54620118701E+02  0.43071696413E+01  0.90638107415E+02  0.10591116841E+03  0.00000000000E+00 0.  1.
         12    1    6    6    0    0 -0.49272520930E+02 -0.70663472979E+02  0.28393803965E+03  0.29671858400E+03  0.00000000000E+00 0. -1.
         -5    1    3    3    0  503  0.19351427722E+02  0.79864896683E+02  0.79433110855E+02  0.11438788650E+03  0.47000000000E+01 0.  1.
         11    1    4    4    0    0  0.17987411737E+02 -0.15632968413E+02 -0.21360858590E+02  0.32003483593E+02  0.00000000000E+00 0. -1.
        -12    1    4    4    0    0  0.46517795249E+02 -0.22142732332E+02  0.72927126371E+02  0.89289258204E+02  0.00000000000E+00 0.  1.
</event>
<event>
12    1  0.1597826E-001  0.2481010E+03  0.7818608E-02  0.1114698E+00
         21   -1    0    0  503  502  0.00000000000E+00  0.00000000000E+00  0.79255890540E+03  0.79255890540E+03  0.00000000000E+00 0.  1.
         21   -1    0    0  501  503 -0.00000000000E+00 -0.00000000000E+00 -0.88416190629E+02  0.88416190629E+02  0.00000000000E+00 0. -1.
          6    2    1    2  501    0  0.14608370495E+03  0.10132262476E+03  0.19660893192E+03  0.31655830116E+03  0.17305306349E+03 0.  0.
         24    2    3    3    0    0  0.20904428078E+02  0.80277654256E+02  0.12464408535E+03  0.17056593396E+03  0.81701241893E+02 0.  0.
         -6    2    1    2    0  502 -0.14608370495E+03 -0.10132262476E+03  0.50753378285E+03  0.56441679487E+03  0.17137401920E+03 0.  0.
        -24    2    5    5    0    0 -0.34286241374E+02 -0.13958503388E+02  0.89350090509E+02  0.12279381867E+03  0.75660406195E+02 0.  0.
          5    1    3    3  501    0  0.12517927687E+03  0.21044970501E+02  0.71964846568E+02  0.14599236721E+03  0.47000000000E+01 0. -1.
        -13    1    4    4    0    0  0.36821908300E+02  0.27902278476E+02  0.10075019267E+03  0.11083768040E+03  0.00000000000E+00 0.  1.
         14    1    4    4    0    0 -0.15917480222E+02  0.52375375780E+02  0.23893892688E+02  0.59728253553E+02  0.00000000000E+00 0. -1.
         -5    1    5    5    0  502 -0.11179746357E+03 -0.87364121369E+02  0.41818369234E+03  0.44162297620E+03  0.47000000000E+01 0.  1.
         11    1    6    6    0    0 -0.49970340240E+02  0.14039755151E+02  0.50709739932E+02  0.72564642577E+02  0.00000000000E+00 0. -1.
        -12    1    6    6    0    0  0.15684098866E+02 -0.27998258539E+02  0.38640350576E+02  0.50229176094E+02  0.00000000000E+00 0.  1.
</event>
<event>
12    1  0.1597826E-001  0.2165215E+03  0.7818608E-02  0.1137785E+00
         21   -1    0    0  503  502  0.00000000000E+00  0.00000000000E+00  0.16407979879E+04  0.16407979879E+04  0.00000000000E+00 0.  1.
         21   -1    0    0  501  503 -0.00000000000E+00 -0.00000000000E+00 -0.47413262411E+02  0.47413262411E+02  0.00000000000E+00 0. -1.
          6    2    1    2  501    0  0.12895320080E+03 -0.31307146643E+02  0.24528487595E+03  0.32283410158E+03  0.16262878388E+03 0.  0.
         24    2    3    3    0    0  0.69967617445E+01 -0.30953350694E+02  0.12498074328E+03  0.15146119668E+03  0.79455920567E+02 0.  0.
         -6    2    1    2    0  502 -0.12895320080E+03  0.31307146643E+02  0.13480998495E+04  0.13653771487E+04  0.17109204690E+03 0.  0.
        -24    2    5    5    0    0 -0.14436283514E+03 -0.14649053886E+02  0.98320699236E+03  0.99724902372E+03  0.82185172302E+02 0.  0.
          5    1    3    3  501    0  0.12195643906E+03 -0.35379594896E+00  0.12030413266E+03  0.17137290490E+03  0.47000000000E+01 0. -1.
        -11    1    4    4    0    0  0.19669557357E+02 -0.40602522546E+02  0.12758008515E+03  0.13532233537E+03  0.00000000000E+00 0.  1.
         12    1    4    4    0    0 -0.12672795612E+02  0.96491718525E+01 -0.25993418673E+01  0.16138861305E+02  0.00000000000E+00 0. -1.
         -5    1    5    5    0  502  0.15409634335E+02  0.45956200529E+02  0.36489285716E+03  0.36812812498E+03  0.47000000000E+01 0.  1.
         13    1    6    6    0    0 -0.87811939077E+02 -0.49007402198E+02  0.60225630406E+03  0.61059423342E+03  0.00000000000E+00 0. -1.
        -14    1    6    6    0    0 -0.56550896058E+02  0.34358348312E+02  0.38095068830E+03  0.38665479030E+03  0.00000000000E+00 0.  1.
</event>
<event>
12    1  0.1597826E-001  0.1879451E+03  0.7818608E-02  0.1160827E+00
         21   -1    0    0  503  502  0.00000000000E+00  0.00000000000E+00  0.27286480127E+03  0.27286480127E+03  0.00000000000E+00 0.  1.
         21   -1    0    0  501  503 -0.00000000000E+00 -0.00000000000E+00 -0.34601999259E+03  0.34601999259E+03  0.00000000000E+00 0.  1.
          6    2    1    2  501    0  0.36062332205E+02 -0.64419816456E+02 -0.28214516003E+03  0.33781509795E+03  0.17047798838E+03 0.  0.
         24    2    3    3    0    0  0.45365000649E+02  0.24965785068E+02 -0.16024026092E+03  0.18629209697E+03  0.79665114492E+02 0.  0.
         -6    2    1    2    0  502 -0.36062332205E+02  0.64419816456E+02  0.20898996871E+03  0.28106969591E+03  0.17283796568E+03 0.  0.
        -24    2    5    5    0    0  0.27844526570E+02  0.85180621995E+02  0.10823716938E+03  0.15987434032E+03  0.76246074209E+02 0.  0.
          5    1    3    3  501    0 -0.93026684448E+01 -0.89385601524E+02 -0.12190489911E+03  0.15152300098E+03  0.47000000000E+01 0. -1.
        -11    1    4    4    0    0  0.26699415289E+02 -0.22912992685E+02 -0.10549211121E+03  0.11120453920E+03  0.00000000000E+00 0.  1.
         12    1    4    4    0    0  0.18665585360E+02  0.47878777754E+02 -0.54748149708E+02  0.75087557774E+02  0.00000000000E+00 0. -1.
         -5    1    5    5    0  502 -0.63906858774E+02 -0.20760805539E+02  0.10075279932E+03  0.12119535559E+03  0.47000000000E+01 0.  1.
         13    1    6    6    0    0 -0.13245109328E+02  0.17831231885E+02 -0.41136003599E+01  0.22589985825E+02  0.00000000000E+00 0. -1.
        -14    1    6    6    0    0  0.41089635898E+02  0.67349390110E+02  0.11235076974E+03  0.13728435449E+03  0.00000000000E+00 0.  1.
</event>
<event>
12    1  0.1597826E-001  0.1799689E+03  0.7818608E-02  0.1168185E+00
         21   -1    0    0  501  502  0.00000000000E+00  0.00000000000E+00  0.14087048085E+03  0.14087048085E+03  0.00000000000E+00 0. -1.
         21   -1    0    0  502  503 -0.00000000000E+00 -0.00000000000E+00 -0.38484234456E+03  0.38484234456E+03  0.00000000000E+00 0. -1.
         -6    2    1    2    0  503 -0.16416575937E+02 -0.42565543002E+02 -0.29004315772E+03  0.34134124253E+03  0.17409043940E+03 0.  0.
        -24    2    3    3    0    0 -0.18749665272E+02 -0.78261100229E+01 -0.29349448917E+03  0.30603864775E+03  0.84308011463E+02 0.  0.
          6    2    1    2  501    0  0.16416575937E+02  0.42565543002E+02  0.46071294009E+02  0.18437158289E+03  0.17259486385E+03 0.  0.
         24    2    5    5    0    0  0.36022389136E+02  0.77664711331E+02  0.70379209237E+02  0.13715607409E+03  0.80803067150E+02 0.  0.
          5    1    5    5  501    0 -0.19605813199E+02 -0.35099168328E+02 -0.24307915228E+02  0.47215508800E+02  0.47000000000E+01 0. -1.
        -11    1    6    6    0    0  0.63278264034E+01 -0.67719863353E+01 -0.12236380493E+02  0.15350250600E+02  0.00000000000E+00 0.  1.
         12    1    6    6    0    0  0.29694562732E+02  0.84436697666E+02  0.82615589731E+02  0.12180582349E+03  0.00000000000E+00 0. -1.
         -5    1    3    3    0  503  0.23330893353E+01 -0.34739432979E+02  0.34513314415E+01  0.35302594781E+02  0.47000000000E+01 0.  1.
         11    1    4    4    0    0  0.31067333448E+02 -0.17948403932E+02 -0.11948055662E+03  0.12475146421E+03  0.00000000000E+00 0. -1.
        -12    1    4    4    0    0 -0.49816998720E+02  0.10122293909E+02 -0.17401393255E+03  0.18128718354E+03  0.00000000000E+00 0.  1.
</event>
<event>
12    1  0.1597826E-001  0.2159967E+03  0.7818608E-02  0.1136948E+00
         21   -1    0    0  503  502  0.00000000000E+00  0.00000000000E+00  0.16969491472E+03  0.16969491472E+03  0.00000000000E+00 0.  1.
         21   -1    0    0  501  503 -0.00000000000E+00 -0.00000000000E+00 -0.10438703607E+04  0.10438703607E+04  0.00000000000E+00 0. -1.
          6    2    1    2  501    0  0.88075332462E+01  0.13054191218E+03 -0.95790789584E+03  0.98190665655E+03  0.17156451203E+03 0.  0.
         24    2    3    3    0    0 -0.41722702669E+01  0.11713145170E+03 -0.95113840384E+03  0.96150489752E+03  0.78039860911E+02 0.  0.
         -6    2    1    2    0  502 -0.88075332462E+01 -0.13054191218E+03  0.83732449815E+02  0.23165861891E+03  0.17185991122E+03 0.  0.
        -24    2    5    5    0    0 -0.70903636963E+02 -0.68682493929E+02  0.23593746854E+02  0.12525717476E+03  0.73403570969E+02 0.  0.
          5    1    3    3  501    0  0.12979803513E+02  0.13410460478E+02 -0.67694920046E+01  0.20401759029E+02  0.47000000000E+01 0. -1.
        -13    1    4    4    0    0 -0.66545846763E+00  0.23113209052E+02 -0.50621397052E+03  0.50674179541E+03  0.00000000000E+00 0.  1.
         14    1    4    4    0    0 -0.35068117993E+01  0.94018242647E+02 -0.44492443332E+03  0.45476310212E+03  0.00000000000E+00 0. -1.
         -5    1    5    5    0  502  0.62096103717E+02 -0.61859418248E+02  0.60138702961E+02  0.10640144415E+03  0.47000000000E+01 0.  1.
         13    1    6    6    0    0 -0.73783725639E+02 -0.79079772108E+02  0.30590126184E+02  0.11239841790E+03  0.00000000000E+00 0. -1.
        -14    1    6    6    0    0  0.28800886762E+01  0.10397278178E+02 -0.69963793299E+01  0.12858756862E+02  0.00000000000E+00 0.  1.
</event>
<event>
12    1  0.1597826E-001  0.2372499E+03  0.7818608E-02  0.1122310E+00
         21   -1    0    0  501  502  0.00000000000E+00  0.00000000000E+00  0.54418345300E+03  0.54418345300E+03  0.00000000000E+00 0. -1.
         21   -1    0    0  502  503 -0.00000000000E+00 -0.00000000000E+00 -0.14271097474E+03  0.14271097474E+03  0.00000000000E+00 0. -1.
         -6    2    1    2    0  503 -0.82068767763E+02 -0.13529594433E+03  0.17883269213E+02  0.23792290491E+03  0.17676883823E+03 0.  0.
        -24    2    3    3    0    0 -0.47752286543E+02  0.38653646517E+01  0.13130224621E+01  0.93561712485E+02  0.80354515127E+02 0.  0.
          6    2    1    2  501    0  0.82068767763E+02  0.13529594433E+03  0.38358920905E+03  0.44897152284E+03  0.17144816074E+03 0.  0.
         24    2    5    5    0    0  0.59473473513E+02  0.72069175709E+02  0.98377698519E+02  0.15592567773E+03  0.76834792058E+02 0.  0.
          5    1    5    5  501    0  0.22595294249E+02  0.63226768617E+02  0.28521151053E+03  0.29304584511E+03  0.47000000000E+01 0. -1.
        -11    1    6    6    0    0  0.24587242517E+02 -0.10229117926E+02  0.58339044067E+01  0.27261727546E+02  0.00000000000E+00 0.  1.
         12    1    6    6    0    0  0.34886230996E+02  0.82298293636E+02  0.92543794112E+02  0.12866395018E+03  0.00000000000E+00 0. -1.
         -5    1    3    3    0  503 -0.34316481220E+02 -0.13916130898E+03  0.16570246751E+02  0.14436119242E+03  0.47000000000E+01 0.  1.
         11    1    4    4    0    0 -0.55330741940E+02 -0.25150839575E+02  0.11563009179E+02  0.61868884880E+02  0.00000000000E+00 0. -1.
        -12    1    4    4    0    0  0.75784553972E+01  0.29016204227E+02 -0.10249986717E+02  0.31692827606E+02  0.00000000000E+00 0.  1.
</event>
<event>
12    1  0.1597826E-001  0.2154421E+03  0.7818608E-02  0.1138336E+00
         21   -1    0    0  501  502  0.00000000000E+00  0.00000000000E+00  0.25454470951E+03  0.25454470951E+03  0.00000000000E+00 0.  1.
         21   -1    0    0  502  503 -0.00000000000E+00 -0.00000000000E+00 -0.18313421992E+03  0.18313421992E+03  0.00000000000E+00 0.  1.
         -6    2    1    2    0  503  0.10764984274E+03  0.59236267945E+02  0.72860500814E+02  0.22742896858E+03  0.17696852571E+03 0.  0.
        -24    2    3    3    0    0  0.14386528343E+03  0.30248144572E+02  0.46657044128E+02  0.17394457288E+03  0.80421792096E+02 0.  0.
          6    2    1    2  501    0 -0.10764984274E+03 -0.59236267945E+02 -0.14500112184E+01  0.21024996084E+03  0.17060339803E+03 0.  0.
         24    2    5    5    0    0 -0.11851119413E+03 -0.91332276990E+02  0.16688618982E+02  0.17153016414E+03  0.82204618201E+02 0.  0.
          5    1    5    5  501    0  0.10861351394E+02  0.32096009045E+02 -0.18138630200E+02  0.38719796697E+02  0.47000000000E+01 0. -1.
        -13    1    6    6    0    0 -0.57749015194E+02 -0.38425904529E+02 -0.33060445924E+02  0.76840692211E+02  0.00000000000E+00 0.  1.
         14    1    6    6    0    0 -0.60762178937E+02 -0.52906372461E+02  0.49749064906E+02  0.94689471934E+02  0.00000000000E+00 0. -1.
         -5    1    3    3    0  503 -0.36215440689E+02  0.28988123373E+02  0.26203456686E+02  0.53484395699E+02  0.47000000000E+01 0.  1.
         13    1    4    4    0    0  0.40820104128E+02 -0.26107282283E+02  0.24969641669E+02  0.54510128364E+02  0.00000000000E+00 0. -1.
        -14    1    4    4    0    0  0.10304517930E+03  0.56355426855E+02  0.21687402459E+02  0.11943444452E+03  0.00000000000E+00 0.  1.
</event>
<event>
12    1  0.1597826E-001  0.1981339E+03  0.7818608E-02  0.1154708E+00
         21   -1    0    0  501  502  0.00000000000E+00  0.00000000000E+00  0.14313546162E+03  0.14313546162E+03  0.00000000000E+00 0. -1.
         21   -1    0    0  502  503 -0.00000000000E+00 -0.00000000000E+00 -0.25544355093E+03  0.25544355093E+03  0.00000000000E+00 0. -1.
         -6    2    1    2    0  503  0.52235467813E+02 -0.84085648690E+02 -0.75111293670E+02  0.21189325944E+03  0.17163364049E+03 0.  0.
        -24    2    3    3    0    0 -0.53262724210E+01 -0.83343828006E+02  0.22023318860E+01  0.11538734805E+03  0.79591626318E+02 0.  0.
          6    2    1    2  501    0 -0.52235467813E+02  0.84085648690E+02 -0.37196795637E+02  0.18668575311E+03  0.15384741920E+03 0.  0.
         24    2    5    5    0    0 -0.12713003950E+02  0.10503020997E+03 -0.68480295838E+01  0.13242861166E+03  0.79356639300E+02 0.  0.
          5    1    5    5  501    0 -0.39522463863E+02 -0.20944561282E+02 -0.30348766053E+02  0.54257141447E+02  0.47000000000E+01 0. -1.
        -13    1    6    6    0    0 -0.17163793041E+02  0.87432291872E+01  0.24412167449E+02  0.31096523403E+02  0.00000000000E+00 0.  1.
         14    1    6    6    0    0  0.44507890912E+01  0.96286980785E+02 -0.31260197033E+02  0.10133208826E+03  0.00000000000E+00 0. -1.
         -5    1    3    3    0  503  0.57561740234E+02 -0.74182068415E+00 -0.77313625556E+02  0.96505911390E+02  0.47000000000E+01 0.  1.
         13    1    4    4    0    0  0.30203575983E+00  0.97242274835E+01  0.18342175398E+02  0.20762640104E+02  0.00000000000E+00 0. -1.
        -14    1    4    4    0    0 -0.56283081808E+01 -0.93068055490E+02 -0.16139843512E+02  0.94624707948E+02  0.00000000000E+00 0.  1.
</event>
<event>
12    1  0.1597826E-001  0.8029540E+03  0.7818608E-02  0.9556130E-01
         21   -1    0    0  503  502  0.00000000000E+00  0.00000000000E+00  0.72490032850E+03  0.72490032850E+03  0.00000000000E+00 0.  1.
         21   -1    0    0  501  503 -0.00000000000E+00 -0.00000000000E+00 -0.11156708145E+04  0.11156708145E+04  0.00000000000E+00 0. -1.
          6    2    1    2  501    0  0.73550471160E+03 -0.26979213031E+03 -0.61078463160E+03  0.10080199931E+04  0.17114749762E+03 0.  0.
         24    2    3    3    0    0  0.54799974489E+03 -0.14088900739E+03 -0.46170589656E+03  0.73595256235E+03  0.91106565633E+02 0.  0.
         -6    2    1    2    0  502 -0.73550471160E+03  0.26979213031E+03  0.22001414562E+03  0.83255114988E+03  0.17601198405E+03 0.  0.
        -24    2    5    5    0    0 -0.15434079004E+03  0.58289168585E+02  0.32918431819E+02  0.18639954022E+03  0.80264928808E+02 0.  0.
          5    1    3    3  501    0  0.18750496671E+03 -0.12890312292E+03 -0.14907873504E+03  0.27206743076E+03  0.47000000000E+01 0. -1.
        -11    1    4    4    0    0  0.14368411419E+03 -0.79316873593E+02 -0.13035595482E+03  0.20959238074E+03  0.00000000000E+00 0.  1.
         12    1    4    4    0    0  0.40431563070E+03 -0.61572133795E+02 -0.33134994175E+03  0.52636018161E+03  0.00000000000E+00 0. -1.
         -5    1    5    5    0  502 -0.58116392156E+03  0.21150296172E+03  0.18709571380E+03  0.64615160966E+03  0.47000000000E+01 0.  1.
         11    1    6    6    0    0 -0.88684094194E+02  0.25369421181E+02  0.57797119293E+02  0.10885303438E+03  0.00000000000E+00 0. -1.
        -12    1    6    6    0    0 -0.65656695845E+02  0.32919747404E+02 -0.24878687473E+02  0.77546505845E+02  0.00000000000E+00 0.  1.
</event>
<event>
12    1  0.1597826E-001  0.1814379E+03  0.7818608E-02  0.1166555E+00
         21   -1    0    0  503  502  0.00000000000E+00  0.00000000000E+00  0.70349697771E+02  0.70349697771E+02  0.00000000000E+00 0.  1.
         21   -1    0    0  501  503 -0.00000000000E+00 -0.00000000000E+00 -0.12522298039E+04  0.12522298039E+04  0.00000000000E+00 0.  1.
          6    2    1    2  501    0  0.44649547420E+02  0.38082014449E+02 -0.11144266522E+04  0.11290086719E+04  0.17108476278E+03 0.  0.
         24    2    3    3    0    0  0.83495596839E+02  0.53767193452E+02 -0.97501287117E+03  0.98336069645E+03  0.80534058571E+02 0.  0.
         -6    2    1    2    0  502 -0.44649547420E+02 -0.38082014449E+02 -0.67453453908E+02  0.19357082981E+03  0.17168539775E+03 0.  0.
        -24    2    5    5    0    0 -0.51644737559E+02  0.27888754930E+02 -0.80010268891E+02  0.12588893636E+03  0.77468829872E+02 0.  0.
          5    1    3    3  501    0 -0.38846049418E+02 -0.15685179003E+02 -0.13941378107E+03  0.14564797544E+03  0.47000000000E+01 0.  1.
        -11    1    4    4    0    0  0.91141748565E+02  0.22942798009E+02 -0.64301274421E+03  0.64984504270E+03  0.00000000000E+00 0.  1.
         12    1    4    4    0    0 -0.76461517261E+01  0.30824395443E+02 -0.33200012696E+03  0.33351565375E+03  0.00000000000E+00 0. -1.
         -5    1    5    5    0  502  0.69951901390E+01 -0.65970769379E+02  0.12556814984E+02  0.67681893443E+02  0.47000000000E+01 0.  1.
         13    1    6    6    0    0 -0.63266746933E+01  0.80174602554E+01 -0.75514317048E+02  0.76201827805E+02  0.00000000000E+00 0. -1.
        -14    1    6    6    0    0 -0.45318062866E+02  0.19871294675E+02 -0.44959518429E+01  0.49687108559E+02  0.00000000000E+00 0.  1.
</event>
<event>
12    1  0.1597826E-001  0.1768286E+03  0.7818608E-02  0.1171575E+00
         21   -1    0    0  503  502  0.00000000000E+00  0.00000000000E+00  0.30186133428E+03  0.30186133428E+03  0.00000000000E+00 0. -1.
         21   -1    0    0  501  503 -0.00000000000E+00 -0.00000000000E+00 -0.11162659446E+03  0.11162659446E+03  0.00000000000E+00 0. -1.
          6    2    1    2  501    0 -0.14397133531E+02  0.17147886932E+02  0.15641163344E+03  0.23607825612E+03  0.17540529198E+03 0.  0.
         24    2    3    3    0    0 -0.10947331239E+02  0.21477384013E+02  0.42890153954E+01  0.83782403902E+02  0.80124736912E+02 0.  0.
         -6    2    1    2    0  502  0.14397133531E+02 -0.17147886932E+02  0.33823106381E+02  0.17740967262E+03  0.17271034113E+03 0.  0.
        -24    2    5    5    0    0  0.58550022841E+02  0.34664268751E+02  0.12380306922E+02  0.10588442701E+03  0.80178071695E+02 0.  0.
          5    1    3    3  501    0 -0.34498022918E+01 -0.43294970807E+01  0.15212261805E+03  0.15229585222E+03  0.47000000000E+01 0. -1.
        -13    1    4    4    0    0 -0.67886098791E+01 -0.26233757595E+02 -0.16332579350E+02  0.31639349075E+02  0.00000000000E+00 0.  1.
         14    1    4    4    0    0 -0.41587213604E+01  0.47711141608E+02  0.20621594746E+02  0.52143054827E+02  0.00000000000E+00 0. -1.
         -5    1    5    5    0  502 -0.44152889310E+02 -0.51812155683E+02  0.21442799458E+02  0.71525245609E+02  0.47000000000E+01 0.  1.
         13    1    6    6    0    0  0.83451563591E+01 -0.98771438211E-02 -0.30296925584E+02  0.31425235593E+02  0.00000000000E+00 0. -1.
        -14    1    6    6    0    0  0.50204866482E+02  0.34674145895E+02  0.42677232506E+02  0.74459191416E+02  0.00000000000E+00 0.  1.
</event>
<event>
12    1  0.1597826E-001  0.3032974E+03  0.7818608E-02  0.1083629E+00
         21   -1    0    0  503  502  0.00000000000E+00  0.00000000000E+00  0.34050695388E+03  0.34050695388E+03  0.00000000000E+00 0.  1.
         21   -1    0    0  501  503 -0.00000000000E+00 -0.00000000000E+00 -0.29734540012E+03  0.29734540012E+03  0.00000000000E+00 0. -1.
          6    2    1    2  501    0 -0.34382703823E+02 -0.24759412877E+03  0.11834762469E+03  0.32556944745E+03  0.17176810507E+03 0.  0.
         24    2    3    3    0    0  0.30943491305E+02 -0.13287743408E+03  0.11221130553E+03  0.19333036010E+03  0.78557869781E+02 0.  0.
         -6    2    1    2    0  502  0.34382703823E+02  0.24759412877E+03 -0.75186070927E+02  0.31228290655E+03  0.17141366790E+03 0.  0.
        -24    2    5    5    0    0  0.42910091774E+01  0.22739349836E+03 -0.10688677113E+03  0.26390315926E+03  0.80584612467E+02 0.  0.
          5    1    3    3  501    0 -0.65326195128E+02 -0.11471669469E+03  0.61363191608E+01  0.13223908735E+03  0.47000000000E+01 0. -1.
        -11    1    4    4    0    0 -0.91200604440E+01 -0.87136340357E+02  0.33340943144E+02  0.93741857263E+02  0.00000000000E+00 0.  1.
         12    1    4    4    0    0  0.40063551749E+02 -0.45741093721E+02  0.78870362386E+02  0.99588502833E+02  0.00000000000E+00 0. -1.
         -5    1    5    5    0  502  0.30091694646E+02  0.20200630407E+02  0.31700700200E+02  0.48379747298E+02  0.47000000000E+01 0.  1.
         11    1    6    6    0    0  0.19136692967E+02  0.14682228049E+03 -0.10578007728E+03  0.18196818352E+03  0.00000000000E+00 0. -1.
        -12    1    6    6    0    0 -0.14845683790E+02  0.80571217875E+02 -0.11066938448E+01  0.81934975732E+02  0.00000000000E+00 0.  1.
</event>
<event>
12    1  0.1597826E-001  0.1761323E+03  0.7818608E-02  0.1171869E+00
         21   -1    0    0  501  502  0.00000000000E+00  0.00000000000E+00  0.32146322231E+03  0.32146322231E+03  0.00000000000E+00 0.  1.
         21   -1    0    0  502  503 -0.00000000000E+00 -0.00000000000E+00 -0.53866286991E+03  0.53866286991E+03  0.00000000000E+00 0.  1.
         -6    2    1    2    0  503  0.33076019632E+02 -0.20414011138E+02 -0.49855783842E+03  0.52875562311E+03  0.17179009223E+03 0.  0.
        -24    2    3    3    0    0  0.12723212502E+01  0.25761415934E+02 -0.12301163087E+03  0.14901796458E+03  0.80057623533E+02 0.  0.
          6    2    1    2  501    0 -0.33076019632E+02  0.20414011138E+02  0.28135819082E+03  0.33137046911E+03  0.17068450818E+03 0.  0.
         24    2    5    5    0    0  0.24010790554E+02  0.61535718317E+02  0.14596993769E+03  0.17872064833E+03  0.79187655220E+02 0.  0.
          5    1    5    5  501    0 -0.57086810186E+02 -0.41121707179E+02  0.13538825313E+03  0.15264982078E+03  0.47000000000E+01 0. -1.
        -11    1    6    6    0    0  0.29854826129E+02 -0.75819497538E+01  0.66167911169E+02  0.72986225233E+02  0.00000000000E+00 0.  1.
         12    1    6    6    0    0 -0.58440355755E+01  0.69117668071E+02  0.79802026523E+02  0.10573442310E+03  0.00000000000E+00 0. -1.
         -5    1    3    3    0  503  0.31803698382E+02 -0.46175427072E+02 -0.37554620756E+03  0.37973765853E+03  0.47000000000E+01 0.  1.
         11    1    4    4    0    0 -0.19310884787E+02 -0.18061115318E+02 -0.14408895259E+02  0.30111964738E+02  0.00000000000E+00 0. -1.
        -12    1    4    4    0    0  0.20583206037E+02  0.43822531252E+02 -0.10860273561E+03  0.11890599984E+03  0.00000000000E+00 0.  1.
</event>
<event>
12    1  0.1597826E-001  0.2172559E+03  0.7818608E-02  0.1136075E+00
         21   -1    0    0  503  502  0.00000000000E+00  0.00000000000E+00  0.63742052470E+02  0.63742052470E+02  0.00000000000E+00 0.  1.
         21   -1    0    0  501  503 -0.00000000000E+00 -0.00000000000E+00 -0.10512797847E+04  0.10512797847E+04  0.00000000000E+00 0.  1.
          6    2    1    2  501    0 -0.18675075856E+02 -0.13205030141E+03 -0.79857327884E+03  0.82759857285E+03  0.17150532221E+03 0.  0.
         24    2    3    3    0    0 -0.14042944731E+02 -0.15897302014E+03 -0.75507496056E+03  0.77601870162E+03  0.81223172641E+02 0.  0.
         -6    2    1    2    0  502  0.18675075856E+02  0.13205030141E+03 -0.18896445335E+03  0.28742326428E+03  0.17064151798E+03 0.  0.
        -24    2    5    5    0    0  0.51938470621E+02  0.17580404512E+02 -0.92018799393E+02  0.13370156591E+03  0.80012336131E+02 0.  0.
          5    1    3    3  501    0 -0.46321311257E+01  0.26922718732E+02 -0.43498318276E+02  0.51579871224E+02  0.47000000000E+01 0. -1.
        -11    1    4    4    0    0 -0.21336665275E+02 -0.21259740342E+01 -0.71724288137E+02  0.74860847974E+02  0.00000000000E+00 0.  1.
         12    1    4    4    0    0  0.72937205445E+01 -0.15684704611E+03 -0.68335067242E+03  0.70115785365E+03  0.00000000000E+00 0. -1.
         -5    1    5    5    0  502 -0.33263394764E+02  0.11446989690E+03 -0.96945653956E+02  0.15372169836E+03  0.47000000000E+01 0.  1.
         11    1    6    6    0    0  0.27337285695E+02  0.28346271405E+02 -0.98496747618E+02  0.10607755457E+03  0.00000000000E+00 0. -1.
        -12    1    6    6    0    0  0.24601184926E+02 -0.10765866893E+02  0.64779482253E+01  0.27624011347E+02  0.00000000000E+00 0.  1.
</event>
<event>
12    1  0.1597826E-001  0.2206509E+03  0.7818608E-02  0.1133647E+00
         21   -1    0    0  503  502  0.00000000000E+00  0.00000000000E+00  0.47332281203E+02  0.47332281203E+02  0.00000000000E+00 0. -1.
         21   -1    0    0  501  503 -0.00000000000E+00 -0.00000000000E+00 -0.10844142574E+04  0.10844142574E+04  0.00000000000E+00 0. -1.
          6    2    1    2  501    0 -0.89903452589E+02 -0.10219327097E+03 -0.65533385889E+03  0.69148339236E+03  0.17366841937E+03 0.  0.
         24    2    3    3    0    0 -0.55440957732E+01 -0.10974776633E+03 -0.38815689639E+03  0.41116359147E+03  0.79463284106E+02 0.  0.
         -6    2    1    2    0  502  0.89903452589E+02  0.10219327097E+03 -0.38174811727E+03  0.44026314620E+03  0.17197068776E+03 0.  0.
        -24    2    5    5    0    0  0.96300287327E+02  0.56309937670E+02 -0.14729999292E+03  0.20123550600E+03  0.79711269857E+02 0.  0.
          5    1    3    3  501    0 -0.84359356816E+02  0.75544953625E+01 -0.26717696250E+03  0.28031980089E+03  0.47000000000E+01 0. -1.
        -11    1    4    4    0    0 -0.16565390419E+02 -0.98952454313E+02 -0.21429506322E+03  0.23661862669E+03  0.00000000000E+00 0.  1.
         12    1    4    4    0    0  0.11021294646E+02 -0.10795312016E+02 -0.17386183317E+03  0.17454496478E+03  0.00000000000E+00 0. -1.
         -5    1    5    5    0  502 -0.63968347381E+01  0.45883333298E+02 -0.23444812435E+03  0.23902764020E+03  0.47000000000E+01 0.  1.
         11    1    6    6    0    0  0.53030570416E+02 -0.33086568095E+01 -0.10129424507E+03  0.11438405786E+03  0.00000000000E+00 0. -1.
        -12    1    6    6    0    0  0.43269716911E+02  0.59618594479E+02 -0.46005747854E+02  0.86851448144E+02  0.00000000000E+00 0.  1.
</event>
<event>
12    1  0.1597826E-001  0.1960166E+03  0.7818608E-02  0.1153563E+00
         21   -1    0    0  503  502  0.00000000000E+00  0.00000000000E+00  0.11260719793E+03  0.11260719793E+03  0.00000000000E+00 0. -1.
         21   -1    0    0  501  503 -0.00000000000E+00 -0.00000000000E+00 -0.36673900136E+03  0.36673900136E+03  0.00000000000E+00 0.  1.
          6    2    1    2  501    0 -0.19374572728E+02 -0.90029086324E+02 -0.19373448467E+03  0.27423560815E+03  0.17085522461E+03 0.  0.
         24    2    3    3    0    0 -0.73946281466E+02 -0.37384889680E+02 -0.13002832995E+03  0.17508901475E+03  0.82964534451E+02 0.  0.
         -6    2    1    2    0  502  0.19374572728E+02  0.90029086324E+02 -0.60397318759E+02  0.20511059113E+03  0.17303730241E+03 0.  0.
        -24    2    5    5    0    0 -0.41919739407E+02  0.72159203561E+02  0.86323026715E+00  0.11650319710E+03  0.81289818283E+02 0.  0.
          5    1    3    3  501    0  0.54571708738E+02 -0.52644196645E+02 -0.63706154718E+02  0.99146593406E+02  0.47000000000E+01 0. -1.
        -11    1    4    4    0    0 -0.60032114143E+02  0.73557892135E+01 -0.36928666097E+02  0.70863874739E+02  0.00000000000E+00 0.  1.
         12    1    4    4    0    0 -0.13914167323E+02 -0.44740678893E+02 -0.93099663855E+02  0.10422514001E+03  0.00000000000E+00 0. -1.
         -5    1    5    5    0  502  0.61294312134E+02  0.17869882763E+02 -0.61260549026E+02  0.88607394031E+02  0.47000000000E+01 0.  1.
         13    1    6    6    0    0  0.63743129305E+00  0.70415332935E+02 -0.13207946411E+02  0.71646181192E+02  0.00000000000E+00 0. -1.
        -14    1    6    6    0    0 -0.42557170700E+02  0.17438706265E+01  0.14071176678E+02  0.44857015904E+02  0.00000000000E+00 0.  1.
</event>
<event>
12    1  0.1597826E-001  0.1802213E+03  0.7818608E-02  0.1167719E+00
         21   -1    0    0  503  502  0.00000000000E+00  0.00000000000E+00  0.37308849243E+03  0.37308849243E+03  0.00000000000E+00 0. -1.
         21   -1    0    0  501  503 -0.00000000000E+00 -0.00000000000E+00 -0.87376397589E+02  0.87376397589E+02  0.00000000000E+00 0. -1.
          6    2    1    2  501    0 -0.39580364130E+02  0.34127546187E+02  0.12431473310E+03  0.21893808109E+03  0.17247734881E+03 0.  0.
         24    2    3    3    0    0 -0.74290549540E+02 -0.15322434704E+02  0.11069987583E+03  0.15682888757E+03  0.81160179344E+02 0.  0.
         -6    2    1    2    0  502  0.39580364130E+02 -0.34127546187E+02  0.16139736174E+03  0.24152680893E+03  0.17191508492E+03 0.  0.
        -24    2    5    5    0    0  0.39012547495E+02  0.47963143012E+02  0.90231081663E+02  0.13277970281E+03  0.75275224555E+02 0.  0.
          5    1    3    3  501    0  0.34710185410E+02  0.49449980891E+02  0.13614857278E+02  0.62109193523E+02  0.47000000000E+01 0. -1.
        -11    1    4    4    0    0 -0.39924421248E+02  0.27390479769E+02  0.23477921030E+02  0.53809019410E+02  0.00000000000E+00 0.  1.
         12    1    4    4    0    0 -0.34366128292E+02 -0.42712914473E+02  0.87221954795E+02  0.10301986816E+03  0.00000000000E+00 0. -1.
         -5    1    5    5    0  502  0.56781663517E+00 -0.82090689199E+02  0.71166280077E+02  0.10874710612E+03  0.47000000000E+01 0.  1.
         11    1    6    6    0    0 -0.21451337688E+02  0.23172860921E+01  0.17870676840E+02  0.28015902523E+02  0.00000000000E+00 0. -1.
        -12    1    6    6    0    0  0.60463885183E+02  0.45645856920E+02  0.72360404823E+02  0.10476380029E+03  0.00000000000E+00 0.  1.
</event>
<event>
12    1  0.1597826E-001  0.1979749E+03  0.7818608E-02  0.1152354E+00
         21   -1    0    0  501  502  0.00000000000E+00  0.00000000000E+00  0.15017795838E+04  0.15017795838E+04  0.00000000000E+00 0. -1.
         21   -1    0    0  502  503 -0.00000000000E+00 -0.00000000000E+00 -0.39186086964E+02  0.39186086964E+02  0.00000000000E+00 0. -1.
         -6    2    1    2    0  503 -0.80839002569E+02 -0.33750903404E+02  0.27186145762E+03  0.33388786217E+03  0.17291149340E+03 0.  0.
        -24    2    3    3    0    0  0.19447116185E+02 -0.42172593845E+01  0.77763288245E+02  0.11337543373E+03  0.80067998411E+02 0.  0.
          6    2    1    2  501    0  0.80839002569E+02  0.33750903404E+02  0.11907320392E+04  0.12070778085E+04  0.17753866893E+03 0.  0.
         24    2    5    5    0    0 -0.19336268565E+02 -0.20574574604E+02  0.55407144677E+03  0.56028174917E+03  0.78251299846E+02 0.  0.
          5    1    5    5  501    0  0.10017527113E+03  0.54325478009E+02  0.63666059240E+03  0.64679605938E+03  0.47000000000E+01 0. -1.
        -11    1    6    6    0    0 -0.12146992401E+02 -0.47680765550E+02  0.24191300049E+03  0.24686616746E+03  0.00000000000E+00 0.  1.
         12    1    6    6    0    0 -0.71892761645E+01  0.27106190945E+02  0.31215844628E+03  0.31341558171E+03  0.00000000000E+00 0. -1.
         -5    1    3    3    0  503 -0.10028611875E+03 -0.29533644020E+02  0.19409816938E+03  0.22051242845E+03  0.47000000000E+01 0.  1.
         13    1    4    4    0    0 -0.27081118950E+02  0.19220106234E+01  0.62855710903E+01  0.27867356035E+02  0.00000000000E+00 0. -1.
        -14    1    4    4    0    0  0.46528235135E+02 -0.61392700079E+01  0.71477717155E+02  0.85508077693E+02  0.00000000000E+00 0.  1.
</event>
<event>
12    1  0.1597826E-001  0.2287482E+03  0.7818608E-02  0.1127567E+00
         21   -1    0    0  501  502  0.00000000000E+00  0.00000000000E+00  0.13652225385E+03  0.13652225385E+03  0.00000000000E+00 0.  1.
         21   -1    0    0  502  503 -0.00000000000E+00 -0.00000000000E+00 -0.43980552540E+03  0.43980552540E+03  0.00000000000E+00 0.  1.
         -6    2    1    2    0  503  0.67100049001E+02  0.13531761179E+03 -0.25525182665E+03  0.34259126560E+03  0.17147013624E+03 0.  0.
        -24    2    3    3    0    0 -0.25593248022E+02  0.30808445609E+02 -0.79876966977E+02  0.11833104948E+03  0.77574046901E+02 0.  0.
          6    2    1    2  501    0 -0.67100049001E+02 -0.13531761179E+03 -0.48031444896E+02  0.23373651365E+03  0.17179192494E+03 0.  0.
         24    2    5    5    0    0 -0.73375802170E+02 -0.13881503658E+03  0.81158999817E+01  0.17693658940E+03  0.81160742418E+02 0.  0.
          5    1    5    5  501    0  0.62757531691E+01  0.34974247883E+01 -0.56147344878E+02  0.56799924250E+02  0.47000000000E+01 0. -1.
        -13    1    6    6    0    0 -0.35992097093E+02 -0.10515787295E+02 -0.16648496305E+02  0.41026640916E+02  0.00000000000E+00 0.  1.
         14    1    6    6    0    0 -0.37383705076E+02 -0.12829924929E+03  0.24764396287E+02  0.13590994848E+03  0.00000000000E+00 0. -1.
         -5    1    3    3    0  503  0.92693297023E+02  0.10450916619E+03 -0.17537485968E+03  0.22426021612E+03  0.47000000000E+01 0.  1.
         11    1    4    4    0    0  0.49276843106E+01 -0.18397268509E+02 -0.49299216396E+02  0.52850300837E+02  0.00000000000E+00 0. -1.
        -12    1    4    4    0    0 -0.30520932333E+02  0.49205714118E+02 -0.30577750581E+02  0.65480748644E+02  0.00000000000E+00 0.  1.
</event>
<event>
12    1  0.1597826E-001  0.1892545E+03  0.7818608E-02  0.1159231E+00
         21   -1    0    0  501  502  0.00000000000E+00  0.00000000000E+00  0.26732603313E+03  0.26732603313E+03  0.00000000000E+00 0. -1.
         21   -1    0    0  502  503 -0.00000000000E+00 -0.00000000000E+00 -0.13926209804E+03  0.13926209804E+03  0.00000000000E+00 0. -1.
         -6    2    1    2    0  503 -0.50335544247E+02 -0.67353274577E+02  0.23416817543E+02  0.19069769477E+03  0.16954979456E+03 0.  0.
        -24    2    3    3    0    0 -0.22586568911E+02 -0.10633665347E+03 -0.12385867269E+02  0.13075078741E+03  0.71587161790E+02 0.  0.
          6    2    1    2  501    0  0.50335544247E+02  0.67353274577E+02  0.10464711755E+03  0.21589043640E+03  0.16907847499E+03 0.  0.
         24    2    5    5    0    0  0.11339074647E+02 -0.17386945801E+02  0.33467394089E+02  0.98458444919E+02  0.90239228779E+02 0.  0.
          5    1    5    5  501    0  0.38996469600E+02  0.84740220379E+02  0.71179723465E+02  0.11743199148E+03  0.47000000000E+01 0. -1.
        -11    1    6    6    0    0 -0.22334490082E+02  0.13200493401E+02  0.44624851360E+02  0.51618405944E+02  0.00000000000E+00 0.  1.
         12    1    6    6    0    0  0.33673564729E+02 -0.30587439202E+02 -0.11157457272E+02  0.46840038976E+02  0.00000000000E+00 0. -1.
         -5    1    3    3    0  503 -0.27748975336E+02  0.38983378897E+02  0.35802684812E+02  0.59946907361E+02  0.47000000000E+01 0.  1.
         13    1    4    4    0    0  0.90616447457E+01 -0.25753746200E+02  0.24465025921E+02  0.36659328174E+02  0.00000000000E+00 0. -1.
        -14    1    4    4    0    0 -0.31648213657E+02 -0.80582907274E+02 -0.36850893190E+02  0.94091459237E+02  0.00000000000E+00 0.  1.
</event>
<event>
12    1  0.1597826E-001  0.1819555E+03  0.7818608E-02  0.1166150E+00
         21   -1    0    0  503  502  0.00000000000E+00  0.00000000000E+00  0.88817793506E+02  0.88817793506E+02  0.00000000000E+00 0.  1.
         21   -1    0    0  501  503 -0.00000000000E+00 -0.00000000000E+00 -0.38444875986E+03  0.38444875986E+03  0.00000000000E+00 0.  1.
          6    2    1    2  501    0  0.31271240756E+02  0.45509111908E+02 -0.10364893153E+03  0.20940610783E+03  0.17337487483E+03 0.  0.
         24    2    3    3    0    0 -0.40747033817E+02  0.57485656518E+02 -0.45750846092E+02  0.11610901360E+03  0.80145128685E+02 0.  0.
         -6    2    1    2    0  502 -0.31271240756E+02 -0.45509111908E+02 -0.19198203483E+03  0.26386044554E+03  0.17238405744E+03 0.  0.
        -24    2    5    5    0    0 -0.17901842673E+01 -0.78575934391E+02 -0.19283314525E+03  0.21930304627E+03  0.68788240066E+02 0.  0.
          5    1    3    3  501    0  0.72018274572E+02 -0.11976544609E+02 -0.57898085439E+02  0.93297094224E+02  0.47000000000E+01 0. -1.
        -11    1    4    4    0    0 -0.31144579025E+02  0.56896898749E+02 -0.66711140489E+02  0.93046322631E+02  0.00000000000E+00 0.  1.
         12    1    4    4    0    0 -0.96024547914E+01  0.58875776858E+00  0.20960294397E+02  0.23062690973E+02  0.00000000000E+00 0. -1.
         -5    1    5    5    0  502 -0.29481056488E+02  0.33066822483E+02  0.85111042373E+00  0.44557399270E+02  0.47000000000E+01 0.  1.
         11    1    6    6    0    0  0.14686773598E+02  0.37176674794E+01 -0.62312563116E+02  0.64127824634E+02  0.00000000000E+00 0. -1.
        -12    1    6    6    0    0 -0.16476957865E+02 -0.82293601871E+02 -0.13052058213E+03  0.15517522164E+03  0.00000000000E+00 0.  1.
</event>
<event>
12    1  0.1597826E-001  0.2650354E+03  0.7818608E-02  0.1104219E+00
         21   -1    0    0  501  502  0.00000000000E+00  0.00000000000E+00  0.11350217085E+04  0.11350217085E+04  0.00000000000E+00 0. -1.
         21   -1    0    0  502  503 -0.00000000000E+00 -0.00000000000E+00 -0.64659785214E+02  0.64659785214E+02  0.00000000000E+00 0. -1.
         -6    2    1    2    0  503 -0.19620209427E+03 -0.45364009273E+02  0.66121478214E+03  0.71219290212E+03  0.17164086510E+03 0.  0.
        -24    2    3    3    0    0 -0.77605303813E+02 -0.29404257410E+02  0.49230927946E+03  0.50513959685E+03  0.76879074736E+02 0.  0.
          6    2    1    2  501    0  0.19620209427E+03  0.45364009273E+02  0.40914714118E+03  0.48748859163E+03  0.17230957229E+03 0.  0.
         24    2    5    5    0    0  0.16318638952E+03  0.86451837354E+02  0.33598322209E+03  0.39719299133E+03  0.10379705647E+03 0.  0.
          5    1    5    5  501    0  0.33015704744E+02 -0.41087828081E+02  0.73163919090E+02  0.90295600296E+02  0.47000000000E+01 0. -1.
        -13    1    6    6    0    0  0.26058274017E+02 -0.20280760551E+02  0.26815045268E+02  0.42536919799E+02  0.00000000000E+00 0.  1.
         14    1    6    6    0    0  0.13712811551E+03  0.10673259790E+03  0.30916817682E+03  0.35465607153E+03  0.00000000000E+00 0. -1.
         -5    1    3    3    0  503 -0.11859679045E+03 -0.15959751863E+02  0.16890550268E+03  0.20705330527E+03  0.47000000000E+01 0.  1.
         13    1    4    4    0    0 -0.19142485612E+02 -0.16305001048E+02  0.30814653675E+02  0.39772235236E+02  0.00000000000E+00 0. -1.
        -14    1    4    4    0    0 -0.58462818202E+02 -0.13099256361E+02  0.46149462578E+03  0.46536736161E+03  0.00000000000E+00 0.  1.
</event>
<event>
12    1  0.1597826E-001  0.2095541E+03  0.7818608E-02  0.1142106E+00
         21   -1    0    0  501  502  0.00000000000E+00  0.00000000000E+00  0.23959354202E+03  0.23959354202E+03  0.00000000000E+00 0. -1.
         21   -1    0    0  502  503 -0.00000000000E+00 -0.00000000000E+00 -0.38012873890E+03  0.38012873890E+03  0.00000000000E+00 0. -1.
         -6    2    1    2    0  503 -0.38773910489E+02 -0.11199149823E+03 -0.29378780971E+03  0.36086592199E+03  0.17282194509E+03 0.  0.
        -24    2    3    3    0    0 -0.53497355231E+02 -0.98973276529E+02 -0.30639399518E+03  0.33704870482E+03  0.84064693269E+02 0.  0.
          6    2    1    2  501    0  0.38773910489E+02  0.11199149823E+03  0.15325261283E+03  0.25885635893E+03  0.17168208821E+03 0.  0.
         24    2    5    5    0    0  0.55621133500E+02  0.11221499706E+03  0.16982203827E+03  0.23476248555E+03  0.10289792942E+03 0.  0.
          5    1    5    5  501    0 -0.16847223011E+02 -0.22349883319E+00 -0.16569425449E+02  0.24093873383E+02  0.47000000000E+01 0. -1.
        -13    1    6    6    0    0  0.14046393790E+02 -0.49230625145E+01 -0.86930649394E+01  0.17236794977E+02  0.00000000000E+00 0.  1.
         14    1    6    6    0    0  0.41574739710E+02  0.11713805958E+03  0.17851510321E+03  0.21752569057E+03  0.00000000000E+00 0. -1.
         -5    1    3    3    0  503  0.14723444741E+02 -0.13018221701E+02  0.12606185472E+02  0.23817217165E+02  0.47000000000E+01 0.  1.
         13    1    4    4    0    0  0.93435610037E+01 -0.70414992239E+02 -0.16786667227E+03  0.18227669330E+03  0.00000000000E+00 0. -1.
        -14    1    4    4    0    0 -0.62840916234E+02 -0.28558284290E+02 -0.13852732292E+03  0.15477201152E+03  0.00000000000E+00 0.  1.
</event>
<event>
12    1  0.1597826E-001  0.1751665E+03  0.7818608E-02  0.1172926E+00
         21   -1    0    0  501  502  0.00000000000E+00  0.00000000000E+00  0.16641746714E+03  0.16641746714E+03  0.00000000000E+00 0. -1.
         21   -1    0    0  502  503 -0.00000000000E+00 -0.00000000000E+00 -0.27708214938E+03  0.27708214938E+03  0.00000000000E+00 0. -1.
         -6    2    1    2    0  503 -0.25060035503E+02  0.13030421903E+02  0.74123563846E+02  0.18888226343E+03  0.17141881299E+03 0.  0.
        -24    2    3    3    0    0  0.36152295459E+02  0.49891175720E+02  0.57252159093E+02  0.11531325547E+03  0.78887383560E+02 0.  0.
          6    2    1    2  501    0  0.25060035503E+02 -0.13030421903E+02 -0.18478824609E+03  0.25461735309E+03  0.17287424137E+03 0.  0.
         24    2    5    5    0    0 -0.36033585981E+02 -0.50835780717E+02 -0.13074496118E+03  0.16459267656E+03  0.78190845899E+02 0.  0.
          5    1    5    5  501    0  0.61093621484E+02  0.37805358814E+02 -0.54043284902E+02  0.90024676529E+02  0.47000000000E+01 0. -1.
        -13    1    6    6    0    0 -0.48622839127E+02 -0.23472624611E+01 -0.51710320402E+02  0.71018640946E+02  0.00000000000E+00 0.  1.
         14    1    6    6    0    0  0.12589253145E+02 -0.48488518256E+02 -0.79034640783E+02  0.93574035614E+02  0.00000000000E+00 0. -1.
         -5    1    3    3    0  503 -0.61212330962E+02 -0.36860753817E+02  0.16871404753E+02  0.73569007959E+02  0.47000000000E+01 0.  1.
         13    1    4    4    0    0 -0.75247066675E+01 -0.80507963554E+00 -0.15020359630E+02  0.16819053691E+02  0.00000000000E+00 0. -1.
        -14    1    4    4    0    0  0.43677002127E+02  0.50696255356E+02  0.72272518723E+02  0.98494201781E+02  0.00000000000E+00 0.  1.
</event>
<event>
12    1  0.1597826E-001  0.1789909E+03  0.7818608E-02  0.1169220E+00
         21   -1    0    0  501  502  0.00000000000E+00  0.00000000000E+00  0.24333282207E+03  0.24333282207E+03  0.00000000000E+00 0.  1.
         21   -1    0    0  502  503 -0.00000000000E+00 -0.00000000000E+00 -0.14641076080E+03  0.14641076080E+03  0.00000000000E+00 0.  1.
         -6    2    1    2    0  503  0.47565934537E+02  0.14052691578E+01  0.11278046568E+03  0.21005155455E+03  0.17069777157E+03 0.  0.
        -24    2    3    3    0    0  0.39345160948E+02 -0.41051053635E+02  0.14685186404E+02  0.10274407913E+03  0.84305755453E+02 0.  0.
          6    2    1    2  501    0 -0.47565934537E+02 -0.14052691578E+01 -0.15858404415E+02  0.17969202832E+03  0.17254924845E+03 0.  0.
         24    2    5    5    0    0  0.92009056435E+01 -0.55921215535E+02 -0.23807049019E+02  0.10044725875E+03  0.79442036702E+02 0.  0.
          5    1    5    5  501    0 -0.56766840180E+02  0.54515946378E+02  0.79486446034E+01  0.79244769572E+02  0.47000000000E+01 0. -1.
        -11    1    6    6    0    0 -0.18634729170E+02  0.83785522024E+01 -0.22467148517E+02  0.30368174636E+02  0.00000000000E+00 0.  1.
         12    1    6    6    0    0  0.27835634813E+02 -0.64299767738E+02 -0.13399005018E+01  0.70079084112E+02  0.00000000000E+00 0. -1.
         -5    1    3    3    0  503  0.82207735894E+01  0.42456322793E+02  0.98095279279E+02  0.10730747542E+03  0.47000000000E+01 0.  1.
         11    1    4    4    0    0 -0.46901405074E+01 -0.11448568269E+02  0.41491423963E+02  0.43296713453E+02  0.00000000000E+00 0. -1.
        -12    1    4    4    0    0  0.44035301455E+02 -0.29602485366E+02 -0.26806237559E+02  0.59447365679E+02  0.00000000000E+00 0.  1.
</event>
<event>
12    1  0.1597826E-001  0.2076674E+03  0.7818608E-02  0.1143679E+00
         21   -1    0    0  501  502  0.00000000000E+00  0.00000000000E+00  0.28199685843E+03  0.28199685843E+03  0.00000000000E+00 0. -1.
         21   -1    0    0  502  503 -0.00000000000E+00 -0.00000000000E+00 -0.15460155327E+03  0.15460155327E+03  0.00000000000E+00 0. -1.
         -6    2    1    2    0  503  0.68456192025E+02 -0.93782238702E+02  0.35612619007E+02  0.21069885833E+03  0.17217546790E+03 0.  0.
        -24    2    3    3    0    0 -0.89792334091E+01 -0.75982997428E+02  0.62440455708E+02  0.12670551976E+03  0.79381582859E+02 0.  0.
          6    2    1    2  501    0 -0.68456192025E+02  0.93782238702E+02  0.91782686150E+02  0.22589955337E+03  0.17066103308E+03 0.  0.
         24    2    5    5    0    0 -0.76839629959E+02  0.43868897205E+02 -0.29833434657E+01  0.11836205265E+03  0.78561226418E+02 0.  0.
          5    1    5    5  501    0  0.83834379338E+01  0.49913341497E+02  0.94766029616E+02  0.10753750072E+03  0.47000000000E+01 0. -1.
        -13    1    6    6    0    0 -0.81055930303E+01 -0.21798676045E+02 -0.10809375571E+01  0.23281996085E+02  0.00000000000E+00 0.  1.
         14    1    6    6    0    0 -0.68734036929E+02  0.65667573250E+02 -0.19024059086E+01  0.95080056570E+02  0.00000000000E+00 0. -1.
         -5    1    3    3    0  503  0.77435425434E+02 -0.17799241274E+02 -0.26827836701E+02  0.83993338570E+02  0.47000000000E+01 0.  1.
         11    1    4    4    0    0 -0.19841650020E+02 -0.40395882802E+02 -0.92389855593E+01  0.45944284487E+02  0.00000000000E+00 0. -1.
        -12    1    4    4    0    0  0.10862416611E+02 -0.35587114626E+02  0.71679441267E+02  0.80761235270E+02  0.00000000000E+00 0.  1.
</event>
<event>
12    1  0.1597826E-001  0.2285577E+03  0.7818608E-02  0.1128751E+00
         21   -1    0    0  501  502  0.00000000000E+00  0.00000000000E+00  0.50990287823E+03  0.50990287823E+03  0.00000000000E+00 0. -1.
         21   -1    0    0  502  503 -0.00000000000E+00 -0.00000000000E+00 -0.23390339037E+03  0.23390339037E+03  0.00000000000E+00 0. -1.
         -6    2    1    2    0  503 -0.14599165834E+03  0.11938377334E+02 -0.14285347068E+03  0.26952870698E+03  0.17544948175E+03 0.  0.
        -24    2    3    3    0    0 -0.13808139736E+03 -0.49160369455E+02 -0.99340641703E+02  0.19395698361E+03  0.79167759708E+02 0.  0.
          6    2    1    2  501    0  0.14599165834E+03 -0.11938377334E+02  0.41885295853E+03  0.47427756162E+03  0.16746735631E+03 0.  0.
         24    2    5    5    0    0  0.62710266620E+02  0.32930215788E+02  0.12077965982E+03  0.16151765009E+03  0.80518621530E+02 0.  0.
          5    1    5    5  501    0  0.83281391720E+02 -0.44868593123E+02  0.29807329871E+03  0.31275991153E+03  0.47000000000E+01 0. -1.
        -13    1    6    6    0    0 -0.14768499474E+02  0.25218842493E+02  0.36877848192E+02  0.47053950745E+02  0.00000000000E+00 0.  1.
         14    1    6    6    0    0  0.77478766094E+02  0.77113732954E+01  0.83901811628E+02  0.11446369935E+03  0.00000000000E+00 0. -1.
         -5    1    3    3    0  503 -0.79102609832E+01  0.61098746790E+02 -0.43512828972E+02  0.75571723371E+02  0.47000000000E+01 0.  1.
         13    1    4    4    0    0 -0.77799571952E+02 -0.44432248137E+02 -0.98955852208E+02  0.13348879637E+03  0.00000000000E+00 0. -1.
        -14    1    4    4    0    0 -0.60281825404E+02 -0.47281213186E+01 -0.38478949503E+00  0.60468187241E+02  0.00000000000E+00 0.  1.
</event>
<event>
12    1  0.1597826E-001  0.1939437E+03  0.7818608E-02  0.1155124E+00
         21   -1    0    0  501  502  0.00000000000E+00  0.00000000000E+00  0.28220831665E+03  0.28220831665E+03  0.00000000000E+00 0. -1.
         21   -1    0    0  502  503 -0.00000000000E+00 -0.00000000000E+00 -0.37202665817E+03  0.37202665817E+03  0.00000000000E+00 0. -1.
         -6    2    1    2    0  503 -0.92205498701E+01 -0.87792651693E+02 -0.30728393994E+03  0.36336975568E+03  0.17268929140E+03 0.  0.
        -24    2    3    3    0    0 -0.92653086539E+01 -0.18741324192E+02 -0.27713975318E+03  0.28787902891E+03  0.75038718770E+02 0.  0.
          6    2    1    2  501    0  0.92205498701E+01  0.87792651693E+02  0.21746559843E+03  0.29086521914E+03  0.17181013059E+03 0.  0.
         24    2    5    5    0    0 -0.40581441410E+02  0.78875406985E+02  0.20776132781E+03  0.23913497212E+03  0.78438398400E+02 0.  0.
          5    1    5    5  501    0  0.49801991280E+02  0.89172447072E+01  0.97042706201E+01  0.51730247021E+02  0.47000000000E+01 0. -1.
        -13    1    6    6    0    0 -0.93223291632E+01  0.43096548184E+02  0.17729356755E+03  0.18269435509E+03  0.00000000000E+00 0.  1.
         14    1    6    6    0    0 -0.31259112246E+02  0.35778858801E+02  0.30467760256E+02  0.56440617029E+02  0.00000000000E+00 0. -1.
         -5    1    3    3    0  503  0.44758783830E-01 -0.69051327501E+02 -0.30144186759E+02  0.75490726770E+02  0.47000000000E+01 0.  1.
         13    1    4    4    0    0 -0.37997949356E+02  0.24242162573E+01 -0.96342963906E+02  0.10359385925E+03  0.00000000000E+00 0. -1.
        -14    1    4    4    0    0  0.28732640702E+02 -0.21165540449E+02 -0.18079678928E+03  0.18428516966E+03  0.00000000000E+00 0.  1.
</event>
<event>
12    1  0.1597826E-001  0.1821688E+03  0.7818608E-02  0.1165922E+00
         21   -1    0    0  501  502  0.00000000000E+00  0.00000000000E+00  0.43533815602E+02  0.43533815602E+02  0.00000000000E+00 0. -1.
         21   -1    0    0  502  503 -0.00000000000E+00 -0.00000000000E+00 -0.19623657020E+04  0.19623657020E+04  0.00000000000E+00 0. -1.
         -6    2    1    2    0  503 -0.96857419614E+01 -0.56143139211E+02 -0.17457501689E+04  0.17552290776E+04  0.17303062358E+03 0.  0.
        -24    2    3    3    0    0  0.26100654945E+02 -0.61650258703E+02 -0.60410388552E+03  0.61299910027E+03  0.79651703393E+02 0.  0.
          6    2    1    2  501    0  0.96857419614E+01  0.56143139211E+02 -0.17308171744E+03  0.25067044002E+03  0.17214099718E+03 0.  0.
         24    2    5    5    0    0 -0.55700807587E+02  0.24261423237E+02 -0.63596499357E+02  0.11913737325E+03  0.80361697039E+02 0.  0.
          5    1    5    5  501    0  0.65386549549E+02  0.31881715974E+02 -0.10948521808E+03  0.13153306677E+03  0.47000000000E+01 0. -1.
        -13    1    6    6    0    0 -0.77042881355E+01  0.90938275055E+00 -0.65275719223E+02  0.65735093769E+02  0.00000000000E+00 0.  1.
         14    1    6    6    0    0 -0.47996519452E+02  0.23352040487E+02  0.16792198661E+01  0.53402279481E+02  0.00000000000E+00 0. -1.
         -5    1    3    3    0  503 -0.35786396907E+02  0.55071194915E+01 -0.11416462834E+04  0.11422299773E+04  0.47000000000E+01 0.  1.
         13    1    4    4    0    0 -0.16302787997E+02 -0.25100306343E+01 -0.29435398163E+03  0.29481578596E+03  0.00000000000E+00 0. -1.
        -14    1    4    4    0    0  0.42403442942E+02 -0.59140228068E+02 -0.30974990388E+03  0.31818331431E+03  0.00000000000E+00 0.  1.
</event>
<event>
12    1  0.1597826E-001  0.2403629E+03  0.7818608E-02  0.1119604E+00
         21   -1    0    0  501  502  0.00000000000E+00  0.00000000000E+00  0.69194460069E+02  0.69194460069E+02  0.00000000000E+00 0. -1.
         21   -1    0    0  502  503 -0.00000000000E+00 -0.00000000000E+00 -0.93454338790E+03  0.93454338790E+03  0.00000000000E+00 0.  1.
         -6    2    1    2    0  503 -0.14933314056E+03 -0.76263430357E+02 -0.59715636204E+03  0.64359677259E+03  0.17176899396E+03 0.  0.
        -24    2    3    3    0    0 -0.11328052484E+03  0.14663059570E+02 -0.25041164361E+03  0.28328939349E+03  0.67077616140E+02 0.  0.
          6    2    1    2  501    0  0.14933314056E+03  0.76263430357E+02 -0.26819256579E+03  0.36014107538E+03  0.17221452944E+03 0.  0.
         24    2    5    5    0    0  0.52016071646E+02  0.11626371121E+02 -0.20717748554E+03  0.22825668909E+03  0.79610058321E+02 0.  0.
          5    1    5    5  501    0  0.97317068912E+02  0.64637059236E+02 -0.61015080255E+02  0.13188438629E+03  0.47000000000E+01 0. -1.
        -13    1    6    6    0    0  0.55181587566E+02  0.36432049414E+02 -0.17768394812E+03  0.18958873186E+03  0.00000000000E+00 0.  1.
         14    1    6    6    0    0 -0.31655159197E+01 -0.24805678293E+02 -0.29493537421E+02  0.38667957229E+02  0.00000000000E+00 0. -1.
         -5    1    3    3    0  503 -0.36052615713E+02 -0.90926489927E+02 -0.34674471843E+03  0.36030737909E+03  0.47000000000E+01 0.  1.
         13    1    4    4    0    0 -0.61435311808E+02  0.26884151490E+02 -0.78138321642E+02  0.10296918203E+03  0.00000000000E+00 0. -1.
        -14    1    4    4    0    0 -0.51845213037E+02 -0.12221091920E+02 -0.17227332196E+03  0.18032021147E+03  0.00000000000E+00 0.  1.
</event>
<event>
12    1  0.1597826E-001  0.1733626E+03  0.7818608E-02  0.1174967E+00
         21   -1    0    0  503  502  0.00000000000E+00  0.00000000000E+00  0.74424052142E+03  0.74424052142E+03  0.00000000000E+00 0.  1.
         21   -1    0    0  501  503 -0.00000000000E+00 -0.00000000000E+00 -0.70134777149E+02  0.70134777149E+02  0.00000000000E+00 0.  1.
          6    2    1    2  501    0 -0.70269229563E+01 -0.15600958692E+02  0.68245376118E+02  0.18419963253E+03  0.17023309227E+03 0.  0.
         24    2    3    3    0    0  0.56521432738E+02  0.92727034655E+01  0.20855519085E+02  0.10098316102E+03  0.80510811356E+02 0.  0.
         -6    2    1    2    0  502  0.70269229563E+01  0.15600958692E+02  0.60586036815E+03  0.63017566604E+03  0.17251613493E+03 0.  0.
        -24    2    5    5    0    0 -0.39600555310E+02 -0.39653632532E+02  0.27158436005E+03  0.28813804943E+03  0.78261461481E+02 0.  0.
          5    1    3    3  501    0 -0.63548355695E+02 -0.24873662158E+02  0.47389857033E+02  0.83216471508E+02  0.47000000000E+01 0. -1.
        -11    1    4    4    0    0  0.32692638115E+02  0.89966515159E+01 -0.29710707947E+02  0.45082973417E+02  0.00000000000E+00 0.  1.
         12    1    4    4    0    0  0.23828794623E+02  0.27605194952E+00  0.50566227033E+02  0.55900187604E+02  0.00000000000E+00 0. -1.
         -5    1    5    5    0  502  0.46627478266E+02  0.55254591224E+02  0.33427600810E+03  0.34203761661E+03  0.47000000000E+01 0.  1.
         11    1    6    6    0    0  0.14165480440E+02  0.33318732655E+01  0.10022192741E+02  0.17669367925E+02  0.00000000000E+00 0. -1.
        -12    1    6    6    0    0 -0.53766035749E+02 -0.42985505797E+02  0.26156216731E+03  0.27046868151E+03  0.00000000000E+00 0.  1.
</event>
<event>
12    1  0.1597826E-001  0.2529935E+03  0.7818608E-02  0.1111514E+00
         21   -1    0    0  501  502  0.00000000000E+00  0.00000000000E+00  0.98981248863E+03  0.98981248863E+03  0.00000000000E+00 0. -1.
         21   -1    0    0  502  503 -0.00000000000E+00 -0.00000000000E+00 -0.69477167889E+02  0.69477167889E+02  0.00000000000E+00 0.  1.
         -6    2    1    2    0  503  0.18272547674E+03 -0.30209171177E+02  0.31825033269E+03  0.40621074489E+03  0.17153046708E+03 0.  0.
        -24    2    3    3    0    0  0.53238543086E+02  0.25409928092E+02  0.21553186516E+03  0.23175867766E+03  0.61466192784E+02 0.  0.
          6    2    1    2  501    0 -0.18272547674E+03  0.30209171177E+02  0.60208498805E+03  0.65307891162E+03  0.17235004526E+03 0.  0.
         24    2    5    5    0    0 -0.55922060227E+02 -0.17007236895E+02  0.13380518435E+03  0.16561962083E+03  0.78163345101E+02 0.  0.
          5    1    5    5  501    0 -0.12680341651E+03  0.47216408072E+02  0.46827980370E+03  0.48745929080E+03  0.47000000000E+01 0. -1.
        -11    1    6    6    0    0 -0.76380816730E+01  0.29488038524E+02  0.45494154192E+02  0.54750367791E+02  0.00000000000E+00 0.  1.
         12    1    6    6    0    0 -0.48283978554E+02 -0.46495275419E+02  0.88311030155E+02  0.11086925303E+03  0.00000000000E+00 0. -1.
         -5    1    3    3    0  503  0.12948693365E+03 -0.55619099270E+02  0.10271846753E+03  0.17445206723E+03  0.47000000000E+01 0.  1.
         11    1    4    4    0    0 -0.45375858672E+01  0.12851790502E+02  0.76442645403E+01  0.15626675429E+02  0.00000000000E+00 0. -1.
        -12    1    4    4    0    0  0.57776128953E+02  0.12558137590E+02  0.20788760062E+03  0.21613200223E+03  0.00000000000E+00 0.  1.
</event>
<event>
12    1  0.1597826E-001  0.1942755E+03  0.7818608E-02  0.1154866E+00
         21   -1    0    0  503  502  0.00000000000E+00  0.00000000000E+00  0.11501414174E+03  0.11501414174E+03  0.00000000000E+00 0.  1.
         21   -1    0    0  501  503 -0.00000000000E+00 -0.00000000000E+00 -0.49065588151E+03  0.49065588151E+03  0.00000000000E+00 0.  1.
          6    2    1    2  501    0 -0.55253236102E+02 -0.68460406520E+02 -0.36324373071E+03  0.41193321135E+03  0.17321436242E+03 0.  0.
         24    2    3    3    0    0 -0.56993656614E+02 -0.42353926155E+02 -0.36939686040E+03  0.38464716389E+03  0.80357129522E+02 0.  0.
         -6    2    1    2    0  502  0.55253236102E+02  0.68460406520E+02 -0.12398009053E+02  0.19373681190E+03  0.17216414928E+03 0.  0.
        -24    2    5    5    0    0  0.26138716970E+02 -0.34090773229E+01  0.52373007383E+02  0.92592101206E+02  0.71662479516E+02 0.  0.
          5    1    3    3  501    0  0.17404205115E+01 -0.26106480364E+02  0.61531296877E+01  0.27286047451E+02  0.47000000000E+01 0. -1.
        -11    1    4    4    0    0 -0.35260755381E+02  0.20073030206E+02 -0.12190288740E+03  0.12847786334E+03  0.00000000000E+00 0.  1.
         12    1    4    4    0    0 -0.21732901233E+02 -0.62426956362E+02 -0.24749397300E+03  0.25616930056E+03  0.00000000000E+00 0. -1.
         -5    1    5    5    0  502  0.29114519132E+02  0.71869483843E+02 -0.64771016436E+02  0.10114471070E+03  0.47000000000E+01 0.  1.
         11    1    6    6    0    0  0.36914396271E+02  0.14764137630E+02  0.58375485573E+02  0.70628250211E+02  0.00000000000E+00 0. -1.
        -12    1    6    6    0    0 -0.10775679301E+02 -0.18173214953E+02 -0.60024781901E+01  0.21963850995E+02  0.00000000000E+00 0.  1.
</event>
<event>
12    1  0.1597826E-001  0.2274301E+03  0.7818608E-02  0.1128478E+00
         21   -1    0    0  501  502  0.00000000000E+00  0.00000000000E+00  0.38276986667E+03  0.38276986667E+03  0.00000000000E+00 0.  1.
         21   -1    0    0  502  503 -0.00000000000E+00 -0.00000000000E+00 -0.14104087251E+03  0.14104087251E+03  0.00000000000E+00 0. -1.
         -6    2    1    2    0  503 -0.62341862689E+02 -0.13539780859E+03  0.17469768410E+03  0.28670809290E+03  0.17164840602E+03 0.  0.
        -24    2    3    3    0    0  0.13048543623E+02 -0.16458274580E+02  0.39375937327E+02  0.91351006350E+02  0.79708234380E+02 0.  0.
          6    2    1    2  501    0  0.62341862689E+02  0.13539780859E+03  0.67031310062E+02  0.23710264628E+03  0.17177134199E+03 0.  0.
         24    2    5    5    0    0  0.96372988227E+02  0.48784537602E+02  0.34512317027E+02  0.13841348211E+03  0.79369440171E+02 0.  0.
          5    1    5    5  501    0 -0.34031125538E+02  0.86613270989E+02  0.32518993035E+02  0.98689164171E+02  0.47000000000E+01 0. -1.
        -11    1    6    6    0    0  0.96681381795E+00 -0.16900119071E+02  0.11093141162E+02  0.20238738459E+02  0.00000000000E+00 0.  1.
         12    1    6    6    0    0  0.95406174409E+02  0.65684656673E+02  0.23419175865E+02  0.11817474365E+03  0.00000000000E+00 0. -1.
         -5    1    3    3    0  503 -0.75390406312E+02 -0.11893953401E+03  0.13532174677E+03  0.19535708655E+03  0.47000000000E+01 0.  1.
         13    1    4    4    0    0  0.27105753216E+02 -0.43232367536E+02  0.31978150469E+02  0.60219279036E+02  0.00000000000E+00 0. -1.
        -14    1    4    4    0    0 -0.14057209593E+02  0.26774092956E+02  0.73977868576E+01  0.31131727314E+02  0.00000000000E+00 0.  1.
</event>
<event>
12    1  0.1597826E-001  0.1961271E+03  0.7818608E-02  0.1153087E+00
         21   -1    0    0  501  502  0.00000000000E+00  0.00000000000E+00  0.22555624419E+04  0.22555624419E+04  0.00000000000E+00 0. -1.
         21   -1    0    0  502  503 -0.00000000000E+00 -0.00000000000E+00 -0.18270869771E+02  0.18270869771E+02  0.00000000000E+00 0. -1.
         -6    2    1    2    0  503 -0.74860909375E+02  0.57598409766E+02  0.82287558937E+03  0.84588428682E+03  0.17168068772E+03 0.  0.
        -24    2    3    3    0    0 -0.30074382621E+02  0.78219339735E+02  0.41354397063E+03  0.43356703053E+03  0.99694637348E+02 0.  0.
          6    2    1    2  501    0  0.74860909375E+02 -0.57598409766E+02  0.14144159828E+04  0.14279490249E+04  0.17188400958E+03 0.  0.
         24    2    5    5    0    0  0.11149076767E+03 -0.58997139713E+02  0.90072440130E+03  0.91292976908E+03  0.78901599468E+02 0.  0.
          5    1    5    5  501    0 -0.36629858295E+02  0.13987299473E+01  0.51369158147E+03  0.51501925579E+03  0.47000000000E+01 0. -1.
        -11    1    6    6    0    0  0.40248229946E+02 -0.42375936703E+02  0.19906132942E+03  0.20746337724E+03  0.00000000000E+00 0.  1.
         12    1    6    6    0    0  0.71242537724E+02 -0.16621203010E+02  0.70166307188E+03  0.70546639184E+03  0.00000000000E+00 0. -1.
         -5    1    3    3    0  503 -0.44786526754E+02 -0.20620929968E+02  0.40933161874E+03  0.41231725629E+03  0.47000000000E+01 0.  1.
         11    1    4    4    0    0 -0.35734396441E+02  0.84316744123E+02  0.41511875124E+03  0.42509979777E+03  0.00000000000E+00 0. -1.
        -12    1    4    4    0    0  0.56600138193E+01 -0.60974043883E+01 -0.15747806074E+01  0.84672327635E+01  0.00000000000E+00 0.  1.
</event>
<event>
12    1  0.1597826E-001  0.2897011E+03  0.7818608E-02  0.1090576E+00
         21   -1    0    0  501  502  0.00000000000E+00  0.00000000000E+00  0.48985045612E+03  0.48985045612E+03  0.00000000000E+00 0.  1.
         21   -1    0    0  502  503 -0.00000000000E+00 -0.00000000000E+00 -0.22218573778E+03  0.22218573778E+03  0.00000000000E+00 0. -1.
         -6    2    1    2    0  503  0.20730597672E+03 -0.10592522870E+03 -0.37121438372E+02  0.29153493305E+03  0.17151878597E+03 0.  0.
        -24    2    3    3    0    0  0.19874106979E+03 -0.13632172712E+03 -0.44637545942E+02  0.25873422239E+03  0.82881006385E+02 0.  0.
          6    2    1    2  501    0 -0.20730597672E+03  0.10592522870E+03  0.30478615672E+03  0.42050126085E+03  0.17242617838E+03 0.  0.
         24    2    5    5    0    0 -0.99465653833E+02  0.93394417065E+02  0.25774531846E+03  0.30208890109E+03  0.78797979289E+02 0.  0.
          5    1    5    5  501    0 -0.10784032289E+03  0.12530811639E+02  0.47040838255E+02  0.11841235976E+03  0.47000000000E+01 0. -1.
        -13    1    6    6    0    0 -0.89339575245E+02  0.45565468640E+02  0.21462722108E+03  0.23690212255E+03  0.00000000000E+00 0.  1.
         14    1    6    6    0    0 -0.10126078588E+02  0.47828948426E+02  0.43118097381E+02  0.65186778543E+02  0.00000000000E+00 0. -1.
         -5    1    3    3    0  503  0.85649069315E+01  0.30396498418E+02  0.75161075699E+01  0.32800710660E+02  0.47000000000E+01 0.  1.
         11    1    4    4    0    0  0.18984326403E+02 -0.74532057831E+01 -0.31037622052E+02  0.37138779033E+02  0.00000000000E+00 0. -1.
        -12    1    4    4    0    0  0.17975674339E+03 -0.12886852134E+03 -0.13599923890E+02  0.22159544335E+03  0.00000000000E+00 0.  1.
</event>
<event>
12    1  0.1597826E-001  0.1784778E+03  0.7818608E-02  0.1169899E+00
         21   -1    0    0  503  502  0.00000000000E+00  0.00000000000E+00  0.29389154852E+03  0.29389154852E+03  0.00000000000E+00 0.  1.
         21   -1    0    0  501  503 -0.00000000000E+00 -0.00000000000E+00 -0.80086862146E+03  0.80086862146E+03  0.00000000000E+00 0.  1.
          6    2    1    2  501    0 -0.18605275645E+02  0.39171045788E+02 -0.76327181857E+03  0.78386107439E+03  0.17312939615E+03 0.  0.
         24    2    3    3    0    0 -0.11128789044E+02 -0.44607279471E+02 -0.34469872322E+03  0.35689476216E+03  0.80268313392E+02 0.  0.
         -6    2    1    2    0  502  0.18605275645E+02 -0.39171045788E+02  0.25629474563E+03  0.31089909559E+03  0.17056003017E+03 0.  0.
        -24    2    5    5    0    0 -0.98198848149E+01 -0.80097759400E+02  0.11458602698E+03  0.16061124986E+03  0.78447019080E+02 0.  0.
          5    1    3    3  501    0 -0.74764866005E+01  0.83778325259E+02 -0.41857309535E+03  0.42696631223E+03  0.47000000000E+01 0. -1.
        -11    1    4    4    0    0  0.68666513649E+01  0.21634408209E+02 -0.11228985316E+03  0.11456094292E+03  0.00000000000E+00 0.  1.
         12    1    4    4    0    0 -0.17995440409E+02 -0.66241687680E+02 -0.23240887006E+03  0.24233381924E+03  0.00000000000E+00 0. -1.
         -5    1    5    5    0  502  0.28425160460E+02  0.40926713612E+02  0.14170871865E+03  0.15028784573E+03  0.47000000000E+01 0.  1.
         13    1    6    6    0    0  0.60500297555E+01  0.87623959101E+01 -0.41769866416E+01  0.11438079364E+02  0.00000000000E+00 0. -1.
        -14    1    6    6    0    0 -0.15869914570E+02 -0.88860155310E+02  0.11876301362E+03  0.14917317049E+03  0.00000000000E+00 0.  1.
</event>
<event>
12    1  0.1597826E-001  0.1802389E+03  0.7818608E-02  0.1167807E+00
         21   -1    0    0  503  502  0.00000000000E+00  0.00000000000E+00  0.52960244440E+03  0.52960244440E+03  0.00000000000E+00 0.  1.
         21   -1    0    0  501  503 -0.00000000000E+00 -0.00000000000E+00 -0.13606913806E+03  0.13606913806E+03  0.00000000000E+00 0.  1.
          6    2    1    2  501    0 -0.25708540425E+02  0.44762968165E+02 -0.50195206274E+02  0.18709792503E+03  0.17268880233E+03 0.  0.
         24    2    3    3    0    0 -0.63231264711E+02  0.78660939930E+02 -0.36186553099E+02  0.13441624234E+03  0.81071100101E+02 0.  0.
         -6    2    1    2    0  502  0.25708540425E+02 -0.44762968165E+02  0.44372851261E+03  0.47857365743E+03  0.17167731449E+03 0.  0.
        -24    2    5    5    0    0 -0.44714787301E+02 -0.10332974559E+02  0.16723084741E+03  0.19114032879E+03  0.80388347410E+02 0.  0.
          5    1    3    3  501    0  0.37522724286E+02 -0.33897971765E+02 -0.14008653174E+02  0.52681682693E+02  0.47000000000E+01 0. -1.
        -13    1    4    4    0    0 -0.34081928695E+02  0.66348948305E+02 -0.59250834223E+02  0.95259761500E+02  0.00000000000E+00 0.  1.
         14    1    4    4    0    0 -0.29149336016E+02  0.12311991624E+02  0.23064281124E+02  0.39156480839E+02  0.00000000000E+00 0. -1.
         -5    1    5    5    0  502  0.70423327726E+02 -0.34429993606E+02  0.27649766520E+03  0.28743332864E+03  0.47000000000E+01 0.  1.
         11    1    6    6    0    0 -0.45641067474E+02 -0.41316684302E+02  0.11207150929E+03  0.12786789526E+03  0.00000000000E+00 0. -1.
        -12    1    6    6    0    0  0.92628017250E+00  0.30983709743E+02  0.55159338114E+02  0.63272433536E+02  0.00000000000E+00 0.  1.
</event>
<event>
12    1  0.1597826E-001  0.1799891E+03  0.7818608E-02  0.1167957E+00
         21   -1    0    0  501  502  0.00000000000E+00  0.00000000000E+00  0.19130076547E+03  0.19130076547E+03  0.00000000000E+00 0. -1.
         21   -1    0    0  502  503 -0.00000000000E+00 -0.00000000000E+00 -0.16879442553E+03  0.16879442553E+03  0.00000000000E+00 0. -1.
         -6    2    1    2    0  503  0.24883804916E+02 -0.47418344523E+02  0.10468528249E+02  0.17970403207E+03  0.17121987593E+03 0.  0.
        -24    2    3    3    0    0 -0.27331561118E+02 -0.83065487155E+02  0.68140444161E+01  0.11620120946E+03  0.76219423300E+02 0.  0.
          6    2    1    2  501    0 -0.24883804916E+02  0.47418344523E+02  0.12037811688E+02  0.18039115892E+03  0.17183817435E+03 0.  0.
         24    2    5    5    0    0  0.29248952341E+01  0.76444572891E+02 -0.42253734859E+02  0.11267478156E+03  0.71118918387E+02 0.  0.
          5    1    5    5  501    0 -0.27808700150E+02 -0.29026228368E+02  0.54291546547E+02  0.67716377367E+02  0.47000000000E+01 0. -1.
        -11    1    6    6    0    0  0.35905005078E+02  0.52881385158E+02 -0.26011787281E+02  0.69008864383E+02  0.00000000000E+00 0.  1.
         12    1    6    6    0    0 -0.32980109844E+02  0.23563187734E+02 -0.16241947578E+02  0.43665917173E+02  0.00000000000E+00 0. -1.
         -5    1    3    3    0  503  0.52215366034E+02  0.35647142632E+02  0.36544838330E+01  0.63502822614E+02  0.47000000000E+01 0.  1.
         13    1    4    4    0    0 -0.23922647871E+02 -0.24132904135E+02 -0.31082822739E+02  0.46052491926E+02  0.00000000000E+00 0. -1.
        -14    1    4    4    0    0 -0.34089132466E+01 -0.58932583020E+02  0.37896867155E+02  0.70148717530E+02  0.00000000000E+00 0.  1.
</event>
<event>
12    1  0.1597826E-001  0.2276709E+03  0.7818608E-02  0.1128478E+00
         21   -1    0    0  501  502  0.00000000000E+00  0.00000000000E+00  0.14791326643E+03  0.14791326643E+03  0.00000000000E+00 0. -1.
         21   -1    0    0  502  503 -0.00000000000E+00 -0.00000000000E+00 -0.60848839237E+03  0.60848839237E+03  0.00000000000E+00 0. -1.
         -6    2    1    2    0  503  0.14790254287E+03  0.33197814267E+02 -0.47704385125E+03  0.52813587678E+03  0.16846189858E+03 0.  0.
        -24    2    3    3    0    0  0.15981502431E+03  0.61927597754E+02 -0.34937955144E+03  0.39665366841E+03  0.76760617121E+02 0.  0.
          6    2    1    2  501    0 -0.14790254287E+03 -0.33197814267E+02  0.16468725302E+02  0.22826578202E+03  0.16987286795E+03 0.  0.
         24    2    5    5    0    0 -0.17282660738E+03 -0.45138395743E+02 -0.29340593640E+01  0.19417260777E+03  0.76078130356E+02 0.  0.
          5    1    5    5  501    0  0.24924064501E+02  0.11940581476E+02  0.19402784666E+02  0.34093174244E+02  0.47000000000E+01 0. -1.
        -13    1    6    6    0    0 -0.43119337773E+02 -0.39113443593E+01 -0.33424948645E+02  0.54697377420E+02  0.00000000000E+00 0.  1.
         14    1    6    6    0    0 -0.12970726960E+03 -0.41227051383E+02  0.30490889281E+02  0.13947523035E+03  0.00000000000E+00 0. -1.
         -5    1    3    3    0  503 -0.11912481437E+02 -0.28729783487E+02 -0.12766429981E+03  0.13148220837E+03  0.47000000000E+01 0.  1.
         13    1    4    4    0    0  0.32789648969E+02  0.41747126099E+02 -0.15259244315E+03  0.16156248736E+03  0.00000000000E+00 0. -1.
        -14    1    4    4    0    0  0.12702537534E+03  0.20180471655E+02 -0.19678710829E+03  0.23509118105E+03  0.00000000000E+00 0.  1.
</event>
